/*--------------------------------*- C++ -*----------------------------------*\
  =========                 |
  \\      /  F ield         | OpenFOAM: The Open Source CFD Toolbox
   \\    /   O peration     | Website:  https://openfoam.org
    \\  /    A nd           | Version:  9
     \\/     M anipulation  |
\*---------------------------------------------------------------------------*/
FoamFile
{
    format      ascii;
    class       volScalarField;
    location    "61";
    object      ddt0(h);
}
// * * * * * * * * * * * * * * * * * * * * * * * * * * * * * * * * * * * * * //

dimensions      [0 1 -1 0 0 0 0];

internalField   nonuniform List<scalar> 
400
(
1.43936e-08
1.80667e-08
2.69923e-09
-5.19017e-09
-6.90354e-09
-1.55212e-08
-1.89363e-08
-2.05616e-08
-1.37904e-08
4.93264e-09
8.73339e-09
4.10639e-09
-1.07225e-08
-1.82656e-08
-4.64355e-10
1.15341e-08
-3.08814e-09
-1.74251e-08
-1.17497e-08
-2.48277e-09
7.19198e-09
3.80779e-09
3.18835e-09
7.72892e-09
-6.26752e-09
-1.65294e-08
-1.92024e-08
-1.65851e-08
-1.09427e-08
-2.08458e-08
-1.23182e-10
-1.96372e-08
-1.21325e-08
-1.49909e-08
-5.46742e-09
6.88104e-09
3.05376e-09
2.35391e-09
2.69383e-09
-5.10026e-10
4.13794e-09
-5.02729e-09
7.50609e-09
9.93259e-09
-1.03534e-08
-1.70763e-08
-2.4348e-09
-1.70984e-08
-1.67672e-08
-3.89767e-08
-3.18835e-08
-8.10091e-09
-4.23984e-08
-2.03326e-08
-1.82334e-08
-1.95392e-08
-6.70788e-09
7.87988e-09
5.50792e-09
4.31762e-10
2.99658e-09
-4.63244e-09
2.65063e-09
1.84624e-09
-1.25437e-08
9.83482e-09
-2.79228e-09
-4.03643e-09
-8.49058e-08
1.61291e-08
-9.75538e-08
1.83132e-09
2.03756e-10
-4.91492e-08
-3.83225e-08
-4.28459e-08
-2.39268e-08
7.57862e-09
1.07233e-08
2.00492e-09
8.23945e-10
-7.11293e-09
-3.31443e-09
-1.12805e-08
5.25964e-09
2.11847e-08
8.66462e-09
-6.4326e-08
-2.07538e-08
-3.85182e-08
1.30581e-07
-9.92469e-08
6.64325e-08
3.96883e-08
-5.38057e-08
-6.7377e-08
-3.5262e-08
-2.17744e-09
3.10313e-09
-4.09077e-10
-3.65003e-09
-1.14579e-08
-1.03547e-08
-8.1783e-09
1.53705e-08
3.41117e-08
-2.39029e-08
-7.63122e-08
1.2888e-07
-1.03769e-07
8.20057e-08
9.53336e-08
-6.33163e-08
6.45949e-08
3.15129e-08
-4.65009e-08
-4.72122e-08
-2.81549e-08
-1.92314e-08
-8.08278e-09
-6.4403e-09
-1.55184e-08
-8.87184e-09
-5.90033e-09
2.61382e-08
2.00922e-08
-5.97377e-08
5.92053e-08
-4.62977e-08
2.73609e-07
-3.94308e-07
6.92274e-08
8.05062e-08
-2.74685e-09
2.78566e-08
-4.85059e-09
-3.2358e-08
-4.17175e-08
-3.35824e-08
-1.21267e-08
-8.87322e-09
-1.14915e-08
-6.36953e-09
2.17005e-09
1.50732e-08
4.45623e-09
-2.04094e-08
-2.30231e-08
1.4537e-07
-1.91249e-07
-7.66672e-07
-3.51865e-07
2.74997e-08
6.9422e-08
3.08263e-08
1.13115e-08
-2.25147e-08
-3.47522e-08
-2.89237e-08
-9.50265e-09
-9.93555e-09
-5.89081e-09
2.98963e-09
2.37244e-09
3.87264e-09
-9.88491e-09
-7.57716e-11
1.49586e-08
-1.16516e-07
2.58157e-07
7.11561e-07
4.2044e-07
1.40667e-08
-1.91366e-08
-9.82351e-09
9.50436e-09
-3.44059e-08
-7.33453e-09
-1.14576e-08
1.1421e-08
-8.94776e-09
6.54343e-10
6.02897e-09
8.32653e-09
-2.143e-08
-2.20781e-08
3.50202e-08
-1.04217e-08
7.41559e-08
-2.50337e-07
4.37954e-07
-1.808e-07
-7.35564e-08
-1.2022e-08
-3.07821e-08
-1.27818e-09
7.2609e-08
1.33981e-08
-2.24016e-09
-1.9217e-08
-5.1749e-09
3.58423e-09
4.29231e-09
3.51971e-09
-2.28985e-08
-4.68645e-08
4.4915e-08
9.74824e-08
-4.35401e-08
-2.03448e-07
9.20488e-08
-1.87641e-07
-8.88458e-08
-1.15556e-07
-3.82012e-08
3.09954e-08
4.14347e-08
2.34894e-08
4.51063e-09
-2.69637e-09
-2.95835e-09
3.08146e-09
-4.70616e-09
-3.32129e-09
-1.55315e-08
-2.68516e-08
-6.97375e-09
1.18387e-07
-9.16778e-08
3.10875e-07
-3.26531e-06
1.73574e-07
-1.49235e-07
-1.02939e-07
1.54269e-09
4.47673e-08
2.45801e-08
8.34077e-09
-2.09569e-09
-3.39626e-09
-6.51284e-09
-1.00436e-09
-1.29861e-08
-9.57966e-09
6.326e-09
-2.32062e-09
-1.20261e-08
-4.24705e-08
1.75011e-07
-3.3892e-07
3.41776e-06
-2.12822e-07
3.77327e-08
8.86302e-08
3.99125e-08
1.33008e-09
-1.81342e-08
-2.55165e-08
-1.56652e-08
-3.9115e-09
-1.22444e-08
-8.13291e-09
-1.25072e-08
-1.21245e-08
1.90496e-08
2.60588e-08
-2.24515e-08
-5.71233e-08
-4.17265e-08
3.38447e-07
-4.88315e-07
1.71664e-07
1.57292e-07
5.59269e-08
7.93739e-09
-2.59451e-08
-4.38521e-08
-4.07794e-08
-1.4377e-08
1.27785e-09
-1.23386e-08
-1.17596e-08
-9.15522e-09
-9.85959e-09
1.04722e-08
3.70133e-08
-6.56728e-10
-5.92559e-08
-5.19344e-08
-4.13014e-08
4.53131e-08
6.86566e-08
1.66171e-08
3.32155e-10
-2.82122e-08
-5.06553e-08
-4.64139e-08
-2.5316e-08
7.13936e-10
6.86448e-09
-1.94683e-09
-8.89828e-09
-9.13426e-09
-1.12782e-08
-5.7006e-09
1.46901e-08
2.14355e-08
-2.79446e-08
-5.72856e-08
-6.2275e-08
2.43399e-08
-3.99399e-08
-3.40156e-08
-3.43761e-08
-5.03074e-08
-5.22606e-08
-2.16545e-08
8.19505e-09
1.50511e-08
6.88784e-09
9.76962e-09
1.54279e-09
-1.31521e-08
-1.38784e-08
-2.16505e-08
-7.42505e-09
9.37245e-09
9.76303e-09
-2.56863e-08
-3.57175e-08
-4.8051e-08
-4.59177e-08
-4.20525e-08
-3.97403e-08
-3.6822e-08
-2.8652e-08
1.99476e-09
2.71411e-08
1.74309e-08
1.8815e-09
8.66549e-09
1.11759e-08
-6.0299e-09
-1.08594e-08
-2.18622e-08
-2.60243e-08
-7.91077e-09
3.23974e-09
-2.11479e-09
-1.04879e-08
-1.38144e-08
-1.50288e-08
-2.59366e-08
-2.0519e-08
-1.15923e-08
-6.72047e-09
8.10891e-09
1.74011e-08
4.40267e-09
-3.96493e-09
-2.89848e-09
1.0376e-08
1.48307e-08
2.60916e-09
-1.56019e-08
-3.14856e-08
-2.34564e-08
-1.66519e-08
-7.33589e-09
-7.51746e-09
-1.23173e-10
-2.19964e-09
-1.3676e-08
-1.62625e-08
-2.82864e-09
1.05206e-08
-3.99275e-10
-1.42233e-08
-1.12867e-08
-3.50341e-09
-1.30444e-08
1.18386e-09
2.95924e-08
1.7867e-08
-1.16681e-08
-2.87935e-08
-3.24555e-08
-2.66629e-08
-2.01688e-08
-1.41639e-08
-9.12058e-09
-7.17588e-09
-1.56584e-08
-2.76323e-08
-2.9252e-09
2.04114e-08
-8.30885e-09
-3.91894e-08
-2.377e-08
-1.91032e-09
)
;

boundaryField
{
    sides
    {
        type            calculated;
        value           nonuniform List<scalar> 
40
(
-1.30444e-08
1.18386e-09
2.95924e-08
1.7867e-08
-1.16681e-08
-2.87935e-08
-3.24555e-08
-2.66629e-08
-2.01688e-08
-1.41639e-08
-9.12058e-09
-7.17588e-09
-1.56584e-08
-2.76323e-08
-2.9252e-09
2.04114e-08
-8.30885e-09
-3.91894e-08
-2.377e-08
-1.91032e-09
1.43936e-08
1.80667e-08
2.69923e-09
-5.19017e-09
-6.90354e-09
-1.55212e-08
-1.89363e-08
-2.05616e-08
-1.37904e-08
4.93264e-09
8.73339e-09
4.10639e-09
-1.07225e-08
-1.82656e-08
-4.64355e-10
1.15341e-08
-3.08814e-09
-1.74251e-08
-1.17497e-08
-2.48277e-09
)
;
    }
    inlet
    {
        type            calculated;
        value           nonuniform List<scalar> 
20
(
1.43936e-08
7.19198e-09
4.13794e-09
2.99658e-09
8.23945e-10
-3.65003e-09
-6.4403e-09
-8.87322e-09
-9.93555e-09
-8.94776e-09
-5.1749e-09
-2.95835e-09
-6.51284e-09
-1.22444e-08
-1.23386e-08
-1.94683e-09
9.76962e-09
8.66549e-09
-2.89848e-09
-1.30444e-08
)
;
    }
    outlet
    {
        type            calculated;
        value           uniform 0;
    }
    frontAndBack
    {
        type            empty;
    }
}


// ************************************************************************* //
