/*--------------------------------*- C++ -*----------------------------------*\
  =========                 |
  \\      /  F ield         | OpenFOAM: The Open Source CFD Toolbox
   \\    /   O peration     | Website:  https://openfoam.org
    \\  /    A nd           | Version:  9
     \\/     M anipulation  |
\*---------------------------------------------------------------------------*/
FoamFile
{
    format      ascii;
    class       surfaceScalarField;
    location    "61";
    object      ddtCorrDdt0(phi);
}
// * * * * * * * * * * * * * * * * * * * * * * * * * * * * * * * * * * * * * //

dimensions      [0 4 -2 0 0 0 0];

internalField   nonuniform List<scalar> 
760
(
-1.89474e-12
1.4807e-11
9.83676e-12
2.70497e-11
2.13883e-11
2.26248e-11
-1.8696e-13
-1.54463e-11
-8.94291e-12
-2.70006e-11
-1.66266e-11
-1.63702e-11
-8.48685e-12
9.64768e-12
-1.90501e-11
1.85682e-12
-2.57376e-11
7.41906e-12
-2.1036e-11
6.18872e-12
-7.88489e-12
-2.16717e-13
1.84489e-11
3.83005e-11
2.50765e-11
2.47014e-11
1.48839e-11
1.94198e-11
-1.40209e-11
-6.65492e-12
-1.02828e-13
-8.76158e-12
3.095e-11
1.66724e-12
2.49213e-11
1.64421e-11
2.36951e-11
2.84704e-11
8.74114e-12
-5.85163e-12
2.47324e-11
5.06052e-12
4.44729e-11
-8.66189e-14
3.1673e-11
-3.03936e-12
-1.13676e-11
-2.37348e-12
-3.04916e-11
-3.68878e-12
-1.21653e-11
-1.69022e-11
6.56053e-13
-1.09812e-11
1.40887e-11
-3.00551e-11
-1.59014e-12
-2.05856e-11
3.57742e-11
3.90314e-12
1.72664e-11
-1.47329e-12
4.64156e-11
1.76517e-11
6.98675e-11
-2.84984e-12
3.66859e-11
-4.76987e-12
1.00915e-11
1.86911e-11
-4.16163e-12
3.28828e-11
-1.40767e-12
2.7048e-11
1.56824e-11
2.62328e-11
2.6577e-11
1.23604e-11
-4.12868e-12
2.4924e-11
-9.02126e-12
4.5839e-11
-2.50452e-11
3.88094e-11
-6.68196e-12
1.20315e-11
8.98789e-12
-7.1801e-12
-5.01367e-12
-1.3507e-11
-1.07707e-11
-6.10852e-12
-1.67359e-11
1.47708e-11
1.11794e-11
4.00049e-11
-3.91352e-11
1.49762e-11
2.16055e-11
8.01911e-11
-6.96103e-12
9.33219e-13
-2.80449e-11
9.03927e-11
-2.29245e-11
8.1305e-11
-1.35261e-11
3.47209e-11
2.0085e-11
9.65205e-12
4.24723e-11
-5.71521e-12
3.2343e-11
5.35978e-12
1.16254e-11
1.93704e-11
2.97467e-12
-5.68959e-12
1.15523e-11
-2.02869e-11
4.39791e-11
-3.31122e-11
5.15639e-11
-5.38709e-12
3.60592e-11
4.21572e-12
9.19378e-12
-1.54123e-11
-1.95989e-11
2.13746e-13
1.23192e-11
2.00864e-12
3.04123e-11
6.89708e-12
1.12208e-10
1.74346e-11
-4.24549e-11
-7.01911e-11
-3.7128e-11
7.11595e-11
4.04291e-11
-4.01382e-11
-4.19938e-11
-6.58308e-11
6.98952e-11
-2.31324e-11
7.36672e-11
4.26336e-12
1.83978e-11
1.60051e-11
-1.57123e-11
2.25493e-11
-5.88442e-12
2.03865e-11
8.32545e-12
-1.29859e-12
-2.4845e-12
-2.74104e-12
-1.92893e-11
4.08573e-11
-2.54935e-11
6.02926e-11
-3.11818e-12
4.64769e-11
-2.44122e-11
3.42174e-12
-8.61664e-12
-3.16059e-12
-7.10713e-12
8.42465e-12
9.2206e-11
1.43126e-10
-1.17035e-10
-7.20753e-11
1.04656e-10
1.07984e-10
-7.42159e-12
-1.95106e-10
-3.72893e-11
7.0217e-12
9.89622e-11
4.57545e-12
-2.97301e-11
-7.20669e-11
-6.31887e-11
7.63928e-12
-2.93053e-11
2.35082e-11
-9.65112e-12
-1.29651e-11
1.47038e-11
5.06247e-14
2.41893e-11
1.8798e-11
2.50294e-12
8.31118e-12
-4.08178e-12
-7.58204e-12
3.65469e-11
-1.05389e-11
5.48819e-11
-1.42347e-11
3.29822e-11
-3.35818e-11
2.59488e-12
-3.06962e-11
-1.10512e-11
9.77027e-11
8.19249e-11
-6.57312e-11
9.27472e-12
7.0689e-11
2.59398e-11
-1.54945e-10
-1.44651e-10
1.93409e-10
2.66661e-10
-7.30048e-11
-3.24299e-10
3.50447e-12
6.46473e-12
1.01568e-10
3.29349e-11
8.61912e-12
-3.48538e-11
-5.69236e-11
-2.32072e-11
-5.08461e-11
-1.74162e-11
-3.67812e-12
1.18546e-11
2.36697e-11
2.92693e-11
6.6676e-12
1.68718e-11
5.92967e-12
5.21581e-12
3.05979e-11
-3.26249e-12
3.63683e-11
-1.44845e-11
1.45698e-11
-5.58267e-11
-1.29966e-11
2.2541e-11
2.38726e-11
4.8941e-11
1.48444e-11
-7.06598e-11
4.48104e-11
1.59204e-11
4.21901e-11
1.34419e-10
-2.16441e-10
-4.27918e-10
-1.93604e-09
2.15007e-10
3.01891e-10
4.20303e-11
-9.27554e-11
4.95856e-11
1.26432e-11
5.44549e-11
1.37297e-11
-2.96045e-11
-2.15093e-11
-5.00437e-11
-3.03989e-11
-1.36634e-11
8.93035e-12
1.07594e-11
2.90667e-11
6.00744e-12
1.52667e-11
1.26323e-11
8.15532e-12
2.28481e-11
7.94098e-13
1.68969e-11
-2.00051e-11
-4.90561e-12
-2.83594e-11
-7.17075e-12
-3.90077e-12
1.1664e-11
4.01961e-11
3.4911e-11
6.01676e-12
-4.46264e-11
-3.26502e-10
5.29556e-11
-5.68845e-11
6.16912e-10
-3.232e-10
5.43603e-08
-1.30823e-10
-2.70604e-10
1.52313e-10
2.79399e-10
8.565e-11
7.71015e-11
4.87945e-11
-4.95897e-12
-1.92998e-11
-3.10638e-11
-3.62883e-11
-2.73077e-11
-1.15357e-11
2.51102e-12
6.43199e-12
1.75568e-11
-7.67476e-12
5.97884e-12
1.0144e-11
3.25709e-12
8.69712e-12
-2.29864e-12
2.91093e-12
-7.8488e-12
-1.185e-11
-1.29259e-11
-9.56856e-12
-1.81534e-13
3.35275e-11
-3.7183e-11
6.20299e-12
-2.61398e-11
1.38872e-11
3.43734e-10
-4.08044e-11
-1.87728e-11
-3.05212e-10
2.88448e-10
-1.49407e-09
1.59597e-10
3.1618e-10
-8.8609e-11
-1.40252e-10
-1.44086e-11
-5.69829e-11
8.75746e-12
-7.56086e-11
-1.82491e-11
-3.86266e-11
-2.90963e-12
1.61839e-09
3.30758e-12
1.35483e-11
1.88633e-12
8.44235e-12
5.59826e-10
-6.6312e-12
1.56712e-12
-1.75162e-12
-6.15119e-12
-5.33621e-12
-9.32811e-12
-3.00715e-12
-4.08274e-12
2.53081e-11
-2.92285e-12
-2.31628e-11
1.04718e-11
-6.54579e-11
4.45971e-11
3.34044e-11
-6.5205e-11
-5.88214e-11
-8.52452e-11
-1.37943e-11
8.5091e-12
3.04782e-10
-7.51615e-11
-2.88316e-10
-7.13316e-11
-2.04457e-11
7.05789e-11
2.20388e-12
-1.88561e-11
7.90298e-12
-8.06965e-11
6.33967e-11
-4.90402e-11
2.75505e-11
-2.52547e-11
2.80606e-12
-9.60086e-12
1.48821e-11
-1.09705e-11
-1.63811e-11
-1.42337e-11
-5.06985e-12
-3.91328e-12
-1.90125e-11
-6.39579e-13
-1.53406e-11
-2.32125e-12
1.83783e-12
3.13836e-11
8.81438e-12
1.43028e-11
-2.23195e-11
-1.27239e-10
-1.59437e-11
-2.67476e-11
5.32779e-11
-9.67753e-12
-7.59217e-11
-8.20789e-11
2.01894e-10
1.62645e-10
3.32842e-09
-1.81379e-10
-2.5045e-10
-1.35176e-10
1.05137e-10
-6.76599e-11
2.07459e-12
5.16086e-11
6.12093e-12
9.32352e-11
2.33754e-11
4.06609e-11
5.6482e-12
8.80955e-12
-7.73321e-12
1.07542e-11
-1.89419e-11
-9.32604e-12
-1.6046e-11
-8.1227e-12
-2.78841e-13
-2.24691e-11
6.62497e-12
-2.33342e-11
-1.36706e-12
2.91926e-12
1.11055e-11
3.85955e-12
1.75169e-11
-3.65844e-11
-4.25756e-11
-7.15081e-11
-1.64079e-10
5.67117e-11
3.44369e-10
1.01195e-10
-4.36541e-11
-4.07051e-10
-1.74829e-09
-4.08107e-08
1.3575e-10
3.2365e-10
-2.00607e-10
-2.49075e-10
-1.24801e-11
-2.55188e-12
8.13248e-11
8.21596e-11
7.69036e-11
4.63164e-11
2.49844e-11
2.93738e-11
-1.82797e-12
-5.39113e-12
8.51097e-12
-2.46943e-11
-8.57651e-12
-9.5144e-12
-4.55273e-12
3.93439e-13
-2.35078e-11
1.51989e-11
-3.14502e-11
-8.12701e-12
-1.64064e-11
-1.51745e-11
2.32931e-12
-1.12859e-11
-3.76548e-11
2.7459e-11
-6.87243e-11
2.99791e-11
-6.92466e-11
-3.18754e-10
5.29303e-11
1.32251e-10
1.85043e-10
1.70227e-09
1.96442e-09
-2.33345e-10
-2.99485e-10
1.23045e-10
1.72281e-10
9.6997e-11
9.45601e-11
4.0174e-11
4.77943e-11
1.04541e-12
2.86381e-11
-1.03767e-11
1.61237e-11
-1.58593e-11
-1.43152e-11
2.20234e-12
-2.87154e-11
-5.67124e-12
-1.3868e-12
2.37892e-12
-2.3668e-12
-2.79494e-11
9.06116e-12
-4.51835e-11
-5.55195e-12
-3.68464e-11
-3.87579e-11
-9.68596e-12
-1.52097e-11
-7.41332e-12
3.81441e-11
-6.38931e-11
7.05807e-11
-9.29657e-11
-5.12052e-11
-8.70766e-11
-7.98092e-13
1.91704e-10
-3.08932e-10
-5.35369e-11
2.68776e-10
3.2655e-10
1.07801e-10
9.06018e-11
2.24853e-11
1.39269e-11
-1.1605e-11
-9.78711e-12
-2.98732e-11
-5.42577e-12
-2.11343e-11
1.24359e-12
-1.00501e-11
-2.33802e-11
4.54906e-12
-3.49853e-11
-6.7701e-12
-1.1929e-12
5.72825e-12
-1.17384e-11
-3.96917e-11
-7.01018e-12
-5.83796e-11
-4.28287e-12
-4.56809e-11
-2.66657e-11
-1.30867e-11
-3.2565e-11
1.06299e-11
2.76854e-11
-1.28318e-11
4.46218e-11
-8.07766e-11
3.21111e-11
-8.99067e-11
-4.97918e-11
-9.44489e-11
7.63107e-11
2.12418e-10
1.31911e-11
-5.39904e-12
-1.53689e-11
-4.09439e-11
-3.45275e-11
-6.20492e-11
-3.84489e-11
-5.83433e-11
-2.9383e-11
-2.83318e-11
-7.43619e-12
-2.87681e-12
1.07544e-11
-2.55844e-11
1.35165e-11
-4.40605e-11
-1.25729e-11
-1.49628e-11
-1.23541e-12
-2.22363e-11
-4.90681e-11
-2.21196e-11
-6.13833e-11
-3.50359e-12
-3.52854e-11
-3.85402e-12
-3.46203e-12
-2.18556e-11
1.5012e-11
-9.19913e-12
1.02337e-11
2.40836e-11
-2.40237e-11
7.30929e-12
-5.7045e-11
-4.84311e-12
-5.4252e-11
3.83649e-11
-2.27669e-11
-1.75462e-11
-6.81677e-11
-4.83166e-11
-8.93803e-11
-6.2548e-11
-8.97283e-11
-3.70403e-11
-6.07215e-11
2.26656e-12
-1.36904e-11
2.20096e-11
1.04037e-11
2.88364e-11
-1.76945e-11
2.29093e-11
-4.2348e-11
-1.40057e-11
-3.21238e-11
-2.02655e-11
-2.7191e-11
-4.24907e-11
-2.35185e-11
-4.5264e-11
-2.91241e-12
-1.41925e-11
1.32208e-11
6.88636e-12
-3.91392e-12
8.7751e-12
-2.13811e-11
-1.99924e-12
-6.2188e-12
-1.1791e-12
4.43302e-12
-7.56726e-12
5.05415e-13
-6.18133e-12
-8.86574e-12
-2.90994e-11
-1.78261e-11
-4.17764e-11
-4.8757e-11
-6.12125e-11
-5.1652e-11
-4.78256e-11
-2.61092e-12
-6.82132e-12
3.54531e-11
1.63907e-11
3.74565e-11
1.75306e-11
3.13455e-11
-5.44389e-12
2.62541e-11
-2.33659e-11
-6.34457e-12
-2.84841e-11
-4.01068e-11
-2.22219e-11
-2.53213e-11
-1.21748e-11
-1.62217e-11
-2.98556e-12
-7.50831e-13
1.80731e-11
1.33641e-11
3.30959e-12
-2.46949e-12
-1.39497e-11
-1.57758e-11
-2.08327e-11
-1.40329e-11
-1.13136e-12
6.6007e-12
-8.64915e-13
9.79961e-12
-6.07739e-12
7.09939e-12
-1.01973e-11
-8.71631e-12
-1.98845e-11
-2.1445e-11
-1.22856e-11
3.45758e-12
9.49361e-12
3.00776e-11
3.72951e-11
2.65381e-11
4.34893e-11
1.06556e-11
2.86206e-11
-1.10544e-12
1.62183e-11
-3.29535e-12
3.71045e-12
3.01482e-12
-3.67677e-11
-3.86764e-12
-1.1391e-11
-3.0525e-12
1.99825e-12
5.43837e-13
3.99552e-12
6.511e-12
9.62616e-12
8.74933e-13
-3.56726e-12
-1.3148e-11
-1.71364e-11
-1.53661e-11
-1.60756e-11
-1.07133e-11
-6.19296e-14
-9.83228e-12
6.34593e-12
-1.03732e-12
7.7145e-12
6.85463e-13
2.44665e-12
1.14609e-11
1.11751e-12
5.20202e-12
1.47148e-11
-4.30373e-12
2.56152e-11
1.81691e-11
1.7773e-11
4.38716e-11
1.14119e-12
3.13234e-11
-1.64385e-12
2.46815e-12
5.76691e-12
6.75076e-12
3.56358e-11
1.75015e-11
4.78449e-13
1.83861e-12
-2.7874e-12
-6.34082e-12
-1.32276e-11
-1.28979e-11
-1.97741e-11
-1.27215e-11
-9.58778e-12
5.03873e-12
2.57763e-11
1.34617e-11
-1.55654e-11
-5.27291e-12
3.76422e-11
3.92194e-11
-3.04258e-12
)
;

boundaryField
{
    sides
    {
        type            calculated;
        value           uniform 0;
    }
    inlet
    {
        type            calculated;
        value           uniform 0;
    }
    outlet
    {
        type            calculated;
        value           nonuniform List<scalar> 
20
(
3.96297e-11
2.86584e-11
8.35589e-12
1.29256e-11
2.07406e-11
2.398e-11
1.43316e-11
1.27351e-11
4.18532e-11
-2.18274e-11
1.13795e-11
1.77967e-11
1.65963e-11
1.27089e-11
1.06749e-11
1.61158e-11
2.31579e-11
1.46194e-11
-7.12321e-12
-2.50098e-11
)
;
    }
    frontAndBack
    {
        type            empty;
        value           nonuniform List<scalar> 0();
    }
}


// ************************************************************************* //
