/*--------------------------------*- C++ -*----------------------------------*\
  =========                 |
  \\      /  F ield         | OpenFOAM: The Open Source CFD Toolbox
   \\    /   O peration     | Website:  https://openfoam.org
    \\  /    A nd           | Version:  9
     \\/     M anipulation  |
\*---------------------------------------------------------------------------*/
FoamFile
{
    format      ascii;
    class       volScalarField;
    location    "61";
    object      h;
}
// * * * * * * * * * * * * * * * * * * * * * * * * * * * * * * * * * * * * * //

dimensions      [0 1 0 0 0 0 0];

internalField   nonuniform List<scalar> 
400
(
0.0100004
0.0100004
0.0100003
0.0100001
0.00999995
0.00999974
0.0099995
0.00999927
0.00999905
0.00999889
0.0099988
0.00999881
0.00999892
0.00999913
0.0099994
0.00999967
0.00999989
0.01
0.0100001
0.01
0.0100003
0.0100003
0.0100002
0.0100001
0.00999987
0.00999964
0.00999938
0.00999912
0.00999887
0.00999867
0.00999856
0.00999858
0.00999873
0.00999898
0.00999929
0.00999958
0.0099998
0.00999992
0.00999997
0.00999999
0.0100004
0.0100003
0.0100002
0.0100001
0.00999987
0.00999962
0.00999934
0.00999903
0.00999872
0.00999848
0.00999834
0.00999834
0.00999852
0.00999886
0.00999927
0.00999965
0.00999993
0.0100001
0.0100001
0.01
0.0100004
0.0100004
0.0100003
0.0100001
0.0099999
0.00999963
0.00999928
0.00999889
0.00999846
0.00999809
0.00999787
0.00999789
0.0099982
0.00999872
0.0099993
0.00999974
0.00999996
0.00999999
0.00999996
0.00999996
0.0100005
0.0100005
0.0100004
0.0100002
0.01
0.00999969
0.00999927
0.00999874
0.00999815
0.00999758
0.00999719
0.00999719
0.0099977
0.00999858
0.00999952
0.0100002
0.0100004
0.0100003
0.0100001
0.00999999
0.0100006
0.0100006
0.0100005
0.0100004
0.0100002
0.00999987
0.00999934
0.0099986
0.00999775
0.00999691
0.00999633
0.00999629
0.00999706
0.00999843
0.00999973
0.0100004
0.0100005
0.0100002
0.00999993
0.00999992
0.0100008
0.0100008
0.0100007
0.0100007
0.0100005
0.0100002
0.00999966
0.00999866
0.00999716
0.0099954
0.00999415
0.00999455
0.00999671
0.00999949
0.0100013
0.0100015
0.0100008
0.01
0.00999974
0.00999987
0.0100009
0.010001
0.010001
0.0100011
0.010001
0.0100008
0.0100003
0.00999927
0.0099974
0.00999431
0.00999041
0.00999022
0.0099945
0.0100002
0.0100033
0.0100031
0.0100013
0.00999985
0.00999949
0.00999983
0.010001
0.0100011
0.0100013
0.0100015
0.0100018
0.0100019
0.0100014
0.00999949
0.0099955
0.00998974
0.00998689
0.00998978
0.00999805
0.0100037
0.0100044
0.0100024
0.0100003
0.00999934
0.00999944
0.00999987
0.010001
0.0100012
0.0100014
0.0100019
0.0100026
0.010004
0.0100059
0.0100078
0.0100049
0.00897847
0.00895245
0.00997584
0.0100088
0.0100178
0.0100104
0.0100023
0.00999886
0.0099989
0.00999978
0.0100001
0.0100009
0.0100011
0.0100013
0.0100018
0.0100026
0.010004
0.0100058
0.0100078
0.0100049
0.00897844
0.0089524
0.0099758
0.0100088
0.0100178
0.0100104
0.0100023
0.00999885
0.00999889
0.00999975
0.0100001
0.0100008
0.0100009
0.0100011
0.0100013
0.0100016
0.0100017
0.0100012
0.00999931
0.00999533
0.00998956
0.00998657
0.00998958
0.00999791
0.0100036
0.0100043
0.0100023
0.0100002
0.00999932
0.00999946
0.00999989
0.0100006
0.0100006
0.0100007
0.0100007
0.0100007
0.0100005
0.01
0.00999898
0.00999712
0.00999405
0.00999032
0.00999
0.00999425
0.00999996
0.0100031
0.0100029
0.0100011
0.00999977
0.00999947
0.00999982
0.0100003
0.0100003
0.0100003
0.0100002
0.0100001
0.00999979
0.00999922
0.00999822
0.00999671
0.00999498
0.00999375
0.00999417
0.00999636
0.00999919
0.0100011
0.0100013
0.0100006
0.0099999
0.00999963
0.00999983
0.01
0.00999999
0.00999993
0.00999981
0.00999961
0.00999929
0.00999877
0.00999805
0.0099972
0.00999639
0.00999584
0.00999583
0.00999664
0.00999804
0.00999939
0.0100001
0.0100002
0.00999999
0.00999982
0.00999988
0.00999975
0.00999971
0.00999963
0.00999949
0.00999928
0.00999897
0.00999857
0.00999806
0.00999748
0.00999692
0.00999654
0.00999659
0.00999713
0.00999806
0.00999905
0.00999975
0.01
0.00999999
0.00999991
0.00999993
0.00999952
0.00999947
0.00999938
0.00999924
0.00999904
0.00999877
0.00999844
0.00999806
0.00999767
0.00999734
0.00999716
0.00999722
0.00999756
0.00999813
0.00999879
0.00999932
0.00999964
0.00999978
0.00999984
0.00999992
0.00999932
0.00999928
0.00999919
0.00999905
0.00999886
0.00999862
0.00999835
0.00999805
0.00999777
0.00999753
0.00999742
0.00999748
0.00999773
0.00999813
0.00999861
0.00999905
0.0099994
0.00999963
0.00999979
0.00999992
0.00999917
0.00999913
0.00999905
0.00999892
0.00999874
0.00999853
0.0099983
0.00999806
0.00999784
0.00999768
0.00999761
0.00999766
0.00999785
0.00999817
0.00999856
0.00999896
0.0099993
0.00999956
0.00999976
0.00999992
0.00999904
0.00999899
0.0099989
0.00999877
0.0099986
0.0099984
0.00999818
0.00999796
0.00999776
0.00999762
0.00999758
0.00999764
0.00999782
0.00999809
0.00999843
0.00999879
0.00999913
0.0099994
0.00999965
0.00999986
)
;

boundaryField
{
    sides
    {
        type            zeroGradient;
    }
    inlet
    {
        type            zeroGradient;
    }
    outlet
    {
        type            fixedValue;
        value           uniform 0.01;
    }
    frontAndBack
    {
        type            empty;
    }
}


// ************************************************************************* //
