/*--------------------------------*- C++ -*----------------------------------*\
  =========                 |
  \\      /  F ield         | OpenFOAM: The Open Source CFD Toolbox
   \\    /   O peration     | Website:  https://openfoam.org
    \\  /    A nd           | Version:  9
     \\/     M anipulation  |
\*---------------------------------------------------------------------------*/
FoamFile
{
    format      ascii;
    class       volVectorField;
    location    "61";
    object      hU;
}
// * * * * * * * * * * * * * * * * * * * * * * * * * * * * * * * * * * * * * //

dimensions      [0 2 -1 0 0 0 0];

internalField   nonuniform List<vector> 
400
(
(0.001 -2.41082e-08 0)
(0.00100004 -7.05283e-08 0)
(0.00100012 -1.13557e-07 0)
(0.00100024 -1.53028e-07 0)
(0.00100039 -1.87569e-07 0)
(0.00100058 -2.16345e-07 0)
(0.00100078 -2.36307e-07 0)
(0.00100099 -2.45253e-07 0)
(0.00100118 -2.36762e-07 0)
(0.00100133 -2.11783e-07 0)
(0.00100141 -1.68498e-07 0)
(0.0010014 -1.27866e-07 0)
(0.00100129 -9.8415e-08 0)
(0.00100111 -9.29907e-08 0)
(0.00100087 -1.00269e-07 0)
(0.00100065 -1.36132e-07 0)
(0.00100044 -1.56311e-07 0)
(0.00100034 -2.00427e-07 0)
(0.00100026 -1.88125e-07 0)
(0.00100034 -2.68389e-07 0)
(0.001 -2.61413e-08 0)
(0.00100004 -7.84576e-08 0)
(0.00100013 -1.28892e-07 0)
(0.00100026 -1.75615e-07 0)
(0.00100042 -2.14051e-07 0)
(0.00100062 -2.39328e-07 0)
(0.00100084 -2.44349e-07 0)
(0.00100108 -2.19952e-07 0)
(0.0010013 -1.55464e-07 0)
(0.00100147 -4.84607e-08 0)
(0.00100157 9.40725e-08 0)
(0.00100155 2.49428e-07 0)
(0.00100141 3.91417e-07 0)
(0.00100119 4.7692e-07 0)
(0.00100093 5.03645e-07 0)
(0.00100067 4.50284e-07 0)
(0.00100049 3.78837e-07 0)
(0.00100037 2.59185e-07 0)
(0.00100034 2.06017e-07 0)
(0.00100029 8.07805e-08 0)
(0.001 -5.15362e-08 0)
(0.00100004 -1.58333e-07 0)
(0.00100013 -2.67922e-07 0)
(0.00100026 -3.75994e-07 0)
(0.00100043 -4.74466e-07 0)
(0.00100065 -5.53937e-07 0)
(0.0010009 -6.01401e-07 0)
(0.00100117 -5.96866e-07 0)
(0.00100143 -5.18687e-07 0)
(0.00100165 -3.52012e-07 0)
(0.00100177 -1.08137e-07 0)
(0.00100176 1.65707e-07 0)
(0.00100159 4.05316e-07 0)
(0.00100131 5.21057e-07 0)
(0.00100095 4.98032e-07 0)
(0.00100063 3.52001e-07 0)
(0.00100037 2.03514e-07 0)
(0.00100027 4.83025e-08 0)
(0.00100022 -2.6545e-09 0)
(0.0010003 -1.17711e-07 0)
(0.001 -7.22951e-08 0)
(0.00100004 -2.21582e-07 0)
(0.00100013 -3.76509e-07 0)
(0.00100026 -5.33323e-07 0)
(0.00100045 -6.81493e-07 0)
(0.00100069 -8.07967e-07 0)
(0.001001 -8.86325e-07 0)
(0.00100134 -8.84315e-07 0)
(0.00100171 -7.55063e-07 0)
(0.00100203 -4.75185e-07 0)
(0.00100222 -1.99918e-08 0)
(0.00100219 4.97438e-07 0)
(0.00100193 9.40709e-07 0)
(0.00100146 1.14127e-06 0)
(0.00100097 1.05349e-06 0)
(0.00100059 7.41214e-07 0)
(0.00100042 4.24498e-07 0)
(0.00100036 1.72625e-07 0)
(0.00100041 1.02342e-07 0)
(0.00100035 -5.16541e-10 0)
(0.001 -8.97002e-08 0)
(0.00100004 -2.77172e-07 0)
(0.00100012 -4.78725e-07 0)
(0.00100025 -6.96935e-07 0)
(0.00100044 -9.21703e-07 0)
(0.00100072 -1.13717e-06 0)
(0.0010011 -1.29575e-06 0)
(0.00100156 -1.33448e-06 0)
(0.00100207 -1.1745e-06 0)
(0.00100257 -7.77919e-07 0)
(0.0010029 -1.68933e-07 0)
(0.00100288 5.83541e-07 0)
(0.00100244 1.23411e-06 0)
(0.00100167 1.5125e-06 0)
(0.00100086 1.3744e-06 0)
(0.00100031 9.63319e-07 0)
(0.00100014 5.82261e-07 0)
(0.00100022 3.16972e-07 0)
(0.00100037 2.62111e-07 0)
(0.00100044 1.66803e-07 0)
(0.001 -1.02066e-07 0)
(0.00100003 -3.17543e-07 0)
(0.00100009 -5.63742e-07 0)
(0.00100019 -8.47701e-07 0)
(0.00100038 -1.17409e-06 0)
(0.00100068 -1.52334e-06 0)
(0.00100115 -1.85564e-06 0)
(0.00100179 -2.05091e-06 0)
(0.00100254 -1.91174e-06 0)
(0.00100326 -1.20007e-06 0)
(0.00100377 8.53963e-08 0)
(0.00100378 1.54442e-06 0)
(0.0010031 2.43649e-06 0)
(0.00100192 2.30437e-06 0)
(0.00100082 1.42814e-06 0)
(0.00100019 4.90985e-07 0)
(0.00100018 1.40118e-08 0)
(0.00100037 -8.31232e-08 0)
(0.00100065 6.0359e-08 0)
(0.00100055 4.91607e-08 0)
(0.001 -1.0132e-07 0)
(0.001 -3.32425e-07 0)
(0.00100002 -6.03351e-07 0)
(0.00100008 -9.65107e-07 0)
(0.00100021 -1.39429e-06 0)
(0.00100048 -1.9451e-06 0)
(0.001001 -2.48609e-06 0)
(0.00100189 -3.08218e-06 0)
(0.00100321 -3.23338e-06 0)
(0.00100473 -2.88215e-06 0)
(0.00100573 -6.66785e-07 0)
(0.00100536 2.55683e-06 0)
(0.0010035 4.82941e-06 0)
(0.00100113 4.73619e-06 0)
(0.000999612 3.02572e-06 0)
(0.000999374 1.26175e-06 0)
(0.00100001 4.31801e-07 0)
(0.00100057 3.29505e-07 0)
(0.00100093 5.62747e-07 0)
(0.00100066 5.33493e-07 0)
(0.000999995 -9.13602e-08 0)
(0.000999969 -2.87748e-07 0)
(0.000999909 -5.78224e-07 0)
(0.000999877 -9.59782e-07 0)
(0.000999878 -1.57975e-06 0)
(0.0010001 -2.3442e-06 0)
(0.0010005 -3.40022e-06 0)
(0.00100153 -4.12417e-06 0)
(0.00100308 -4.37373e-06 0)
(0.00100602 -2.54881e-06 0)
(0.0010091 7.51549e-07 0)
(0.00100914 4.27029e-06 0)
(0.00100551 4.72078e-06 0)
(0.00100074 2.78163e-06 0)
(0.000998154 7.32837e-07 0)
(0.000998277 -2.77065e-07 0)
(0.000999801 -2.85394e-07 0)
(0.00100088 -7.0036e-09 0)
(0.00100134 2.13225e-07 0)
(0.00100086 1.02839e-07 0)
(0.000999995 -4.82934e-08 0)
(0.000999916 -2.03166e-07 0)
(0.000999758 -3.8761e-07 0)
(0.000999532 -7.37542e-07 0)
(0.000999287 -1.34072e-06 0)
(0.000999211 -2.48126e-06 0)
(0.000999708 -4.68592e-06 0)
(0.0010014 -8.06835e-06 0)
(0.00100492 -1.32869e-05 0)
(0.00100958 -1.49132e-05 0)
(0.0010119 3.83921e-06 0)
(0.00100894 1.87313e-05 0)
(0.00100222 1.57815e-05 0)
(0.00099757 5.73959e-06 0)
(0.00099689 -3.1891e-07 0)
(0.000998464 -1.26572e-06 0)
(0.00100028 -9.40738e-08 0)
(0.00100101 6.36531e-07 0)
(0.00100108 6.53143e-07 0)
(0.00100055 2.44492e-07 0)
(0.000999803 -1.93856e-08 0)
(0.00100017 -6.6659e-08 0)
(0.000999217 -1.5239e-07 0)
(0.000999905 -2.50456e-07 0)
(0.000997521 -5.94023e-07 0)
(0.000998843 -1.1319e-06 0)
(0.000993348 -2.88287e-06 0)
(0.000997532 -5.59236e-06 0)
(0.000991668 -1.1543e-05 0)
(0.000915832 -1.27086e-05 0)
(0.000951471 2.7471e-07 0)
(0.00101022 1.46382e-05 0)
(0.000990952 1.30824e-05 0)
(0.000983979 5.13817e-06 0)
(0.000989591 1.91196e-07 0)
(0.000996286 -7.83576e-07 0)
(0.000999241 -1.11984e-07 0)
(0.000999417 2.48734e-07 0)
(0.000998654 1.75044e-07 0)
(0.00099851 -1.83835e-07 0)
(0.000999803 1.27485e-08 0)
(0.00100017 4.51737e-08 0)
(0.000999217 1.16696e-07 0)
(0.000999904 1.99304e-07 0)
(0.000997518 5.28432e-07 0)
(0.000998838 1.04994e-06 0)
(0.00099334 2.78547e-06 0)
(0.00099752 5.47393e-06 0)
(0.000991651 1.13965e-05 0)
(0.000915809 1.25493e-05 0)
(0.00095143 -4.71314e-07 0)
(0.0010102 -1.49104e-05 0)
(0.000990947 -1.34092e-05 0)
(0.00098397 -5.53699e-06 0)
(0.000989573 -6.49536e-07 0)
(0.00099625 2.47061e-07 0)
(0.0009992 -4.73629e-07 0)
(0.000999372 -1.00354e-06 0)
(0.000998639 -9.88635e-07 0)
(0.00099846 -8.87621e-07 0)
(0.000999994 4.1641e-08 0)
(0.000999915 1.8244e-07 0)
(0.000999757 3.52904e-07 0)
(0.000999531 6.87754e-07 0)
(0.000999285 1.27642e-06 0)
(0.000999211 2.39935e-06 0)
(0.000999703 4.58567e-06 0)
(0.00100139 7.94184e-06 0)
(0.0010049 1.31345e-05 0)
(0.00100958 1.47207e-05 0)
(0.00101188 -4.06585e-06 0)
(0.0010089 -1.90039e-05 0)
(0.00100214 -1.60956e-05 0)
(0.000997482 -6.12139e-06 0)
(0.000996821 -8.26489e-08 0)
(0.000998407 7.75279e-07 0)
(0.00100017 -4.29229e-07 0)
(0.00100085 -1.30785e-06 0)
(0.00100088 -1.38e-06 0)
(0.00100037 -1.24948e-06 0)
(0.000999995 8.47954e-08 0)
(0.000999968 2.68146e-07 0)
(0.000999907 5.44669e-07 0)
(0.000999872 9.1149e-07 0)
(0.00099987 1.51396e-06 0)
(0.00100008 2.2588e-06 0)
(0.00100048 3.28917e-06 0)
(0.00100149 3.98842e-06 0)
(0.00100303 4.21399e-06 0)
(0.00100594 2.36724e-06 0)
(0.00100902 -9.79249e-07 0)
(0.00100906 -4.53815e-06 0)
(0.00100543 -5.0188e-06 0)
(0.00100067 -3.12734e-06 0)
(0.000998062 -1.12962e-06 0)
(0.000998138 -2.51909e-07 0)
(0.000999626 -3.25854e-07 0)
(0.00100064 -7.45536e-07 0)
(0.00100107 -9.67964e-07 0)
(0.00100056 -1.07222e-06 0)
(0.001 9.50979e-08 0)
(0.001 3.13625e-07 0)
(0.00100002 5.71766e-07 0)
(0.00100007 9.19127e-07 0)
(0.0010002 1.33372e-06 0)
(0.00100046 1.8679e-06 0)
(0.00100097 2.39429e-06 0)
(0.00100186 2.97195e-06 0)
(0.00100318 3.11098e-06 0)
(0.00100469 2.73443e-06 0)
(0.00100568 5.10579e-07 0)
(0.00100528 -2.75468e-06 0)
(0.00100339 -5.07759e-06 0)
(0.00100097 -5.07034e-06 0)
(0.000999412 -3.449e-06 0)
(0.000999124 -1.79489e-06 0)
(0.000999748 -1.02405e-06 0)
(0.00100026 -1.06324e-06 0)
(0.00100062 -1.30749e-06 0)
(0.00100024 -1.51345e-06 0)
(0.001 9.66132e-08 0)
(0.00100003 3.00712e-07 0)
(0.00100008 5.35658e-07 0)
(0.00100019 8.07194e-07 0)
(0.00100036 1.12106e-06 0)
(0.00100066 1.45599e-06 0)
(0.00100112 1.77419e-06 0)
(0.00100174 1.9485e-06 0)
(0.00100248 1.78161e-06 0)
(0.00100317 1.0348e-06 0)
(0.00100366 -2.81076e-07 0)
(0.00100364 -1.78443e-06 0)
(0.00100292 -2.71387e-06 0)
(0.00100171 -2.63358e-06 0)
(0.00100058 -1.77943e-06 0)
(0.000999908 -8.95967e-07 0)
(0.000999863 -4.29408e-07 0)
(0.000999988 -4.51483e-07 0)
(0.00100022 -6.16562e-07 0)
(0.00100001 -8.46403e-07 0)
(0.001 8.50421e-08 0)
(0.00100004 2.62544e-07 0)
(0.00100011 4.54371e-07 0)
(0.00100024 6.62884e-07 0)
(0.00100043 8.76997e-07 0)
(0.0010007 1.08073e-06 0)
(0.00100106 1.2263e-06 0)
(0.0010015 1.25154e-06 0)
(0.001002 1.07387e-06 0)
(0.00100248 6.56437e-07 0)
(0.0010028 1.53053e-08 0)
(0.00100275 -7.75346e-07 0)
(0.00100228 -1.45482e-06 0)
(0.00100146 -1.77685e-06 0)
(0.00100063 -1.6683e-06 0)
(0.00100001 -1.34791e-06 0)
(0.0009998 -1.03099e-06 0)
(0.000999772 -9.40359e-07 0)
(0.000999891 -9.4559e-07 0)
(0.000999774 -1.10643e-06 0)
(0.001 6.81932e-08 0)
(0.00100004 2.08478e-07 0)
(0.00100012 3.54443e-07 0)
(0.00100025 5.02818e-07 0)
(0.00100043 6.43544e-07 0)
(0.00100066 7.62268e-07 0)
(0.00100096 8.33962e-07 0)
(0.00100129 8.2502e-07 0)
(0.00100163 6.92642e-07 0)
(0.00100191 4.07403e-07 0)
(0.00100206 -4.77652e-08 0)
(0.001002 -5.79819e-07 0)
(0.00100171 -1.03949e-06 0)
(0.0010012 -1.28287e-06 0)
(0.00100065 -1.22869e-06 0)
(0.00100017 -9.93271e-07 0)
(0.000999922 -7.03408e-07 0)
(0.000999747 -5.60273e-07 0)
(0.000999759 -4.87896e-07 0)
(0.000999567 -5.96688e-07 0)
(0.001 4.91076e-08 0)
(0.00100004 1.49058e-07 0)
(0.00100012 2.47659e-07 0)
(0.00100025 3.40455e-07 0)
(0.00100041 4.21431e-07 0)
(0.00100062 4.80388e-07 0)
(0.00100086 5.05287e-07 0)
(0.00100112 4.72343e-07 0)
(0.00100137 3.62945e-07 0)
(0.00100157 1.57565e-07 0)
(0.00100167 -1.17055e-07 0)
(0.00100161 -4.23531e-07 0)
(0.0010014 -6.8392e-07 0)
(0.00100104 -8.42606e-07 0)
(0.00100064 -8.48599e-07 0)
(0.00100023 -7.69516e-07 0)
(0.000999958 -6.39331e-07 0)
(0.000999696 -6.00055e-07 0)
(0.000999634 -5.62417e-07 0)
(0.000999394 -6.83568e-07 0)
(0.001 3.33371e-08 0)
(0.00100004 1.04174e-07 0)
(0.00100011 1.75349e-07 0)
(0.00100023 2.43013e-07 0)
(0.00100038 3.02198e-07 0)
(0.00100056 3.47801e-07 0)
(0.00100077 3.72899e-07 0)
(0.00100097 3.67823e-07 0)
(0.00100116 3.20643e-07 0)
(0.0010013 2.25092e-07 0)
(0.00100137 8.59165e-08 0)
(0.00100132 -7.1859e-08 0)
(0.00100115 -2.07459e-07 0)
(0.00100087 -2.97209e-07 0)
(0.00100054 -3.10913e-07 0)
(0.00100017 -2.80806e-07 0)
(0.000999908 -2.03976e-07 0)
(0.00099962 -1.71555e-07 0)
(0.000999523 -1.19542e-07 0)
(0.000999256 -1.97638e-07 0)
(0.001 -4.64053e-09 0)
(0.00100004 -1.01718e-08 0)
(0.00100012 -1.27336e-08 0)
(0.00100024 -1.4403e-08 0)
(0.00100038 -1.71278e-08 0)
(0.00100056 -2.35179e-08 0)
(0.00100075 -3.4643e-08 0)
(0.00100094 -5.39425e-08 0)
(0.00100112 -8.17917e-08 0)
(0.00100123 -1.22093e-07 0)
(0.00100128 -1.70247e-07 0)
(0.00100122 -2.32044e-07 0)
(0.00100107 -2.90974e-07 0)
(0.00100081 -3.41087e-07 0)
(0.00100054 -3.59031e-07 0)
(0.00100019 -3.67572e-07 0)
(0.000999952 -3.429e-07 0)
(0.000999616 -3.53974e-07 0)
(0.000999528 -3.28308e-07 0)
(0.000999138 -4.10342e-07 0)
)
;

boundaryField
{
    sides
    {
        type            slip;
    }
    inlet
    {
        type            fixedValue;
        value           uniform (0.001 0 0);
    }
    outlet
    {
        type            zeroGradient;
    }
    frontAndBack
    {
        type            empty;
    }
}


// ************************************************************************* //
