/*--------------------------------*- C++ -*----------------------------------*\
  =========                 |
  \\      /  F ield         | OpenFOAM: The Open Source CFD Toolbox
   \\    /   O peration     | Website:  https://openfoam.org
    \\  /    A nd           | Version:  9
     \\/     M anipulation  |
\*---------------------------------------------------------------------------*/
FoamFile
{
    format      ascii;
    class       surfaceScalarField;
    location    "61";
    object      phi_0;
}
// * * * * * * * * * * * * * * * * * * * * * * * * * * * * * * * * * * * * * //

dimensions      [0 4 -1 0 0 0 0];

internalField   nonuniform List<scalar> 
760
(
5.00009e-06
-9.27193e-11
5.00039e-06
-3.07453e-10
5.00091e-06
-5.16002e-10
5.00162e-06
-7.09419e-10
5.0025e-06
-8.75863e-10
5.0035e-06
-9.99479e-10
5.00456e-06
-1.05448e-09
5.00558e-06
-1.01254e-09
5.00641e-06
-8.35532e-10
5.00694e-06
-5.29075e-10
5.00707e-06
-1.24963e-10
5.00667e-06
3.98945e-10
5.00581e-06
8.56184e-10
5.00472e-06
1.10072e-09
5.00355e-06
1.16491e-09
5.0026e-06
9.46307e-10
5.00189e-06
7.16387e-10
5.00164e-06
2.50454e-10
5.00154e-06
1.06286e-10
-3.93245e-10
5.00012e-06
-2.11939e-10
5.00044e-06
-6.34697e-10
5.00098e-06
-1.05245e-09
5.00172e-06
-1.45335e-09
5.00266e-06
-1.8089e-09
5.00375e-06
-2.08584e-09
5.00493e-06
-2.23576e-09
5.00611e-06
-2.18989e-09
5.00714e-06
-1.85974e-09
5.00779e-06
-1.17483e-09
5.00776e-06
-9.51531e-11
5.00727e-06
8.95761e-10
5.00628e-06
1.84824e-09
5.00498e-06
2.41055e-09
5.00371e-06
2.43308e-09
5.00281e-06
1.84612e-09
5.00228e-06
1.24392e-09
5.00194e-06
5.86306e-10
5.00168e-06
3.67564e-10
-1.52362e-10
5.00011e-06
-3.18238e-10
5.00043e-06
-9.53341e-10
5.00096e-06
-1.5878e-09
5.00172e-06
-2.22074e-09
5.00273e-06
-2.80916e-09
5.00395e-06
-3.30344e-09
5.00532e-06
-3.61048e-09
5.00673e-06
-3.58955e-09
5.00794e-06
-3.06733e-09
5.00874e-06
-1.9622e-09
5.00895e-06
-3.01753e-10
5.00827e-06
1.58317e-09
5.00689e-06
3.23912e-09
5.00517e-06
4.12994e-09
5.00353e-06
4.07793e-09
5.00234e-06
3.04199e-09
5.0017e-06
1.88968e-09
5.0015e-06
7.78687e-10
5.00147e-06
3.9389e-10
-2.26221e-10
5.0001e-06
-4.16274e-10
5.00041e-06
-1.26216e-09
5.00095e-06
-2.12641e-09
5.00175e-06
-3.02686e-09
5.00286e-06
-3.91553e-09
5.00429e-06
-4.73511e-09
5.00602e-06
-5.33602e-09
5.00795e-06
-5.52514e-09
5.00985e-06
-4.94721e-09
5.01108e-06
-3.19434e-09
5.01121e-06
-4.09215e-10
5.01001e-06
2.79114e-09
5.00766e-06
5.5876e-09
5.00516e-06
6.6423e-09
5.00349e-06
5.75167e-09
5.00273e-06
3.81743e-09
5.00251e-06
2.11308e-09
5.00234e-06
9.46601e-10
5.00202e-06
7.07727e-10
3.34243e-10
5.00008e-06
-4.96946e-10
5.00034e-06
-1.52053e-09
5.00084e-06
-2.62075e-09
5.00164e-06
-3.8294e-09
5.00286e-06
-5.13855e-09
5.00458e-06
-6.45329e-09
5.0068e-06
-7.56106e-09
5.00943e-06
-8.13745e-09
5.0124e-06
-7.91112e-09
5.0148e-06
-5.59025e-09
5.01483e-06
-4.6672e-10
5.01286e-06
4.77796e-09
5.00868e-06
9.75642e-09
5.0046e-06
1.07133e-08
5.00225e-06
8.11175e-09
5.00177e-06
4.31745e-09
5.00208e-06
1.81295e-09
5.00229e-06
7.39028e-10
5.00204e-06
9.50459e-10
6.22254e-10
5.00004e-06
-5.38069e-10
5.0002e-06
-1.67584e-09
5.00054e-06
-2.95967e-09
5.00122e-06
-4.50102e-09
5.00241e-06
-6.33964e-09
5.00452e-06
-8.56952e-09
5.0076e-06
-1.06392e-08
5.01169e-06
-1.22038e-08
5.01553e-06
-1.17802e-08
5.01902e-06
-9.06135e-09
5.02022e-06
-1.6843e-09
5.01603e-06
8.94781e-09
5.00953e-06
1.62718e-08
5.00422e-06
1.6002e-08
5.00218e-06
1.01498e-08
5.00251e-06
3.99576e-09
5.0033e-06
1.03993e-09
5.00343e-06
6.13892e-10
5.00283e-06
1.54948e-09
1.42023e-09
4.99998e-06
-5.18645e-10
4.99994e-06
-1.63294e-09
5.00004e-06
-3.04963e-09
5.00036e-06
-4.82903e-09
5.00122e-06
-7.20219e-09
5.00292e-06
-1.02727e-08
5.00682e-06
-1.45214e-08
5.01393e-06
-1.93356e-08
5.02377e-06
-2.16011e-08
5.03091e-06
-1.62717e-08
5.02876e-06
5.61745e-10
5.01676e-06
2.09321e-08
5.0042e-06
2.88126e-08
4.99875e-06
2.14538e-08
5.00059e-06
8.3034e-09
5.00286e-06
1.72261e-09
5.00374e-06
1.71035e-10
5.00369e-06
6.6814e-10
5.00308e-06
2.16918e-09
1.68153e-09
4.99987e-06
-3.85555e-10
4.99956e-06
-1.31876e-09
4.99913e-06
-2.61984e-09
4.99886e-06
-4.55702e-09
4.99933e-06
-7.67771e-09
5.00036e-06
-1.13045e-08
5.00366e-06
-1.78158e-08
5.00984e-06
-2.55118e-08
5.02488e-06
-3.66812e-08
5.05613e-06
-4.74702e-08
5.05005e-06
6.83532e-09
5.02321e-06
4.78551e-08
4.9982e-06
5.38169e-08
4.99351e-06
2.6129e-08
4.99948e-06
2.32683e-09
5.00408e-06
-2.88504e-09
5.00493e-06
-6.65951e-10
5.00375e-06
1.84982e-09
5.00354e-06
2.38822e-09
9.72207e-10
4.99977e-06
-1.55474e-10
4.99916e-06
-7.04319e-10
4.99792e-06
-1.38497e-09
4.99611e-06
-2.74279e-09
4.99402e-06
-5.5878e-09
4.99375e-06
-1.103e-08
4.99946e-06
-2.35285e-08
5.01714e-06
-4.31953e-08
5.05571e-06
-7.52267e-08
5.06682e-06
-5.86402e-08
5.04974e-06
2.37409e-08
4.99649e-06
1.00994e-07
4.98932e-06
6.09888e-08
4.99593e-06
1.95237e-08
5.00021e-06
-1.955e-09
5.00295e-06
-5.62458e-09
5.00254e-06
-2.51863e-10
5.00187e-06
2.5254e-09
5.00258e-06
1.68376e-09
7.58962e-11
4.99986e-06
-1.60966e-11
4.99921e-06
-5.30872e-11
4.99792e-06
-9.02637e-11
4.9953e-06
-1.33517e-10
4.9899e-06
-1.75389e-10
4.9791e-06
-2.24838e-10
4.95583e-06
-2.68863e-10
4.91296e-06
-3.25147e-10
4.83813e-06
-4.14325e-10
4.78001e-06
-4.58824e-10
4.80426e-06
-6.20521e-10
4.90604e-06
-7.41723e-10
4.96781e-06
-7.55571e-10
4.98825e-06
-9.16057e-10
4.98748e-06
-1.17212e-09
4.98328e-06
-1.43239e-09
4.98458e-06
-1.5622e-09
4.98893e-06
-1.82917e-09
4.9925e-06
-1.89313e-09
-2.57976e-09
4.99986e-06
1.22746e-10
4.99921e-06
5.9709e-10
4.99791e-06
1.2092e-09
4.99529e-06
2.48243e-09
4.98988e-06
5.24846e-09
4.97907e-06
1.0594e-08
4.95579e-06
2.30006e-08
4.9129e-06
4.25434e-08
4.83803e-06
7.44607e-08
4.77976e-06
5.78662e-08
4.80424e-06
-2.51287e-08
4.906e-06
-1.02457e-07
4.96779e-06
-6.25181e-08
4.9881e-06
-2.11998e-08
4.98739e-06
-4.51564e-10
4.98296e-06
2.99321e-09
4.98445e-06
-3.06287e-09
4.98891e-06
-6.29749e-09
4.99238e-06
-5.36009e-09
-4.97809e-09
4.99977e-06
3.51195e-10
4.99915e-06
1.21551e-09
4.99792e-06
2.44365e-09
4.9961e-06
4.30185e-09
4.99402e-06
7.33546e-09
4.99374e-06
1.08785e-08
4.99944e-06
1.72984e-08
5.01708e-06
2.48818e-08
5.05562e-06
3.59401e-08
5.06702e-06
4.6392e-08
5.04952e-06
-6.81172e-09
4.99612e-06
-4.90997e-08
4.98888e-06
-5.52409e-08
4.99573e-06
-2.80271e-08
5.00013e-06
-4.85854e-09
5.00233e-06
7.85621e-10
5.00167e-06
-2.41063e-09
5.00093e-06
-5.5551e-09
5.00171e-06
-6.14175e-09
-5.94437e-09
4.99987e-06
4.84625e-10
4.99955e-06
1.5332e-09
4.99911e-06
2.88276e-09
4.99883e-06
4.588e-09
4.99927e-06
6.89061e-09
5.00027e-06
9.88294e-09
5.00349e-06
1.40869e-08
5.00962e-06
1.87566e-08
5.02461e-06
2.0911e-08
5.05564e-06
1.54395e-08
5.04972e-06
-1.74565e-09
5.02284e-06
-2.21627e-08
4.99789e-06
-3.03026e-08
4.99317e-06
-2.33328e-08
4.99865e-06
-1.03451e-08
5.00346e-06
-4.028e-09
5.00375e-06
-2.68923e-09
5.00238e-06
-4.18373e-09
5.00219e-06
-5.94717e-09
-6.52654e-09
4.99998e-06
5.07604e-10
4.99993e-06
1.58405e-09
5.00001e-06
2.80855e-09
5.00031e-06
4.28679e-09
5.00114e-06
6.0634e-09
5.00279e-06
8.21852e-09
5.00668e-06
1.02033e-08
5.01379e-06
1.16585e-08
5.0236e-06
1.11203e-08
5.03069e-06
8.26208e-09
5.02843e-06
6.3703e-10
5.01627e-06
-1.00483e-08
5.00351e-06
-1.75784e-08
4.99778e-06
-1.76195e-08
4.99942e-06
-1.19886e-08
5.00162e-06
-6.22338e-09
5.00243e-06
-3.48084e-09
5.00216e-06
-3.90864e-09
5.00122e-06
-5.00731e-09
-5.96651e-09
5.00004e-06
4.71847e-10
5.00018e-06
1.4415e-09
5.00051e-06
2.48848e-09
5.00116e-06
3.64073e-09
5.00232e-06
4.89123e-09
5.00439e-06
6.13997e-09
5.00742e-06
7.18187e-09
5.0114e-06
7.68572e-09
5.01515e-06
7.3908e-09
5.01854e-06
4.87542e-09
5.01957e-06
-4.00336e-10
5.01524e-06
-5.73288e-09
5.00855e-06
-1.08955e-08
5.00312e-06
-1.21888e-08
5.00089e-06
-9.75326e-09
5.00103e-06
-6.3496e-09
5.00158e-06
-4.02078e-09
5.00135e-06
-3.66758e-09
5.00038e-06
-4.04347e-09
-4.96628e-09
5.00008e-06
3.94828e-10
5.00032e-06
1.19771e-09
5.0008e-06
2.01824e-09
5.00157e-06
2.86819e-09
5.00276e-06
3.70892e-09
5.00441e-06
4.47897e-09
5.00656e-06
5.03236e-09
5.0091e-06
5.15185e-09
5.01204e-06
4.46325e-09
5.01441e-06
2.51622e-09
5.01416e-06
-1.51734e-10
5.0121e-06
-3.66041e-09
5.00777e-06
-6.55614e-09
5.0035e-06
-7.91681e-09
5.00095e-06
-7.18608e-09
5.00016e-06
-5.54757e-09
5.00014e-06
-3.99227e-09
4.9999e-06
-3.43708e-09
4.9992e-06
-3.3412e-09
-4.16315e-09
5.0001e-06
2.95475e-10
5.00039e-06
9.0107e-10
5.00091e-06
1.50799e-09
5.00168e-06
2.10165e-09
5.00274e-06
2.64891e-09
5.00413e-06
3.09686e-09
5.00579e-06
3.36479e-09
5.00763e-06
3.30748e-09
5.00934e-06
2.76448e-09
5.01028e-06
1.58166e-09
5.01045e-06
-3.05553e-10
5.00905e-06
-2.24657e-09
5.00652e-06
-4.02024e-09
5.00369e-06
-5.08174e-09
5.00157e-06
-5.05177e-09
5.00038e-06
-4.34742e-09
4.99974e-06
-3.3512e-09
4.99919e-06
-2.90324e-09
4.99848e-06
-2.6274e-09
-3.20887e-09
5.0001e-06
1.92311e-10
5.00041e-06
5.92712e-10
5.00092e-06
9.91771e-10
5.00166e-06
1.36729e-09
5.00262e-06
1.6954e-09
5.00378e-06
1.94e-09
5.0051e-06
2.05303e-09
5.00645e-06
1.95089e-09
5.00766e-06
1.56185e-09
5.0084e-06
8.36152e-10
5.00823e-06
-1.29537e-10
5.00735e-06
-1.36545e-09
5.00572e-06
-2.38163e-09
5.00371e-06
-3.06269e-09
5.00182e-06
-3.16114e-09
5.00037e-06
-2.892e-09
4.99935e-06
-2.3322e-09
4.99855e-06
-2.10854e-09
4.99775e-06
-1.83553e-09
-2.27366e-09
5.00008e-06
1.09987e-10
5.00037e-06
3.02982e-10
5.00086e-06
4.97703e-10
5.00155e-06
6.80343e-10
5.00241e-06
8.34201e-10
5.00342e-06
9.43478e-10
5.00449e-06
9.87076e-10
5.00551e-06
9.30539e-10
5.00634e-06
7.36752e-10
5.00681e-06
3.63571e-10
5.00683e-06
-1.42398e-10
5.00609e-06
-6.31933e-10
5.00481e-06
-1.09394e-09
5.00318e-06
-1.42737e-09
5.00151e-06
-1.4958e-09
5.00005e-06
-1.43347e-09
4.99891e-06
-1.19023e-09
4.99795e-06
-1.14312e-09
4.99709e-06
-9.78762e-10
-1.42278e-09
5.00011e-06
5.00042e-06
5.00091e-06
5.00158e-06
5.00242e-06
5.00337e-06
5.00437e-06
5.0053e-06
5.00604e-06
5.00641e-06
5.00627e-06
5.00564e-06
5.00455e-06
5.00313e-06
5.00164e-06
5.0002e-06
4.99901e-06
4.99788e-06
4.9969e-06
)
;

boundaryField
{
    sides
    {
        type            calculated;
        value           uniform 0;
    }
    inlet
    {
        type            calculated;
        value           nonuniform List<scalar> 
20
(
-5e-06
-5e-06
-5e-06
-5e-06
-5e-06
-5e-06
-5e-06
-5e-06
-5e-06
-5e-06
-5e-06
-5e-06
-5e-06
-5e-06
-5e-06
-5e-06
-5e-06
-5e-06
-5e-06
-5e-06
)
;
    }
    outlet
    {
        type            calculated;
        value           nonuniform List<scalar> 
20
(
5.00193e-06
5.00144e-06
5.00155e-06
5.00146e-06
5.00175e-06
5.00204e-06
5.00282e-06
5.00425e-06
5.00347e-06
4.99516e-06
4.99477e-06
5.00268e-06
5.00278e-06
5.00066e-06
4.99938e-06
4.99839e-06
4.99752e-06
4.99682e-06
4.99624e-06
4.99548e-06
)
;
    }
    frontAndBack
    {
        type            empty;
        value           nonuniform List<scalar> 0();
    }
}


// ************************************************************************* //
