/*--------------------------------*- C++ -*----------------------------------*\
  =========                 |
  \\      /  F ield         | OpenFOAM: The Open Source CFD Toolbox
   \\    /   O peration     | Website:  https://openfoam.org
    \\  /    A nd           | Version:  9
     \\/     M anipulation  |
\*---------------------------------------------------------------------------*/
FoamFile
{
    format      ascii;
    class       volScalarField;
    location    "1";
    object      ddt0(h);
}
// * * * * * * * * * * * * * * * * * * * * * * * * * * * * * * * * * * * * * //

dimensions      [0 1 -1 0 0 0 0];

internalField   nonuniform List<scalar> 
400
(
3.43661e-07
3.23604e-07
3.17834e-07
3.20843e-07
3.58341e-07
4.95939e-07
9.10033e-07
1.74584e-06
2.69088e-06
3.13065e-06
2.57922e-06
1.14324e-06
-4.42286e-07
-1.49322e-06
-1.76822e-06
-1.46882e-06
-9.70688e-07
-6.69492e-07
-4.03786e-07
-1.23369e-07
3.08253e-07
3.32207e-07
3.38443e-07
3.57054e-07
4.41375e-07
8.2097e-07
1.97933e-06
4.06073e-06
5.84358e-06
6.0663e-06
4.41002e-06
1.55803e-06
-1.10146e-06
-3.1298e-06
-3.93301e-06
-3.39714e-06
-2.50601e-06
-1.54993e-06
-8.27588e-07
-2.71894e-07
3.02917e-07
3.25471e-07
3.47773e-07
3.84585e-07
6.8909e-07
2.19357e-06
6.0109e-06
1.07889e-05
1.32916e-05
1.15461e-05
7.41565e-06
2.29962e-06
-3.86409e-06
-8.31315e-06
-9.31827e-06
-8.01637e-06
-5.70736e-06
-3.55858e-06
-1.9216e-06
-6.34999e-07
2.24224e-07
2.54983e-07
2.48291e-07
3.41304e-07
1.53916e-06
6.48135e-06
1.60851e-05
2.46665e-05
2.4568e-05
1.57304e-05
7.67156e-06
1.6525e-06
-6.08272e-06
-1.52075e-05
-1.92859e-05
-1.74085e-05
-1.25304e-05
-8.04014e-06
-4.5348e-06
-1.45435e-06
1.13007e-07
8.28395e-08
-3.30576e-08
4.11425e-07
4.63205e-06
1.81183e-05
3.77044e-05
4.34441e-05
2.68152e-05
2.17324e-06
-6.18901e-06
1.41269e-06
1.70741e-06
-1.26328e-05
-2.67468e-05
-2.98082e-05
-2.42146e-05
-1.59032e-05
-8.84967e-06
-2.95599e-06
8.51455e-09
-1.89393e-07
-4.80875e-07
1.43619e-06
1.38583e-05
4.37732e-05
6.87366e-05
4.07121e-05
-1.73264e-05
-4.23168e-05
-3.63423e-05
2.13019e-06
3.8451e-05
2.47121e-05
-1.19281e-05
-3.42284e-05
-3.60908e-05
-2.68311e-05
-1.58165e-05
-5.33597e-06
-1.26016e-07
-6.75171e-07
-1.01232e-06
5.41742e-06
3.52305e-05
8.46157e-05
7.48781e-05
-4.10863e-05
-0.000117827
-6.57823e-05
-5.38743e-05
-1.03669e-05
8.46325e-05
0.000108656
4.88176e-05
-1.23463e-05
-3.7843e-05
-3.5911e-05
-2.35104e-05
-8.23086e-06
-3.68302e-07
-1.50164e-06
-1.08703e-06
1.53706e-05
7.13873e-05
0.00011551
-7.78674e-06
-0.000185179
-0.000144394
-2.07665e-07
-1.59294e-05
-7.87636e-05
3.62087e-05
0.000163378
0.000134099
4.06052e-05
-2.11785e-05
-3.74293e-05
-2.90556e-05
-1.08116e-05
-7.50848e-07
-2.60464e-06
2.51456e-07
3.25055e-05
0.000108299
9.1215e-05
-0.000161862
-0.000235152
-2.25081e-05
8.54805e-05
7.31338e-05
-0.000135443
-0.000152739
7.99194e-05
0.000171741
9.57245e-05
8.56824e-06
-2.94084e-05
-3.02109e-05
-1.19901e-05
-1.09979e-06
-3.63035e-06
1.53843e-06
5.04191e-05
0.000130279
2.50107e-05
-0.000264592
-0.000137632
7.28871e-05
4.35938e-05
9.97879e-05
5.31978e-06
-0.000180259
8.22125e-06
0.000146406
0.000115265
3.13493e-05
-1.93757e-05
-2.76751e-05
-1.22474e-05
-1.09948e-06
-3.61673e-06
1.65265e-06
4.99556e-05
0.000130352
2.46915e-05
-0.000265086
-0.000137409
7.30065e-05
4.50237e-05
9.97662e-05
5.44252e-06
-0.000180204
7.56848e-06
0.000146133
0.000115322
3.12901e-05
-1.92339e-05
-2.79341e-05
-1.21716e-05
-7.54358e-07
-2.67161e-06
-8.27628e-08
3.26191e-05
0.000108266
9.22527e-05
-0.000161237
-0.000234908
-2.27144e-05
8.50866e-05
7.27022e-05
-0.000135381
-0.000152616
8.08837e-05
0.000172239
9.58112e-05
8.68265e-06
-2.94532e-05
-2.99907e-05
-1.20962e-05
-3.81611e-07
-1.55643e-06
-1.2526e-06
1.52093e-05
7.02941e-05
0.000116117
-7.55762e-06
-0.00018515
-0.000144
7.76564e-08
-1.72e-05
-7.88442e-05
3.63374e-05
0.000163574
0.000134203
4.06444e-05
-2.11468e-05
-3.74294e-05
-2.90584e-05
-1.08453e-05
-1.65415e-07
-7.52881e-07
-1.14328e-06
5.22235e-06
3.44846e-05
8.45991e-05
7.46024e-05
-4.13813e-05
-0.000117632
-6.61409e-05
-5.17188e-05
-1.0178e-05
8.47104e-05
0.00010861
4.86345e-05
-1.25218e-05
-3.80587e-05
-3.60729e-05
-2.36542e-05
-8.31721e-06
-9.9802e-08
-3.59379e-07
-7.12564e-07
1.20547e-06
1.38419e-05
4.21455e-05
6.85168e-05
4.0507e-05
-1.78051e-05
-4.32801e-05
-3.65428e-05
1.52033e-06
3.79109e-05
2.43283e-05
-1.24306e-05
-3.4721e-05
-3.63665e-05
-2.71638e-05
-1.61292e-05
-5.45701e-06
-1.35539e-07
-2.60431e-07
-4.72947e-07
-5.9432e-08
4.31854e-06
1.6867e-05
3.72526e-05
4.29076e-05
2.62775e-05
1.22726e-06
-7.40836e-06
2.21077e-07
1.06277e-06
-1.3415e-05
-2.73167e-05
-3.03829e-05
-2.49068e-05
-1.67041e-05
-9.42078e-06
-3.12426e-06
-2.27866e-07
-3.03633e-07
-4.24921e-07
-4.16761e-07
8.53939e-07
6.37159e-06
1.40884e-05
2.37621e-05
2.36949e-05
1.52362e-05
6.45082e-06
9.71779e-07
-6.96638e-06
-1.59482e-05
-2.01991e-05
-1.8577e-05
-1.38624e-05
-8.86482e-06
-4.88216e-06
-1.60484e-06
-3.02692e-07
-3.36314e-07
-3.99076e-07
-4.57845e-07
-2.09057e-07
1.43973e-06
4.90873e-06
8.85072e-06
1.20916e-05
1.06737e-05
6.44423e-06
9.9336e-07
-5.00612e-06
-9.54043e-06
-1.07991e-05
-9.32768e-06
-6.73488e-06
-4.22178e-06
-2.27899e-06
-7.39609e-07
-3.07632e-07
-3.33988e-07
-3.51451e-07
-3.88428e-07
-3.78649e-07
2.9001e-08
1.64178e-06
3.34566e-06
4.50561e-06
4.59691e-06
3.25539e-06
7.43763e-07
-2.41288e-06
-4.48052e-06
-4.91467e-06
-4.18091e-06
-3.00607e-06
-1.86088e-06
-9.81149e-07
-3.18188e-07
-3.43277e-07
-3.23748e-07
-3.21419e-07
-3.32506e-07
-3.53765e-07
-2.77301e-07
1.80074e-07
1.10885e-06
2.00706e-06
2.41908e-06
1.92236e-06
3.6247e-07
-1.15764e-06
-2.19554e-06
-2.45597e-06
-2.1388e-06
-1.53719e-06
-8.98159e-07
-4.63245e-07
-1.66051e-07
)
;

boundaryField
{
    sides
    {
        type            calculated;
        value           nonuniform List<scalar> 
40
(
-3.43277e-07
-3.23748e-07
-3.21419e-07
-3.32506e-07
-3.53765e-07
-2.77301e-07
1.80074e-07
1.10885e-06
2.00706e-06
2.41908e-06
1.92236e-06
3.6247e-07
-1.15764e-06
-2.19554e-06
-2.45597e-06
-2.1388e-06
-1.53719e-06
-8.98159e-07
-4.63245e-07
-1.66051e-07
3.43661e-07
3.23604e-07
3.17834e-07
3.20843e-07
3.58341e-07
4.95939e-07
9.10033e-07
1.74584e-06
2.69088e-06
3.13065e-06
2.57922e-06
1.14324e-06
-4.42286e-07
-1.49322e-06
-1.76822e-06
-1.46882e-06
-9.70688e-07
-6.69492e-07
-4.03786e-07
-1.23369e-07
)
;
    }
    inlet
    {
        type            calculated;
        value           nonuniform List<scalar> 
20
(
3.43661e-07
3.08253e-07
3.02917e-07
2.24224e-07
1.13007e-07
8.51455e-09
-1.26016e-07
-3.68302e-07
-7.50848e-07
-1.09979e-06
-1.09948e-06
-7.54358e-07
-3.81611e-07
-1.65415e-07
-9.9802e-08
-1.35539e-07
-2.27866e-07
-3.02692e-07
-3.07632e-07
-3.43277e-07
)
;
    }
    outlet
    {
        type            calculated;
        value           uniform 0;
    }
    frontAndBack
    {
        type            empty;
    }
}


// ************************************************************************* //
