/*--------------------------------*- C++ -*----------------------------------*\
  =========                 |
  \\      /  F ield         | OpenFOAM: The Open Source CFD Toolbox
   \\    /   O peration     | Website:  https://openfoam.org
    \\  /    A nd           | Version:  9
     \\/     M anipulation  |
\*---------------------------------------------------------------------------*/
FoamFile
{
    format      ascii;
    class       volVectorField;
    location    "1";
    object      ddt0(hU);
}
// * * * * * * * * * * * * * * * * * * * * * * * * * * * * * * * * * * * * * //

dimensions      [0 2 -2 0 0 0 0];

internalField   nonuniform List<vector> 
400
(
(3.26633e-09 2.50166e-08 0)
(-2.50131e-08 6.58739e-09 0)
(-4.49696e-08 -2.34086e-08 0)
(-3.34068e-08 -3.0637e-08 0)
(-1.47583e-08 -2.85423e-08 0)
(-1.2624e-08 -4.01626e-08 0)
(-3.25155e-08 -1.02864e-07 0)
(-3.55444e-08 -2.53091e-07 0)
(4.41682e-08 -4.3375e-07 0)
(2.37601e-07 -5.18414e-07 0)
(4.57443e-07 -4.09306e-07 0)
(5.19383e-07 -1.24446e-07 0)
(3.38446e-07 1.73408e-07 0)
(3.67541e-08 3.59328e-07 0)
(-1.88613e-07 3.91568e-07 0)
(-2.54868e-07 3.163e-07 0)
(-1.88214e-07 2.06051e-07 0)
(-6.14691e-08 9.66775e-08 0)
(2.21933e-08 2.27098e-08 0)
(1.51449e-07 -5.46812e-08 0)
(2.26838e-09 4.44965e-08 0)
(-1.69025e-08 5.2711e-08 0)
(-2.57334e-08 3.50428e-08 0)
(-1.46881e-08 3.59949e-08 0)
(-1.2653e-08 3.31784e-08 0)
(-5.41e-08 -5.68291e-08 0)
(-1.37894e-07 -4.0121e-07 0)
(-1.35333e-07 -1.04789e-06 0)
(9.24707e-08 -1.67681e-06 0)
(5.53991e-07 -1.8474e-06 0)
(1.03454e-06 -1.35316e-06 0)
(1.14587e-06 -3.09354e-07 0)
(7.5822e-07 7.87143e-07 0)
(9.18052e-08 1.45017e-06 0)
(-4.48842e-07 1.53719e-06 0)
(-6.34811e-07 1.229e-06 0)
(-5.59528e-07 8.52079e-07 0)
(-3.43527e-07 4.94974e-07 0)
(-1.42495e-07 2.492e-07 0)
(1.11499e-08 2.89288e-08 0)
(3.59759e-09 4.92269e-08 0)
(-1.53024e-08 3.37367e-08 0)
(-1.44054e-08 4.45943e-09 0)
(-1.01138e-08 4.01157e-09 0)
(-7.0608e-08 -4.69729e-08 0)
(-2.74763e-07 -4.21511e-07 0)
(-5.1175e-07 -1.5078e-06 0)
(-4.1033e-07 -3.16925e-06 0)
(2.98135e-07 -4.34454e-06 0)
(1.39858e-06 -4.14775e-06 0)
(2.4801e-06 -2.81376e-06 0)
(2.78253e-06 -6.77087e-07 0)
(1.76299e-06 1.85722e-06 0)
(1.06873e-07 3.45385e-06 0)
(-1.16749e-06 3.60653e-06 0)
(-1.60024e-06 2.8612e-06 0)
(-1.3943e-06 1.90979e-06 0)
(-9.68664e-07 1.128e-06 0)
(-5.47695e-07 5.67543e-07 0)
(-2.3928e-07 1.05023e-07 0)
(4.24736e-09 4.84388e-08 0)
(-3.31197e-09 2.66892e-08 0)
(1.5725e-09 8.40583e-09 0)
(-4.40166e-08 7.86135e-09 0)
(-3.21488e-07 -2.28161e-07 0)
(-9.41858e-07 -1.42941e-06 0)
(-1.47446e-06 -4.22407e-06 0)
(-9.26812e-07 -7.45663e-06 0)
(9.70728e-07 -8.37648e-06 0)
(3.05089e-06 -6.21755e-06 0)
(4.83363e-06 -3.59302e-06 0)
(5.83195e-06 -7.75716e-07 0)
(4.41115e-06 3.17305e-06 0)
(6.42291e-07 6.44009e-06 0)
(-2.58395e-06 7.16376e-06 0)
(-3.74326e-06 5.91169e-06 0)
(-3.29984e-06 3.9911e-06 0)
(-2.34368e-06 2.34132e-06 0)
(-1.48729e-06 1.20873e-06 0)
(-8.22413e-07 3.16547e-07 0)
(5.0968e-09 3.44665e-08 0)
(1.15015e-08 9.74405e-09 0)
(2.88307e-09 1.38805e-08 0)
(-2.1698e-07 -2.79979e-08 0)
(-1.09842e-06 -8.471e-07 0)
(-2.66389e-06 -4.02348e-06 0)
(-3.38453e-06 -9.8246e-06 0)
(-1.34431e-06 -1.34363e-05 0)
(2.87173e-06 -1.03148e-05 0)
(5.27188e-06 -3.61719e-06 0)
(6.5546e-06 -1.20449e-06 0)
(9.4442e-06 -1.36602e-06 0)
(9.56584e-06 1.568e-06 0)
(3.69812e-06 7.28522e-06 0)
(-3.44262e-06 1.04089e-05 0)
(-6.97064e-06 9.71613e-06 0)
(-6.8293e-06 7.05426e-06 0)
(-4.99921e-06 4.25597e-06 0)
(-3.18646e-06 2.23427e-06 0)
(-1.87849e-06 6.52993e-07 0)
(1.09956e-08 2.41996e-08 0)
(3.99555e-08 1.58864e-08 0)
(-3.07654e-08 6.80617e-08 0)
(-7.60339e-07 -1.50286e-07 0)
(-3.05174e-06 -2.40239e-06 0)
(-6.17667e-06 -9.26406e-06 0)
(-5.70287e-06 -1.74896e-05 0)
(1.04638e-07 -1.45522e-05 0)
(6.63069e-06 -1.52836e-06 0)
(6.43328e-06 7.4659e-06 0)
(2.63331e-06 6.3455e-06 0)
(8.56363e-06 -2.94692e-06 0)
(1.7535e-05 -7.92615e-06 0)
(1.35654e-05 -7.39613e-07 0)
(6.10308e-07 8.17821e-06 0)
(-8.80298e-06 1.14466e-05 0)
(-1.11429e-05 9.83917e-06 0)
(-9.07207e-06 6.49474e-06 0)
(-6.09059e-06 3.5694e-06 0)
(-3.68205e-06 1.10632e-06 0)
(2.76091e-08 2.57182e-08 0)
(9.56826e-08 6.65273e-08 0)
(-1.77934e-07 1.7887e-07 0)
(-2.1318e-06 -5.35189e-07 0)
(-7.09229e-06 -5.44432e-06 0)
(-1.11473e-05 -1.64304e-05 0)
(-5.17613e-06 -2.01941e-05 0)
(6.16404e-06 -3.41401e-08 0)
(1.05422e-05 1.85354e-05 0)
(6.4079e-06 1.58303e-05 0)
(-8.66804e-06 1.12924e-05 0)
(-6.24012e-06 -2.17408e-06 0)
(1.99572e-05 -1.93228e-05 0)
(3.21138e-05 -1.71432e-05 0)
(1.643e-05 -2.79959e-06 0)
(-3.56347e-06 7.69275e-06 0)
(-1.31868e-05 1.00911e-05 0)
(-1.3327e-05 7.79762e-06 0)
(-9.84593e-06 4.63846e-06 0)
(-6.21739e-06 1.52007e-06 0)
(6.10732e-08 3.64917e-08 0)
(1.79549e-07 1.51026e-07 0)
(-5.99098e-07 2.86747e-07 0)
(-4.90033e-06 -1.34477e-06 0)
(-1.31298e-05 -9.29203e-06 0)
(-1.39969e-05 -2.02746e-05 0)
(2.75794e-06 -8.57625e-06 0)
(1.65411e-05 2.45376e-05 0)
(9.95734e-06 3.01493e-05 0)
(3.33998e-06 4.73469e-06 0)
(-1.30741e-05 7.6071e-06 0)
(-3.03392e-05 9.45007e-06 0)
(1.88588e-06 -1.5953e-05 0)
(4.40882e-05 -3.0594e-05 0)
(4.03357e-05 -1.93231e-05 0)
(1.16673e-05 -2.38039e-06 0)
(-9.5806e-06 5.99051e-06 0)
(-1.56742e-05 6.70051e-06 0)
(-1.34319e-05 4.59358e-06 0)
(-9.05248e-06 1.59839e-06 0)
(1.12055e-07 3.9418e-08 0)
(2.70595e-07 1.91095e-07 0)
(-1.43551e-06 3.49544e-07 0)
(-8.87735e-06 -1.86547e-06 0)
(-1.87423e-05 -1.08251e-05 0)
(-1.0278e-05 -1.61287e-05 0)
(1.59793e-05 9.91254e-06 0)
(2.61178e-05 3.14102e-05 0)
(4.99818e-07 2.05721e-05 0)
(-1.42465e-06 -6.10491e-06 0)
(9.13241e-06 -5.94231e-06 0)
(-4.22513e-05 1.4653e-05 0)
(-4.46605e-05 1.0023e-05 0)
(2.55663e-05 -2.04538e-05 0)
(5.72358e-05 -2.30988e-05 0)
(3.27836e-05 -9.45095e-06 0)
(5.49125e-07 8.00394e-07 0)
(-1.4177e-05 3.83806e-06 0)
(-1.53385e-05 3.2909e-06 0)
(-1.12571e-05 1.24657e-06 0)
(1.64319e-07 2.03792e-08 0)
(3.96703e-07 6.09549e-08 0)
(-2.2709e-06 1.1341e-07 0)
(-1.24149e-05 -9.92876e-07 0)
(-2.18314e-05 -5.37987e-06 0)
(-2.28405e-06 -5.91787e-06 0)
(2.31446e-05 9.0677e-06 0)
(3.77904e-05 1.29839e-05 0)
(-1.20409e-05 5.26732e-06 0)
(-2.45172e-05 -1.538e-06 0)
(3.86107e-05 -8.85683e-06 0)
(-6.14228e-06 4.08135e-06 0)
(-6.64989e-05 1.39035e-05 0)
(-8.97745e-06 -3.0537e-06 0)
(5.39175e-05 -9.02632e-06 0)
(4.42797e-05 -5.07636e-06 0)
(9.28499e-06 -6.07524e-07 0)
(-1.14339e-05 1.09825e-06 0)
(-1.56547e-05 1.14075e-06 0)
(-1.24586e-05 4.08853e-07 0)
(1.63821e-07 -1.08371e-08 0)
(3.86274e-07 -1.81711e-07 0)
(-2.24754e-06 -3.36331e-07 0)
(-1.25262e-05 7.75357e-07 0)
(-2.17296e-05 5.09541e-06 0)
(-2.20748e-06 5.71556e-06 0)
(2.29752e-05 -9.26921e-06 0)
(3.77877e-05 -1.32798e-05 0)
(-1.2031e-05 -5.53397e-06 0)
(-2.43807e-05 1.27786e-06 0)
(3.85915e-05 8.55442e-06 0)
(-6.08158e-06 -4.41424e-06 0)
(-6.63868e-05 -1.42215e-05 0)
(-9.02652e-06 2.73213e-06 0)
(5.38179e-05 8.72464e-06 0)
(4.42546e-05 4.79339e-06 0)
(9.28035e-06 3.37449e-07 0)
(-1.14213e-05 -1.36182e-06 0)
(-1.57074e-05 -1.40147e-06 0)
(-1.24564e-05 -6.88387e-07 0)
(1.14846e-07 -2.9146e-08 0)
(2.94403e-07 -3.09974e-07 0)
(-1.41553e-06 -5.62292e-07 0)
(-8.80819e-06 1.59698e-06 0)
(-1.88223e-05 1.07813e-05 0)
(-1.02066e-05 1.57712e-05 0)
(1.60717e-05 -1.01598e-05 0)
(2.61032e-05 -3.16481e-05 0)
(4.81845e-07 -2.08908e-05 0)
(-1.48582e-06 5.79159e-06 0)
(9.08447e-06 5.6083e-06 0)
(-4.22811e-05 -1.50023e-05 0)
(-4.47557e-05 -1.03724e-05 0)
(2.56552e-05 2.00647e-05 0)
(5.73909e-05 2.2772e-05 0)
(3.28471e-05 9.16401e-06 0)
(5.73854e-07 -1.07359e-06 0)
(-1.41718e-05 -4.12149e-06 0)
(-1.53019e-05 -3.56077e-06 0)
(-1.12921e-05 -1.51122e-06 0)
(6.27741e-08 -2.30246e-08 0)
(1.90083e-07 -2.69035e-07 0)
(-5.90767e-07 -5.41957e-07 0)
(-4.76338e-06 1.02949e-06 0)
(-1.32155e-05 8.96418e-06 0)
(-1.40532e-05 2.01482e-05 0)
(2.78081e-06 8.30553e-06 0)
(1.64549e-05 -2.47787e-05 0)
(9.92755e-06 -3.04046e-05 0)
(3.33874e-06 -4.94499e-06 0)
(-1.32604e-05 -7.80122e-06 0)
(-3.0322e-05 -9.59569e-06 0)
(1.97185e-06 1.57872e-05 0)
(4.41499e-05 3.0489e-05 0)
(4.03731e-05 1.91437e-05 0)
(1.16869e-05 2.14768e-06 0)
(-9.5764e-06 -6.24206e-06 0)
(-1.56738e-05 -6.95626e-06 0)
(-1.34337e-05 -4.86447e-06 0)
(-9.08466e-06 -1.89308e-06 0)
(2.80633e-08 -5.34838e-09 0)
(1.00012e-07 -1.69911e-07 0)
(-1.73561e-07 -4.00792e-07 0)
(-2.11423e-06 2.65639e-07 0)
(-7.04977e-06 5.00572e-06 0)
(-1.11192e-05 1.62156e-05 0)
(-5.30369e-06 1.99065e-05 0)
(6.11188e-06 -1.92575e-07 0)
(1.06016e-05 -1.86957e-05 0)
(6.40964e-06 -1.60172e-05 0)
(-8.3902e-06 -1.13812e-05 0)
(-6.22473e-06 2.08461e-06 0)
(1.99024e-05 1.91637e-05 0)
(3.20901e-05 1.69525e-05 0)
(1.63805e-05 2.59169e-06 0)
(-3.60346e-06 -7.92502e-06 0)
(-1.3219e-05 -1.03297e-05 0)
(-1.33512e-05 -8.02741e-06 0)
(-9.8834e-06 -4.8927e-06 0)
(-6.2709e-06 -1.79956e-06 0)
(1.01604e-08 1.26721e-08 0)
(4.39972e-08 -8.67938e-08 0)
(-3.4089e-08 -2.40558e-07 0)
(-7.93552e-07 -5.849e-08 0)
(-2.97426e-06 2.15532e-06 0)
(-6.29616e-06 8.8912e-06 0)
(-5.74686e-06 1.72948e-05 0)
(1.18643e-07 1.43536e-05 0)
(6.55386e-06 1.33542e-06 0)
(6.38073e-06 -7.71324e-06 0)
(2.66124e-06 -6.56924e-06 0)
(8.46231e-06 2.64252e-06 0)
(1.74517e-05 7.69355e-06 0)
(1.35159e-05 5.01768e-07 0)
(5.40394e-07 -8.39215e-06 0)
(-8.86965e-06 -1.16348e-05 0)
(-1.11662e-05 -1.00143e-05 0)
(-9.11842e-06 -6.68495e-06 0)
(-6.16988e-06 -3.78935e-06 0)
(-3.76401e-06 -1.36834e-06 0)
(1.81784e-09 3.13209e-08 0)
(1.90438e-08 -2.68108e-08 0)
(-1.24626e-09 -1.16859e-07 0)
(-2.49814e-07 -9.41176e-08 0)
(-1.16815e-06 7.50816e-07 0)
(-2.71299e-06 3.77903e-06 0)
(-3.35013e-06 9.6978e-06 0)
(-1.42356e-06 1.33314e-05 0)
(2.80812e-06 1.01848e-05 0)
(5.18249e-06 3.49348e-06 0)
(6.43845e-06 1.04004e-06 0)
(9.31043e-06 1.25208e-06 0)
(9.50806e-06 -1.68881e-06 0)
(3.61606e-06 -7.39606e-06 0)
(-3.48213e-06 -1.0507e-05 0)
(-7.01087e-06 -9.80509e-06 0)
(-6.90936e-06 -7.16541e-06 0)
(-5.13196e-06 -4.41588e-06 0)
(-3.33087e-06 -2.41033e-06 0)
(-2.01501e-06 -8.85357e-07 0)
(-2.27155e-09 4.79219e-08 0)
(1.2877e-08 1.58552e-08 0)
(6.533e-09 -3.80007e-08 0)
(-7.28623e-08 -4.75683e-08 0)
(-4.23205e-07 2.16451e-07 0)
(-9.46045e-07 1.45891e-06 0)
(-1.55244e-06 4.12277e-06 0)
(-9.8765e-07 7.44064e-06 0)
(8.33329e-07 8.37197e-06 0)
(3.01094e-06 6.24902e-06 0)
(4.76704e-06 3.56001e-06 0)
(5.76904e-06 7.5777e-07 0)
(4.29506e-06 -3.17673e-06 0)
(5.79495e-07 -6.42355e-06 0)
(-2.67252e-06 -7.17799e-06 0)
(-3.8893e-06 -5.94174e-06 0)
(-3.49847e-06 -4.05621e-06 0)
(-2.50666e-06 -2.41147e-06 0)
(-1.62535e-06 -1.3033e-06 0)
(-1.01952e-06 -5.11384e-07 0)
(-3.10053e-09 4.92839e-08 0)
(1.78833e-08 3.11212e-08 0)
(1.86306e-08 -9.51364e-09 0)
(-1.25437e-08 -2.26076e-08 0)
(-1.21944e-07 4.83457e-08 0)
(-3.6121e-07 4.94287e-07 0)
(-5.93963e-07 1.50049e-06 0)
(-5.29988e-07 3.06941e-06 0)
(2.14122e-07 4.30305e-06 0)
(1.28904e-06 4.13624e-06 0)
(2.33666e-06 2.76753e-06 0)
(2.66723e-06 5.90517e-07 0)
(1.68981e-06 -1.90571e-06 0)
(-2.93243e-08 -3.50779e-06 0)
(-1.34514e-06 -3.67631e-06 0)
(-1.7642e-06 -2.91719e-06 0)
(-1.5471e-06 -1.93862e-06 0)
(-1.12171e-06 -1.14523e-06 0)
(-7.6559e-07 -6.34046e-07 0)
(-5.40329e-07 -2.89269e-07 0)
(-2.14294e-09 4.45909e-08 0)
(1.7543e-08 5.22518e-08 0)
(2.72834e-08 3.15506e-08 0)
(1.15752e-08 2.66211e-08 0)
(-2.99132e-08 4.52872e-08 0)
(-1.32634e-07 1.64214e-07 0)
(-2.2443e-07 5.39439e-07 0)
(-2.14227e-07 1.13399e-06 0)
(-1.24881e-09 1.72934e-06 0)
(4.1203e-07 1.88748e-06 0)
(8.98311e-07 1.43196e-06 0)
(1.06587e-06 4.14105e-07 0)
(6.33378e-07 -7.21997e-07 0)
(-5.37178e-08 -1.3992e-06 0)
(-5.4664e-07 -1.45508e-06 0)
(-7.01109e-07 -1.13503e-06 0)
(-6.33209e-07 -7.38876e-07 0)
(-5.02173e-07 -4.33729e-07 0)
(-3.90158e-07 -2.38738e-07 0)
(-3.2947e-07 -1.32652e-07 0)
(-3.23416e-09 2.50563e-08 0)
(2.51887e-08 6.54934e-09 0)
(4.55167e-08 -2.40138e-08 0)
(3.30455e-08 -3.27316e-08 0)
(3.68334e-09 -2.85598e-08 0)
(-4.13541e-08 -4.86435e-09 0)
(-9.76668e-08 9.43451e-08 0)
(-1.12057e-07 2.68605e-07 0)
(-3.48058e-08 4.19194e-07 0)
(1.69612e-07 4.8409e-07 0)
(4.11002e-07 3.93371e-07 0)
(4.437e-07 1.29697e-07 0)
(2.52772e-07 -1.88829e-07 0)
(-3.02826e-08 -3.73712e-07 0)
(-2.42649e-07 -3.93559e-07 0)
(-3.24796e-07 -3.16844e-07 0)
(-3.20234e-07 -2.22307e-07 0)
(-3.00869e-07 -1.5388e-07 0)
(-2.59435e-07 -1.07569e-07 0)
(-2.99582e-07 -9.755e-08 0)
)
;

boundaryField
{
    sides
    {
        type            calculated;
        value           nonuniform List<vector> 
40
(
(-3.23416e-09 0 0)
(2.51887e-08 0 0)
(4.55167e-08 0 0)
(3.30455e-08 0 0)
(3.68334e-09 0 0)
(-4.13541e-08 0 0)
(-9.76668e-08 0 0)
(-1.12057e-07 0 0)
(-3.48058e-08 0 0)
(1.69612e-07 0 0)
(4.11002e-07 0 0)
(4.437e-07 0 0)
(2.52772e-07 0 0)
(-3.02826e-08 0 0)
(-2.42649e-07 0 0)
(-3.24796e-07 0 0)
(-3.20234e-07 0 0)
(-3.00869e-07 0 0)
(-2.59435e-07 0 0)
(-2.99582e-07 0 0)
(3.26633e-09 0 0)
(-2.50131e-08 0 0)
(-4.49696e-08 0 0)
(-3.34068e-08 0 0)
(-1.47583e-08 0 0)
(-1.2624e-08 0 0)
(-3.25155e-08 0 0)
(-3.55444e-08 0 0)
(4.41682e-08 0 0)
(2.37601e-07 0 0)
(4.57443e-07 0 0)
(5.19383e-07 0 0)
(3.38446e-07 0 0)
(3.67541e-08 0 0)
(-1.88613e-07 0 0)
(-2.54868e-07 0 0)
(-1.88214e-07 0 0)
(-6.14691e-08 0 0)
(2.21933e-08 0 0)
(1.51449e-07 0 0)
)
;
    }
    inlet
    {
        type            calculated;
        value           uniform (0 0 0);
    }
    outlet
    {
        type            calculated;
        value           nonuniform List<vector> 
20
(
(1.51449e-07 -5.46812e-08 0)
(1.11499e-08 2.89288e-08 0)
(-2.3928e-07 1.05023e-07 0)
(-8.22413e-07 3.16547e-07 0)
(-1.87849e-06 6.52993e-07 0)
(-3.68205e-06 1.10632e-06 0)
(-6.21739e-06 1.52007e-06 0)
(-9.05248e-06 1.59839e-06 0)
(-1.12571e-05 1.24657e-06 0)
(-1.24586e-05 4.08853e-07 0)
(-1.24564e-05 -6.88387e-07 0)
(-1.12921e-05 -1.51122e-06 0)
(-9.08466e-06 -1.89308e-06 0)
(-6.2709e-06 -1.79956e-06 0)
(-3.76401e-06 -1.36834e-06 0)
(-2.01501e-06 -8.85357e-07 0)
(-1.01952e-06 -5.11384e-07 0)
(-5.40329e-07 -2.89269e-07 0)
(-3.2947e-07 -1.32652e-07 0)
(-2.99582e-07 -9.755e-08 0)
)
;
    }
    frontAndBack
    {
        type            empty;
    }
}


// ************************************************************************* //
