/*--------------------------------*- C++ -*----------------------------------*\
  =========                 |
  \\      /  F ield         | OpenFOAM: The Open Source CFD Toolbox
   \\    /   O peration     | Website:  https://openfoam.org
    \\  /    A nd           | Version:  9
     \\/     M anipulation  |
\*---------------------------------------------------------------------------*/
FoamFile
{
    format      ascii;
    class       volScalarField;
    location    "1";
    object      h_0;
}
// * * * * * * * * * * * * * * * * * * * * * * * * * * * * * * * * * * * * * //

dimensions      [0 1 0 0 0 0 0];

internalField   nonuniform List<scalar> 
400
(
0.0100003
0.0100003
0.0100003
0.0100004
0.0100004
0.0100004
0.0100005
0.0100006
0.0100007
0.0100008
0.0100007
0.0100005
0.0100003
0.0100001
0.0100001
0.0100002
0.0100003
0.0100003
0.0100002
0.0100001
0.0100002
0.0100002
0.0100002
0.0100003
0.0100003
0.0100003
0.0100004
0.0100007
0.010001
0.0100012
0.0100009
0.0100004
0.00999987
0.00999961
0.00999961
0.00999976
0.00999993
0.01
0.0100001
0.01
0.0100001
0.0100001
0.0100002
0.0100002
0.0100002
0.0100004
0.0100008
0.0100017
0.0100024
0.0100025
0.0100016
0.0100003
0.00999904
0.00999845
0.00999851
0.00999892
0.00999935
0.00999969
0.00999988
0.00999997
0.0100001
0.0100001
0.0100001
0.0100001
0.0100002
0.0100008
0.0100023
0.0100044
0.0100058
0.0100051
0.0100028
0.00999979
0.00999709
0.00999582
0.00999606
0.00999705
0.00999813
0.00999894
0.00999949
0.00999985
0.01
0.01
0.01
0.01
0.0100004
0.0100022
0.0100062
0.0100106
0.0100115
0.0100079
0.010003
0.00999835
0.00999406
0.00999159
0.00999178
0.00999363
0.00999583
0.00999761
0.00999879
0.00999962
0.01
0.00999999
0.00999993
0.01
0.0100014
0.0100062
0.0100149
0.0100206
0.0100164
0.0100061
0.00999955
0.00999647
0.00999252
0.00998806
0.00998675
0.00998876
0.00999219
0.00999537
0.00999761
0.00999925
0.00999999
0.00999992
0.0099998
0.0100002
0.010004
0.010015
0.010029
0.0100284
0.010011
0.00999451
0.00999011
0.00999545
0.00999837
0.00999184
0.00998526
0.00998444
0.00998793
0.0099924
0.00999596
0.00999871
0.00999997
0.00999981
0.0099996
0.010001
0.0100094
0.010029
0.0100419
0.0100216
0.00999265
0.00998251
0.00997963
0.00999217
0.0100091
0.0100053
0.00999136
0.00998368
0.00998469
0.00998944
0.00999412
0.00999808
0.00999993
0.00999963
0.00999937
0.0100025
0.0100178
0.0100439
0.0100435
0.01
0.00997128
0.00997996
0.00997467
0.00998491
0.0100168
0.0100222
0.0100038
0.0099879
0.00998422
0.00998768
0.00999268
0.00999755
0.0099999
0.00999944
0.00999908
0.010004
0.0100256
0.0100542
0.0100378
0.00999287
0.00997557
0.00896742
0.00894576
0.0099714
0.0100196
0.0100363
0.010014
0.00999285
0.00998548
0.00998725
0.00999195
0.00999722
0.0099999
0.00999945
0.0099991
0.010004
0.0100256
0.0100541
0.0100378
0.00999287
0.00997556
0.00896744
0.0089458
0.00997141
0.0100195
0.0100362
0.0100139
0.00999284
0.00998548
0.00998724
0.00999194
0.00999723
0.00999993
0.00999962
0.00999933
0.0100025
0.0100177
0.0100439
0.0100434
0.01
0.00997129
0.00997998
0.00997466
0.00998493
0.0100168
0.0100223
0.0100039
0.0099879
0.00998421
0.00998767
0.00999266
0.00999753
0.00999997
0.0099998
0.00999958
0.0100009
0.0100092
0.0100289
0.0100419
0.0100216
0.0099927
0.00998256
0.00997971
0.00999223
0.0100091
0.0100053
0.00999135
0.00998365
0.00998466
0.00998942
0.00999409
0.00999807
0.00999999
0.00999991
0.00999978
0.0100002
0.0100039
0.0100148
0.0100289
0.0100283
0.0100109
0.00999442
0.00999001
0.00999533
0.00999828
0.00999175
0.00998519
0.00998439
0.00998789
0.00999235
0.00999592
0.0099987
0.00999999
0.00999996
0.00999989
0.00999999
0.0100014
0.0100061
0.0100148
0.0100204
0.0100163
0.010006
0.0099994
0.00999634
0.00999241
0.00998797
0.00998666
0.00998868
0.00999212
0.00999529
0.00999756
0.00999923
0.00999998
0.00999996
0.00999992
0.00999993
0.0100003
0.0100022
0.010006
0.0100104
0.0100114
0.0100077
0.0100028
0.00999822
0.00999391
0.00999144
0.00999163
0.00999347
0.00999567
0.00999747
0.00999869
0.00999958
0.00999994
0.00999992
0.00999989
0.00999988
0.00999998
0.0100006
0.010002
0.0100041
0.0100055
0.0100048
0.0100025
0.00999949
0.00999681
0.00999554
0.00999577
0.00999677
0.00999787
0.00999873
0.00999933
0.00999978
0.00999989
0.00999986
0.00999983
0.00999981
0.00999982
0.00999997
0.0100005
0.0100013
0.010002
0.010002
0.0100012
0.00999985
0.00999859
0.009998
0.00999808
0.0099985
0.00999896
0.00999933
0.00999962
0.00999987
0.00999983
0.0099998
0.00999977
0.00999974
0.00999973
0.00999976
0.00999992
0.0100002
0.0100005
0.0100006
0.0100004
0.00999987
0.00999935
0.00999909
0.00999909
0.00999923
0.0099994
0.00999957
0.00999974
0.00999991
0.00999972
0.00999969
0.00999965
0.00999963
0.00999961
0.0099996
0.00999964
0.00999975
0.00999989
0.00999998
0.0099999
0.00999969
0.00999947
0.00999934
0.00999933
0.00999938
0.00999946
0.00999957
0.00999972
0.00999989
)
;

boundaryField
{
    sides
    {
        type            zeroGradient;
    }
    inlet
    {
        type            zeroGradient;
    }
    outlet
    {
        type            fixedValue;
        value           uniform 0.01;
    }
    frontAndBack
    {
        type            empty;
    }
}


// ************************************************************************* //
