/*--------------------------------*- C++ -*----------------------------------*\
  =========                 |
  \\      /  F ield         | OpenFOAM: The Open Source CFD Toolbox
   \\    /   O peration     | Website:  https://openfoam.org
    \\  /    A nd           | Version:  9
     \\/     M anipulation  |
\*---------------------------------------------------------------------------*/
FoamFile
{
    format      ascii;
    class       volScalarField;
    location    "1";
    object      hTotal;
}
// * * * * * * * * * * * * * * * * * * * * * * * * * * * * * * * * * * * * * //

dimensions      [0 1 0 0 0 0 0];

internalField   nonuniform List<scalar> 
400
(
0.0100003
0.0100003
0.0100004
0.0100004
0.0100004
0.0100005
0.0100006
0.0100008
0.0100011
0.0100012
0.0100011
0.0100007
0.0100002
0.00999994
0.00999987
0.00999994
0.0100001
0.0100001
0.0100001
0.0100001
0.0100002
0.0100002
0.0100003
0.0100003
0.0100003
0.0100004
0.0100007
0.0100013
0.0100018
0.0100019
0.0100015
0.0100006
0.00999976
0.00999922
0.0099991
0.00999928
0.00999955
0.00999978
0.00999991
0.00999998
0.0100001
0.0100002
0.0100002
0.0100002
0.0100003
0.0100007
0.0100017
0.0100031
0.010004
0.0100038
0.0100024
0.0100005
0.00999869
0.00999757
0.00999739
0.00999786
0.00999854
0.00999914
0.00999956
0.00999986
0.0100001
0.0100001
0.0100001
0.0100001
0.0100005
0.0100018
0.0100044
0.0100073
0.0100082
0.0100064
0.0100032
0.00999988
0.00999675
0.00999461
0.00999415
0.00999505
0.0099965
0.00999783
0.00999882
0.00999962
0.01
0.01
0.01
0.0100002
0.0100013
0.0100048
0.0100106
0.0100147
0.0100131
0.0100071
0.0100016
0.00999817
0.0099949
0.00999157
0.00999
0.00999083
0.00999311
0.00999558
0.00999756
0.0099992
0.01
0.00999995
0.00999989
0.0100004
0.0100036
0.0100117
0.0100214
0.0100222
0.0100122
0.0100013
0.00999569
0.00999589
0.00999654
0.00999269
0.00998806
0.00998677
0.00998887
0.00999236
0.00999563
0.00999854
0.00999996
0.00999983
0.00999977
0.0100014
0.010009
0.0100239
0.010033
0.0100203
0.00999901
0.00998957
0.0099866
0.00999293
0.0100035
0.0100029
0.00999343
0.00998631
0.00998561
0.00998899
0.00999332
0.00999771
0.0099999
0.00999962
0.00999973
0.0100037
0.0100182
0.0100382
0.0100348
0.0100031
0.00998351
0.00998401
0.0099813
0.00998507
0.0100058
0.0100162
0.0100057
0.00999142
0.00998526
0.00998668
0.00999124
0.0099969
0.0099998
0.00999934
0.0099999
0.0100075
0.0100291
0.0100473
0.0100231
0.00998288
0.00997403
0.00998281
0.0099821
0.00997903
0.00999983
0.0100218
0.010017
0.00999962
0.00998815
0.00998638
0.00999008
0.00999636
0.00999972
0.00999907
0.01
0.010011
0.0100375
0.0100497
0.0100126
0.00998521
0.00998495
0.00996845
0.00995377
0.00997719
0.010006
0.0100301
0.010024
0.0100049
0.00999122
0.00998714
0.00998982
0.00999611
0.00999972
0.00999908
0.01
0.0100109
0.0100375
0.0100497
0.0100126
0.00998522
0.00998496
0.00996856
0.00995381
0.00997721
0.010006
0.01003
0.0100239
0.0100049
0.00999121
0.00998714
0.0099898
0.00999612
0.0099998
0.00999932
0.00999983
0.0100074
0.0100291
0.0100473
0.0100231
0.0099829
0.009974
0.0099828
0.00998205
0.00997903
0.00999988
0.010022
0.0100172
0.00999964
0.00998816
0.00998637
0.00999008
0.00999634
0.00999989
0.0099996
0.00999968
0.0100036
0.0100179
0.0100381
0.0100348
0.0100031
0.00998359
0.00998407
0.00998128
0.0099851
0.0100059
0.0100163
0.0100058
0.0099914
0.00998524
0.00998666
0.00999122
0.00999689
0.00999995
0.0099998
0.00999973
0.0100013
0.0100088
0.0100238
0.0100329
0.0100202
0.00999896
0.00998948
0.00998662
0.00999286
0.0100034
0.0100028
0.00999336
0.00998623
0.00998554
0.00998893
0.00999327
0.00999769
0.00999997
0.0099999
0.00999982
0.0100004
0.0100035
0.0100115
0.0100213
0.0100221
0.0100121
0.0100011
0.00999556
0.00999572
0.00999639
0.00999256
0.00998791
0.00998663
0.00998875
0.00999225
0.00999554
0.0099985
0.00999996
0.00999992
0.00999987
0.01
0.0100012
0.0100046
0.0100104
0.0100144
0.0100128
0.0100068
0.0100013
0.0099979
0.00999467
0.00999134
0.00998977
0.00999061
0.00999288
0.00999536
0.0099974
0.00999914
0.00999992
0.00999989
0.00999984
0.00999985
0.0100002
0.0100015
0.010004
0.0100069
0.0100078
0.010006
0.0100028
0.00999951
0.00999637
0.00999424
0.00999377
0.00999466
0.00999612
0.00999752
0.00999862
0.00999954
0.00999986
0.00999983
0.00999979
0.00999977
0.00999984
0.0100003
0.0100012
0.0100025
0.0100035
0.0100032
0.0100019
0.00999998
0.00999814
0.00999701
0.00999682
0.00999731
0.00999804
0.00999872
0.00999927
0.00999975
0.0099998
0.00999976
0.00999973
0.00999971
0.00999971
0.00999982
0.0100002
0.0100007
0.0100012
0.0100012
0.0100008
0.00999998
0.0099991
0.00999856
0.00999845
0.00999865
0.00999897
0.00999929
0.00999958
0.00999986
0.00999969
0.00999965
0.00999962
0.00999959
0.00999958
0.0099996
0.00999971
0.00999995
0.0100002
0.0100003
0.0100002
0.00999977
0.00999934
0.00999906
0.00999899
0.00999907
0.00999923
0.00999943
0.00999964
0.00999986
)
;

boundaryField
{
    sides
    {
        type            calculated;
        value           nonuniform List<scalar> 
40
(
0.00999969
0.00999965
0.00999962
0.00999959
0.00999958
0.0099996
0.00999971
0.00999995
0.0100002
0.0100003
0.0100002
0.00999977
0.00999934
0.00999906
0.00999899
0.00999907
0.00999923
0.00999943
0.00999964
0.00999986
0.0100003
0.0100003
0.0100004
0.0100004
0.0100004
0.0100005
0.0100006
0.0100008
0.0100011
0.0100012
0.0100011
0.0100007
0.0100002
0.00999994
0.00999987
0.00999994
0.0100001
0.0100001
0.0100001
0.0100001
)
;
    }
    inlet
    {
        type            calculated;
        value           nonuniform List<scalar> 
20
(
0.0100003
0.0100002
0.0100001
0.0100001
0.01
0.01
0.00999996
0.0099999
0.0099998
0.00999972
0.00999972
0.0099998
0.00999989
0.00999995
0.00999997
0.00999996
0.00999992
0.00999986
0.0099998
0.00999969
)
;
    }
    outlet
    {
        type            calculated;
        value           uniform 0.01;
    }
    frontAndBack
    {
        type            empty;
    }
}


// ************************************************************************* //
