/*--------------------------------*- C++ -*----------------------------------*\
  =========                 |
  \\      /  F ield         | OpenFOAM: The Open Source CFD Toolbox
   \\    /   O peration     | Website:  https://openfoam.org
    \\  /    A nd           | Version:  9
     \\/     M anipulation  |
\*---------------------------------------------------------------------------*/
FoamFile
{
    format      ascii;
    class       volVectorField;
    location    "1";
    object      hU;
}
// * * * * * * * * * * * * * * * * * * * * * * * * * * * * * * * * * * * * * //

dimensions      [0 2 -1 0 0 0 0];

internalField   nonuniform List<vector> 
400
(
(0.001 -1.5097e-08 0)
(0.000999992 -4.76818e-08 0)
(0.000999998 -5.98784e-08 0)
(0.00100001 -5.99882e-08 0)
(0.00100003 -5.83328e-08 0)
(0.00100003 -6.14731e-08 0)
(0.00100002 -7.88294e-08 0)
(0.00100002 -1.18524e-07 0)
(0.00100005 -1.6788e-07 0)
(0.0010001 -1.93213e-07 0)
(0.00100016 -1.64426e-07 0)
(0.00100018 -8.45331e-08 0)
(0.00100013 9.26952e-10 0)
(0.00100005 5.02861e-08 0)
(0.000999986 5.53638e-08 0)
(0.000999966 3.3846e-08 0)
(0.000999982 5.287e-09 0)
(0.00100002 -2.32459e-08 0)
(0.00100006 -4.7307e-08 0)
(0.00100015 -9.00434e-08 0)
(0.001 6.88255e-10 0)
(0.000999996 -1.68298e-08 0)
(0.001 -2.2242e-08 0)
(0.00100001 -1.88086e-08 0)
(0.00100001 -1.85792e-08 0)
(0.001 -4.38587e-08 0)
(0.000999983 -1.35355e-07 0)
(0.000999982 -3.1012e-07 0)
(0.00100004 -4.96829e-07 0)
(0.00100017 -5.63024e-07 0)
(0.00100031 -4.17797e-07 0)
(0.00100034 -9.51353e-08 0)
(0.00100022 2.21931e-07 0)
(0.00100003 3.95519e-07 0)
(0.000999892 4.04199e-07 0)
(0.000999849 3.14286e-07 0)
(0.000999874 2.07235e-07 0)
(0.000999932 1.10327e-07 0)
(0.000999992 3.65148e-08 0)
(0.00100005 -5.60044e-08 0)
(0.001 -1.59284e-08 0)
(0.000999997 -5.64516e-08 0)
(0.001 -7.1621e-08 0)
(0.00100001 -7.12581e-08 0)
(0.00099999 -8.61547e-08 0)
(0.000999938 -1.87224e-07 0)
(0.000999871 -4.77226e-07 0)
(0.000999889 -9.50903e-07 0)
(0.00100009 -1.36025e-06 0)
(0.00100043 -1.39249e-06 0)
(0.00100076 -9.45653e-07 0)
(0.0010008 -1.73227e-07 0)
(0.00100047 5.87501e-07 0)
(0.000999992 9.81172e-07 0)
(0.000999656 9.67958e-07 0)
(0.000999559 7.34126e-07 0)
(0.000999627 4.61589e-07 0)
(0.000999749 2.39628e-07 0)
(0.000999866 8.28721e-08 0)
(0.000999955 -5.98372e-08 0)
(0.001 -2.51885e-08 0)
(0.001 -7.37449e-08 0)
(0.001 -8.87197e-08 0)
(0.00099999 -9.06885e-08 0)
(0.000999917 -1.56931e-07 0)
(0.000999749 -4.7329e-07 0)
(0.000999585 -1.24007e-06 0)
(0.000999693 -2.2796e-06 0)
(0.00100024 -2.90144e-06 0)
(0.00100103 -2.58524e-06 0)
(0.0010017 -1.49369e-06 0)
(0.0010018 -1.46205e-09 0)
(0.00100107 1.40972e-06 0)
(0.000999949 2.14164e-06 0)
(0.000999148 2.08832e-06 0)
(0.000998917 1.60057e-06 0)
(0.000999074 1.02644e-06 0)
(0.000999356 5.59284e-07 0)
(0.000999601 2.43438e-07 0)
(0.00099978 -1.03166e-08 0)
(0.001 -3.30086e-08 0)
(0.001 -8.58497e-08 0)
(0.001 -9.75414e-08 0)
(0.000999939 -1.13418e-07 0)
(0.000999707 -3.30779e-07 0)
(0.000999266 -1.16681e-06 0)
(0.000998953 -2.86667e-06 0)
(0.000999376 -4.58842e-06 0)
(0.00100068 -4.90843e-06 0)
(0.00100217 -3.61067e-06 0)
(0.00100327 -1.65002e-06 0)
(0.00100348 5.28114e-07 0)
(0.00100224 2.50363e-06 0)
(0.00100007 3.63031e-06 0)
(0.000998371 3.62015e-06 0)
(0.00099779 2.87216e-06 0)
(0.000998039 1.91337e-06 0)
(0.000998606 1.08505e-06 0)
(0.00099912 5.16356e-07 0)
(0.000999482 7.69213e-08 0)
(0.001 -3.70247e-08 0)
(0.00100001 -8.70496e-08 0)
(0.000999988 -8.84797e-08 0)
(0.000999795 -1.5027e-07 0)
(0.000999183 -7.23974e-07 0)
(0.000998213 -2.56717e-06 0)
(0.000997854 -5.5354e-06 0)
(0.000999125 -7.27065e-06 0)
(0.00100161 -6.19795e-06 0)
(0.00100379 -3.41627e-06 0)
(0.00100509 -5.93566e-07 0)
(0.00100556 1.57596e-06 0)
(0.00100417 3.16422e-06 0)
(0.00100088 4.36216e-06 0)
(0.000997777 4.69966e-06 0)
(0.000996375 4.0822e-06 0)
(0.000996519 2.92074e-06 0)
(0.000997406 1.75159e-06 0)
(0.00099831 8.87028e-07 0)
(0.000998985 1.99886e-07 0)
(0.00100001 -3.68633e-08 0)
(0.00100002 -7.4952e-08 0)
(0.000999949 -6.14937e-08 0)
(0.000999444 -2.35895e-07 0)
(0.000998073 -1.45975e-06 0)
(0.000996362 -4.64446e-06 0)
(0.00099645 -8.28013e-06 0)
(0.00099924 -8.31023e-06 0)
(0.00100312 -5.60613e-06 0)
(0.00100603 -3.32776e-06 0)
(0.00100675 3.10689e-07 0)
(0.0010067 3.42254e-06 0)
(0.00100589 4.0076e-06 0)
(0.00100276 4.07396e-06 0)
(0.000998442 4.53689e-06 0)
(0.000995554 4.50747e-06 0)
(0.000994952 3.57208e-06 0)
(0.000995903 2.28601e-06 0)
(0.0009972 1.22e-06 0)
(0.000998277 3.18493e-07 0)
(0.00100002 -3.42462e-08 0)
(0.00100004 -5.42594e-08 0)
(0.000999849 -2.77666e-08 0)
(0.000998748 -3.86027e-07 0)
(0.000996249 -2.38445e-06 0)
(0.000994011 -6.53022e-06 0)
(0.000995456 -9.35276e-06 0)
(0.000999879 -7.19845e-06 0)
(0.00100372 -3.76015e-06 0)
(0.00100803 -1.62792e-06 0)
(0.00101045 3.16282e-06 0)
(0.00100819 6.08582e-06 0)
(0.00100572 3.22256e-06 0)
(0.00100376 9.51011e-07 0)
(0.001 1.86393e-06 0)
(0.000995885 3.2166e-06 0)
(0.00099393 3.18102e-06 0)
(0.000994468 2.25817e-06 0)
(0.000995981 1.28611e-06 0)
(0.000997447 3.55289e-07 0)
(0.00100003 -3.39953e-08 0)
(0.00100007 -4.53996e-08 0)
(0.000999672 -4.43422e-09 0)
(0.000997728 -4.2067e-07 0)
(0.00099396 -2.66868e-06 0)
(0.000991675 -6.51683e-06 0)
(0.000994698 -8.53843e-06 0)
(0.00100122 -8.0826e-06 0)
(0.00100608 -1.29215e-05 0)
(0.00101223 -1.42234e-05 0)
(0.00101367 7.16452e-06 0)
(0.00100531 2.15252e-05 0)
(0.00100027 1.3231e-05 0)
(0.00100323 2.15204e-06 0)
(0.0010031 3.77605e-07 0)
(0.000998225 1.81702e-06 0)
(0.000994241 2.20868e-06 0)
(0.000993723 1.68536e-06 0)
(0.000995058 1.00762e-06 0)
(0.000996731 2.73597e-07 0)
(0.00100004 -3.90814e-08 0)
(0.00100011 -7.85225e-08 0)
(0.000999545 -7.02461e-08 0)
(0.00099685 -2.58242e-07 0)
(0.000992044 -1.3346e-06 0)
(0.000989455 -2.97513e-06 0)
(0.000990587 -3.95906e-06 0)
(0.000997387 -5.11723e-06 0)
(0.000988401 -1.16113e-05 0)
(0.000927266 -1.31974e-05 0)
(0.000956438 1.91645e-06 0)
(0.000997454 1.72352e-05 0)
(0.00098184 1.22322e-05 0)
(0.0009927 3.00702e-06 0)
(0.00100257 4.90889e-07 0)
(0.000999495 7.44321e-07 0)
(0.000994462 8.22423e-07 0)
(0.000993293 5.91405e-07 0)
(0.000994499 3.23498e-07 0)
(0.000996261 2.74026e-08 0)
(0.00100004 -4.67852e-08 0)
(0.00100011 -1.38861e-07 0)
(0.000999545 -2.00697e-07 0)
(0.000996835 -1.5542e-08 0)
(0.000992041 1.05863e-06 0)
(0.00098946 2.71295e-06 0)
(0.000990582 3.7012e-06 0)
(0.000997389 4.85332e-06 0)
(0.000988411 1.1352e-05 0)
(0.000927274 1.29455e-05 0)
(0.000956432 -2.18494e-06 0)
(0.000997468 -1.75269e-05 0)
(0.00098186 -1.25228e-05 0)
(0.0009927 -3.29535e-06 0)
(0.00100254 -7.75019e-07 0)
(0.00099948 -1.02504e-06 0)
(0.000994458 -1.10232e-06 0)
(0.000993292 -8.72699e-07 0)
(0.000994496 -6.067e-07 0)
(0.000996266 -3.1571e-07 0)
(0.00100003 -5.16716e-08 0)
(0.00100008 -1.71538e-07 0)
(0.000999683 -2.6434e-07 0)
(0.000997746 1.42558e-07 0)
(0.000993969 2.42883e-06 0)
(0.000991684 6.2669e-06 0)
(0.000994698 8.28765e-06 0)
(0.00100121 7.81944e-06 0)
(0.00100606 1.26385e-05 0)
(0.00101222 1.39285e-05 0)
(0.00101367 -7.46789e-06 0)
(0.00100529 -2.18226e-05 0)
(0.00100025 -1.35259e-05 0)
(0.00100323 -2.45467e-06 0)
(0.00100313 -6.72669e-07 0)
(0.000998243 -2.09838e-06 0)
(0.000994243 -2.48623e-06 0)
(0.00099372 -1.9636e-06 0)
(0.000995054 -1.28626e-06 0)
(0.000996717 -5.57892e-07 0)
(0.00100002 -5.05689e-08 0)
(0.00100005 -1.62334e-07 0)
(0.000999853 -2.50837e-07 0)
(0.000998772 8.41615e-08 0)
(0.000996256 2.07572e-06 0)
(0.000994005 6.23131e-06 0)
(0.000995439 9.05016e-06 0)
(0.000999849 6.90084e-06 0)
(0.0010037 3.46519e-06 0)
(0.00100801 1.35039e-06 0)
(0.00101043 -3.44449e-06 0)
(0.00100821 -6.36939e-06 0)
(0.00100574 -3.49647e-06 0)
(0.00100377 -1.21123e-06 0)
(0.00100001 -2.13196e-06 0)
(0.000995887 -3.49943e-06 0)
(0.000993928 -3.46789e-06 0)
(0.000994464 -2.54624e-06 0)
(0.000995973 -1.5767e-06 0)
(0.000997436 -6.47766e-07 0)
(0.00100001 -4.59372e-08 0)
(0.00100002 -1.3735e-07 0)
(0.00099995 -2.0844e-07 0)
(0.000999448 -5.12612e-08 0)
(0.000998078 1.14259e-06 0)
(0.000996361 4.33804e-06 0)
(0.000996436 7.979e-06 0)
(0.00099923 8.02779e-06 0)
(0.00100312 5.34126e-06 0)
(0.00100603 3.06471e-06 0)
(0.00100676 -5.48101e-07 0)
(0.00100668 -3.66711e-06 0)
(0.00100587 -4.26624e-06 0)
(0.00100275 -4.33912e-06 0)
(0.000998429 -4.80811e-06 0)
(0.000995544 -4.78404e-06 0)
(0.000994942 -3.8507e-06 0)
(0.000995892 -2.56579e-06 0)
(0.000997186 -1.50324e-06 0)
(0.000998262 -6.06655e-07 0)
(0.001 -4.06082e-08 0)
(0.00100001 -1.14943e-07 0)
(0.000999987 -1.66113e-07 0)
(0.000999789 -1.17028e-07 0)
(0.000999183 4.45787e-07 0)
(0.000998204 2.27347e-06 0)
(0.000997848 5.25448e-06 0)
(0.000999116 6.99662e-06 0)
(0.00100159 5.92772e-06 0)
(0.00100378 3.14347e-06 0)
(0.00100509 3.17399e-07 0)
(0.00100554 -1.84817e-06 0)
(0.00100415 -3.43166e-06 0)
(0.00100086 -4.62962e-06 0)
(0.000997758 -4.96503e-06 0)
(0.000996359 -4.34694e-06 0)
(0.000996504 -3.18555e-06 0)
(0.000997389 -2.01747e-06 0)
(0.000998288 -1.15692e-06 0)
(0.000998962 -4.8174e-07 0)
(0.001 -3.40541e-08 0)
(0.001 -9.612e-08 0)
(0.000999997 -1.31041e-07 0)
(0.000999927 -1.22275e-07 0)
(0.000999692 9.8711e-08 0)
(0.00099925 9.16927e-07 0)
(0.000998945 2.61854e-06 0)
(0.000999361 4.34335e-06 0)
(0.00100066 4.66763e-06 0)
(0.00100215 3.37469e-06 0)
(0.00100324 1.40905e-06 0)
(0.00100345 -7.67417e-07 0)
(0.00100221 -2.74415e-06 0)
(0.00100005 -3.86793e-06 0)
(0.000998347 -3.85517e-06 0)
(0.000997766 -3.10681e-06 0)
(0.000998013 -2.15036e-06 0)
(0.000998575 -1.32726e-06 0)
(0.000999082 -7.64409e-07 0)
(0.00099944 -3.46959e-07 0)
(0.000999999 -2.5382e-08 0)
(0.001 -7.68996e-08 0)
(0.000999999 -1.0097e-07 0)
(0.000999974 -1.01658e-07 0)
(0.000999885 -2.59453e-08 0)
(0.000999721 2.95681e-07 0)
(0.000999558 1.05025e-06 0)
(0.000999665 2.08871e-06 0)
(0.00100021 2.71103e-06 0)
(0.001001 2.40031e-06 0)
(0.00100167 1.30384e-06 0)
(0.00100176 -1.93918e-07 0)
(0.00100103 -1.60082e-06 0)
(0.000999913 -2.32968e-06 0)
(0.000999109 -2.27742e-06 0)
(0.000998874 -1.7875e-06 0)
(0.000999026 -1.21641e-06 0)
(0.000999307 -7.53949e-07 0)
(0.000999545 -4.50678e-07 0)
(0.000999708 -2.39961e-07 0)
(0.000999998 -1.59183e-08 0)
(0.001 -5.72399e-08 0)
(0.001 -7.54526e-08 0)
(0.000999987 -7.71763e-08 0)
(0.000999955 -5.45559e-08 0)
(0.000999894 6.00975e-08 0)
(0.000999823 3.42683e-07 0)
(0.000999838 8.03198e-07 0)
(0.00100004 1.20975e-06 0)
(0.00100038 1.24259e-06 0)
(0.0010007 7.95464e-07 0)
(0.00100075 1.96524e-08 0)
(0.00100042 -7.3846e-07 0)
(0.000999936 -1.13234e-06 0)
(0.000999599 -1.11761e-06 0)
(0.000999502 -8.79343e-07 0)
(0.000999565 -6.03666e-07 0)
(0.000999679 -3.86643e-07 0)
(0.00099977 -2.50254e-07 0)
(0.000999825 -1.70273e-07 0)
(0.000999997 7.16807e-10 0)
(0.001 -1.69742e-08 0)
(0.000999999 -2.32446e-08 0)
(0.000999988 -2.10844e-08 0)
(0.000999973 -1.32623e-08 0)
(0.000999946 2.09461e-08 0)
(0.000999919 1.17581e-07 0)
(0.000999918 2.88738e-07 0)
(0.000999981 4.69894e-07 0)
(0.00100011 5.31439e-07 0)
(0.00100024 3.8973e-07 0)
(0.00100027 7.65555e-08 0)
(0.00100015 -2.46322e-07 0)
(0.000999964 -4.22682e-07 0)
(0.000999832 -4.28392e-07 0)
(0.000999789 -3.37707e-07 0)
(0.000999806 -2.29474e-07 0)
(0.000999837 -1.47237e-07 0)
(0.000999858 -1.00518e-07 0)
(0.00099986 -1.01821e-07 0)
(0.000999996 -1.50846e-08 0)
(0.00100001 -4.76943e-08 0)
(0.001 -6.00587e-08 0)
(0.000999986 -6.05316e-08 0)
(0.000999971 -5.79048e-08 0)
(0.000999956 -5.01801e-08 0)
(0.00099994 -2.52943e-08 0)
(0.000999935 1.88561e-08 0)
(0.000999957 6.65448e-08 0)
(0.00100001 8.8843e-08 0)
(0.00100008 6.01346e-08 0)
(0.00100009 -1.62042e-08 0)
(0.00100004 -1.02561e-07 0)
(0.00099996 -1.52259e-07 0)
(0.000999901 -1.57572e-07 0)
(0.000999878 -1.3698e-07 0)
(0.000999877 -1.11234e-07 0)
(0.000999873 -9.28837e-08 0)
(0.00099987 -8.4477e-08 0)
(0.000999811 -1.02352e-07 0)
)
;

boundaryField
{
    sides
    {
        type            slip;
    }
    inlet
    {
        type            fixedValue;
        value           uniform (0.001 0 0);
    }
    outlet
    {
        type            zeroGradient;
    }
    frontAndBack
    {
        type            empty;
    }
}


// ************************************************************************* //
