/*--------------------------------*- C++ -*----------------------------------*\
  =========                 |
  \\      /  F ield         | OpenFOAM: The Open Source CFD Toolbox
   \\    /   O peration     | Website:  https://openfoam.org
    \\  /    A nd           | Version:  9
     \\/     M anipulation  |
\*---------------------------------------------------------------------------*/
FoamFile
{
    format      ascii;
    class       surfaceScalarField;
    location    "1";
    object      phi_0;
}
// * * * * * * * * * * * * * * * * * * * * * * * * * * * * * * * * * * * * * //

dimensions      [0 4 -1 0 0 0 0];

internalField   nonuniform List<scalar> 
760
(
4.99994e-06
-2.81197e-11
4.99998e-06
-1.23506e-10
5.00006e-06
-1.51072e-10
5.00012e-06
-1.40978e-10
5.00016e-06
-1.29095e-10
5.00017e-06
-1.36613e-10
5.00016e-06
-2.13579e-10
5.00015e-06
-4.31073e-10
5.00023e-06
-7.48704e-10
5.00039e-06
-9.51503e-10
5.00053e-06
-7.77839e-10
5.00047e-06
-2.31063e-10
5.00027e-06
3.13923e-10
5.00009e-06
5.55346e-10
5.00002e-06
5.13403e-10
5.00003e-06
3.53925e-10
5.00012e-06
1.55798e-10
5.00027e-06
1.53866e-11
5.00048e-06
-1.07568e-10
-3.39158e-10
4.99997e-06
-7.62841e-11
5e-06
-2.35446e-10
5.00005e-06
-2.81018e-10
5.00008e-06
-2.69539e-10
5.0001e-06
-2.58322e-10
5.00008e-06
-3.17887e-10
5.00001e-06
-6.36114e-10
5e-06
-1.438e-09
5.00024e-06
-2.44828e-09
5.0007e-06
-2.92993e-09
5.00102e-06
-2.19895e-09
5.00082e-06
-4.20272e-10
5.00025e-06
1.15385e-09
4.99979e-06
1.79728e-09
4.99964e-06
1.64953e-09
4.99969e-06
1.1583e-09
4.99984e-06
6.23724e-10
5.00004e-06
2.10781e-10
5.00022e-06
-8.85107e-11
-3.99221e-10
4.99998e-06
-1.28904e-10
5e-06
-3.41128e-10
5.00004e-06
-4.04594e-10
5.00007e-06
-3.933e-10
5.00004e-06
-4.05566e-10
4.99987e-06
-6.95436e-10
4.9996e-06
-1.86805e-09
4.99967e-06
-4.21125e-09
5.00054e-06
-6.63628e-09
5.00197e-06
-7.24809e-09
5.00277e-06
-4.84951e-09
5.00188e-06
-1.05579e-10
5.00031e-06
3.68916e-09
4.99911e-06
5.07375e-09
4.9987e-06
4.38698e-09
4.99891e-06
2.9579e-09
4.99926e-06
1.69691e-09
4.99964e-06
7.18176e-10
4.99993e-06
1.04519e-10
-3.75209e-10
4.99999e-06
-1.733e-10
5.00001e-06
-4.2319e-10
5.00003e-06
-4.94757e-10
5.00003e-06
-4.7825e-10
4.99985e-06
-6.01475e-10
4.99921e-06
-1.67623e-09
4.99844e-06
-5.11869e-09
4.99896e-06
-1.08997e-08
5.00161e-06
-1.54326e-08
5.0053e-06
-1.48645e-08
5.00693e-06
-8.40428e-09
5.00472e-06
1.68841e-09
5.00041e-06
9.5297e-09
4.99728e-06
1.20013e-08
4.9964e-06
1.00873e-08
4.99695e-06
6.76282e-09
4.99792e-06
3.85639e-09
4.99879e-06
1.85931e-09
4.9994e-06
6.32957e-10
-2.39337e-10
5e-06
-1.98457e-10
5.00002e-06
-4.6428e-10
5.00005e-06
-5.19874e-10
4.99996e-06
-4.93707e-10
4.99923e-06
-1.02214e-09
4.99724e-06
-4.22394e-09
4.9954e-06
-1.2698e-08
4.99772e-06
-2.40869e-08
5.00486e-06
-2.92702e-08
5.01252e-06
-2.30671e-08
5.01538e-06
-9.71801e-09
5.01049e-06
6.2235e-09
5.00087e-06
1.87264e-08
4.99364e-06
2.23859e-08
4.99155e-06
1.88667e-08
4.9928e-06
1.29618e-08
4.9951e-06
7.60879e-09
4.99713e-06
3.8027e-09
4.99844e-06
1.53604e-09
3.79162e-11
5.00001e-06
-2.07932e-10
5.00005e-06
-4.63466e-10
5.00011e-06
-4.59884e-10
4.99972e-06
-4.54649e-10
4.99736e-06
-2.12649e-09
4.99208e-06
-9.88818e-09
4.989e-06
-2.68037e-08
4.99704e-06
-4.23115e-08
5.01257e-06
-4.04617e-08
5.02384e-06
-2.37567e-08
5.02804e-06
-4.83091e-09
5.02063e-06
1.30951e-08
5.00339e-06
2.63589e-08
4.9889e-06
3.06971e-08
4.98374e-06
2.70013e-08
4.98553e-06
1.97313e-08
4.98993e-06
1.223e-08
4.99404e-06
6.4021e-09
4.99673e-06
2.80554e-09
4.29272e-10
5.00003e-06
-2.07206e-10
5.00016e-06
-4.20486e-10
5.00026e-06
-3.08992e-10
4.99893e-06
-4.78763e-10
4.99244e-06
-4.44442e-09
4.98056e-06
-1.91666e-08
4.97878e-06
-4.37397e-08
4.99997e-06
-5.32347e-08
5.02809e-06
-3.91192e-08
5.03765e-06
-1.68733e-08
5.03875e-06
7.53516e-09
5.03178e-06
2.26581e-08
5.01117e-06
2.5816e-08
4.98787e-06
2.68268e-08
4.9759e-06
2.67652e-08
4.97604e-06
2.26827e-08
4.98236e-06
1.53699e-08
4.98925e-06
8.48827e-09
4.99402e-06
3.91165e-09
7.80076e-10
5.00009e-06
-2.02904e-10
5.00039e-06
-3.51595e-10
5.00048e-06
-1.20197e-10
4.99679e-06
-6.34769e-10
4.98214e-06
-7.63733e-09
4.96216e-06
-2.80651e-08
4.97143e-06
-5.10667e-08
5.00695e-06
-4.24628e-08
5.03895e-06
-3.50169e-08
5.05917e-06
-3.7036e-08
5.05021e-06
2.04766e-08
5.03779e-06
5.47677e-08
5.02133e-06
3.32223e-08
4.99351e-06
1.38007e-08
4.97197e-06
1.47822e-08
4.96689e-06
1.76114e-08
4.97366e-06
1.38939e-08
4.98328e-06
8.22063e-09
4.9905e-06
3.95972e-09
8.21271e-10
5.00019e-06
-2.08353e-10
5.00084e-06
-3.47749e-10
5.00077e-06
-1.10184e-10
4.99261e-06
-6.01328e-10
4.96539e-06
-7.49319e-09
4.93934e-06
-2.48178e-08
4.96926e-06
-4.05221e-08
5.02819e-06
-4.26028e-08
5.0698e-06
-7.10017e-08
5.07386e-06
-6.24666e-08
5.0326e-06
4.34512e-08
5.01264e-06
1.08586e-07
5.03147e-06
5.25763e-08
5.01345e-06
1.184e-08
4.98062e-06
4.67963e-09
4.96457e-06
9.72722e-09
4.96775e-06
8.57514e-09
4.97812e-06
5.2076e-09
4.98711e-06
2.51504e-09
3.41255e-10
5.00028e-06
-2.1533e-10
5.00136e-06
-5.13531e-10
5.00151e-06
-6.47223e-10
4.98901e-06
-7.11412e-10
4.94971e-06
-7.6043e-10
4.91929e-06
-6.53376e-10
4.94556e-06
-6.43694e-10
4.93796e-06
-5.9623e-10
4.84932e-06
-5.81057e-10
4.77647e-06
-5.10966e-10
4.79563e-06
-6.54692e-10
4.90354e-06
-6.54712e-10
5.00177e-06
-5.95256e-10
5.01213e-06
-5.69746e-10
4.98083e-06
-6.22587e-10
4.96238e-06
-6.4138e-10
4.96377e-06
-6.50759e-10
4.97447e-06
-6.49985e-10
4.98458e-06
-6.70676e-10
-6.59721e-10
5.00028e-06
-2.23737e-10
5.00135e-06
-6.73808e-10
5.00147e-06
-1.18141e-09
4.98896e-06
-6.87289e-10
4.94972e-06
5.89155e-09
4.91929e-06
2.3597e-08
4.9456e-06
3.93229e-08
4.93799e-06
4.13592e-08
4.8494e-06
6.9757e-08
4.77636e-06
6.12807e-08
4.79569e-06
-4.49296e-08
4.90359e-06
-1.09913e-07
5.00178e-06
-5.37376e-08
5.01205e-06
-1.27312e-08
4.98079e-06
-5.89933e-09
4.96236e-06
-1.10422e-08
4.96377e-06
-9.87398e-09
4.97445e-06
-6.52759e-09
4.9846e-06
-3.83102e-09
-1.68976e-09
5.00019e-06
-2.27164e-10
5.00086e-06
-6.72656e-10
5.00086e-06
-1.15812e-09
4.99267e-06
-6.53189e-10
4.96548e-06
6.00782e-09
4.93931e-06
2.67058e-08
4.96921e-06
4.97376e-08
5.02811e-06
4.11857e-08
5.06971e-06
3.38326e-08
5.074e-06
3.57229e-08
5.03253e-06
-2.16377e-08
5.01255e-06
-5.60848e-08
5.03146e-06
-3.45017e-08
5.01355e-06
-1.50397e-08
4.98066e-06
-1.60657e-08
4.96457e-06
-1.89097e-08
4.96773e-06
-1.52019e-08
4.9781e-06
-9.53646e-09
4.98706e-06
-5.28804e-09
-2.14109e-09
5.00009e-06
-2.20539e-10
5.0004e-06
-5.96557e-10
5.0005e-06
-9.39375e-10
4.99688e-06
-8.42555e-10
4.98221e-06
3.11141e-09
4.96207e-06
1.78111e-08
4.97131e-06
4.23882e-08
5.00687e-06
5.19104e-08
5.0389e-06
3.78052e-08
5.059e-06
1.56003e-08
5.05039e-06
-8.72021e-09
5.03787e-06
-2.38561e-08
5.02137e-06
-2.70843e-08
4.99353e-06
-2.80997e-08
4.97197e-06
-2.80541e-08
4.96688e-06
-2.398e-08
4.97364e-06
-1.66746e-08
4.98326e-06
-9.79558e-09
4.99046e-06
-5.22628e-09
-2.09116e-09
5.00003e-06
-2.11845e-10
5.00016e-06
-5.35194e-10
5.00026e-06
-7.57712e-10
4.99893e-06
-8.12467e-10
4.99247e-06
9.45087e-10
4.98053e-06
8.60381e-09
4.97875e-06
2.55158e-08
4.99996e-06
4.10434e-08
5.02801e-06
3.91674e-08
5.03773e-06
2.24143e-08
5.03859e-06
3.34918e-09
5.0317e-06
-1.44214e-08
5.0111e-06
-2.7657e-08
4.98782e-06
-3.19724e-08
4.97587e-06
-2.82625e-08
4.97601e-06
-2.09917e-08
4.98232e-06
-1.34733e-08
4.98921e-06
-7.66654e-09
4.99398e-06
-4.07814e-09
-1.7189e-09
5.00001e-06
-1.98799e-10
5.00005e-06
-4.87643e-10
5.00011e-06
-6.33264e-10
4.99968e-06
-6.90267e-10
4.99732e-06
-1.48065e-10
4.99212e-06
3.26167e-09
4.98898e-06
1.15296e-08
4.99698e-06
2.29155e-08
5.01249e-06
2.81087e-08
5.02385e-06
2.18776e-08
5.02796e-06
8.37068e-09
5.02056e-06
-7.40238e-09
5.00332e-06
-1.98932e-08
4.98883e-06
-2.35598e-08
4.98369e-06
-2.00193e-08
4.98549e-06
-1.41129e-08
4.98988e-06
-8.76642e-09
4.99398e-06
-4.97719e-09
4.99666e-06
-2.72911e-09
-1.29277e-09
5.00001e-06
-1.7288e-10
5.00001e-06
-4.29193e-10
5.00003e-06
-5.31144e-10
4.99992e-06
-5.62627e-10
4.99911e-06
-4.15572e-10
4.99726e-06
8.94315e-10
4.99537e-06
4.10091e-09
4.99767e-06
9.88685e-09
5.00478e-06
1.44378e-08
5.01244e-06
1.39089e-08
5.0153e-06
7.35693e-09
5.01043e-06
-2.58937e-09
5.00079e-06
-1.05104e-08
4.99356e-06
-1.29803e-08
4.99145e-06
-1.10832e-08
4.99271e-06
-7.77132e-09
4.99501e-06
-4.84276e-09
4.99704e-06
-2.82928e-09
4.99833e-06
-1.66131e-09
-9.51223e-10
5.00001e-06
-1.28535e-10
5e-06
-3.42176e-10
4.99999e-06
-4.14588e-10
4.99996e-06
-4.23853e-10
4.99971e-06
-3.85463e-10
4.99905e-06
-3.31913e-11
4.99837e-06
1.25934e-09
4.99886e-06
3.44861e-09
5.00152e-06
5.85987e-09
5.00514e-06
6.4821e-09
5.0068e-06
4.07604e-09
5.00456e-06
-5.91259e-10
5.00027e-06
-4.47172e-09
4.99713e-06
-5.8541e-09
4.99624e-06
-5.14333e-09
4.9968e-06
-3.68845e-09
4.99779e-06
-2.37028e-09
4.99865e-06
-1.46856e-09
4.99917e-06
-9.62129e-10
-7.14778e-10
5.00002e-06
-7.60789e-11
5e-06
-2.35459e-10
4.99997e-06
-2.83389e-10
4.99994e-06
-2.79197e-10
4.99987e-06
-2.63206e-10
4.99965e-06
-1.72545e-10
4.99937e-06
3.05745e-10
4.9995e-06
1.11432e-09
5.00036e-06
1.9743e-09
5.00174e-06
2.43085e-09
5.00249e-06
1.71341e-09
5.00169e-06
-3.93023e-11
5.00009e-06
-1.61605e-09
4.99888e-06
-2.26289e-09
4.99851e-06
-2.07083e-09
4.9987e-06
-1.54295e-09
4.99905e-06
-1.04337e-09
4.99935e-06
-7.07787e-10
4.99949e-06
-5.37959e-10
-5.43287e-10
5.00003e-06
-2.80557e-11
5e-06
-1.23441e-10
4.99996e-06
-1.51551e-10
4.99992e-06
-1.43487e-10
4.99988e-06
-1.32077e-10
4.99981e-06
-1.07742e-10
4.9997e-06
6.47683e-13
4.99972e-06
2.63386e-10
4.99998e-06
5.85863e-10
5.00047e-06
7.95223e-10
5.00076e-06
6.01442e-10
5.00053e-06
1.21774e-11
4.99999e-06
-4.7792e-10
4.99957e-06
-7.16832e-10
4.99941e-06
-6.86489e-10
4.99945e-06
-5.34248e-10
4.99954e-06
-3.81943e-10
4.99958e-06
-2.87287e-10
4.99955e-06
-2.63097e-10
-3.90096e-10
5.00006e-06
5.00002e-06
4.99994e-06
4.99988e-06
4.99984e-06
4.9998e-06
4.99976e-06
4.99974e-06
4.99983e-06
5.00002e-06
5.00014e-06
5.00006e-06
4.99987e-06
4.9997e-06
4.99963e-06
4.99963e-06
4.99963e-06
4.99957e-06
4.99942e-06
)
;

boundaryField
{
    sides
    {
        type            calculated;
        value           uniform 0;
    }
    inlet
    {
        type            calculated;
        value           nonuniform List<scalar> 
20
(
-5e-06
-5e-06
-5e-06
-5e-06
-5e-06
-5e-06
-5e-06
-5e-06
-5e-06
-5e-06
-5e-06
-5e-06
-5e-06
-5e-06
-5e-06
-5e-06
-5e-06
-5e-06
-5e-06
-5e-06
)
;
    }
    outlet
    {
        type            calculated;
        value           nonuniform List<scalar> 
20
(
5.00085e-06
5.00035e-06
5.00007e-06
4.99962e-06
4.9989e-06
4.99767e-06
4.99573e-06
4.99316e-06
4.99059e-06
4.98864e-06
4.98867e-06
4.99053e-06
4.99312e-06
4.99568e-06
4.9976e-06
4.99877e-06
4.99933e-06
4.99951e-06
4.99948e-06
4.99908e-06
)
;
    }
    frontAndBack
    {
        type            empty;
        value           nonuniform List<scalar> 0();
    }
}


// ************************************************************************* //
