/*--------------------------------*- C++ -*----------------------------------*\
  =========                 |
  \\      /  F ield         | OpenFOAM: The Open Source CFD Toolbox
   \\    /   O peration     | Website:  https://openfoam.org
    \\  /    A nd           | Version:  9
     \\/     M anipulation  |
\*---------------------------------------------------------------------------*/
FoamFile
{
    format      ascii;
    class       volScalarField;
    location    "8";
    object      ddt0(h);
}
// * * * * * * * * * * * * * * * * * * * * * * * * * * * * * * * * * * * * * //

dimensions      [0 1 -1 0 0 0 0];

internalField   nonuniform List<scalar> 
400
(
-7.02262e-06
-3.32289e-06
-6.48619e-06
-1.22773e-05
-1.20345e-05
-4.91648e-06
1.01124e-05
2.98286e-05
3.0512e-05
1.06724e-05
-8.62061e-06
-1.55412e-05
-8.05462e-06
-1.81087e-06
1.39401e-06
1.13851e-05
1.90814e-05
1.56033e-05
5.96201e-06
2.98403e-07
-5.02753e-06
-2.06024e-06
-4.13684e-06
-1.05366e-05
-1.136e-05
-5.14648e-06
9.12086e-06
2.70712e-05
2.82963e-05
1.01155e-05
-7.55655e-06
-1.441e-05
-7.86882e-06
-1.6579e-06
9.30173e-07
9.2548e-06
1.56497e-05
1.20695e-05
5.53631e-06
7.36061e-07
-1.05077e-06
8.40995e-07
-3.8639e-07
-7.98654e-06
-1.00296e-05
-5.03871e-06
7.55903e-06
2.27201e-05
2.40241e-05
1.03499e-05
-7.14136e-06
-1.25988e-05
-5.7183e-06
-1.01374e-06
-2.73587e-07
3.3487e-06
7.27391e-06
7.46818e-06
4.24347e-06
1.28157e-06
3.68026e-06
3.41769e-06
1.42455e-06
-4.88521e-06
-8.64452e-06
-6.18051e-06
5.68584e-06
1.72405e-05
1.9799e-05
9.59171e-06
-6.02065e-06
-9.35256e-06
-3.64991e-06
-3.56607e-07
-1.01021e-06
-1.81283e-07
6.3807e-07
6.64263e-07
1.64761e-06
1.45346e-06
7.06855e-06
6.08867e-06
1.17754e-06
-2.55668e-06
-7.51183e-06
-7.66941e-06
3.90196e-06
1.27579e-05
1.46695e-05
7.13449e-06
-2.6831e-06
-5.53241e-06
-1.94926e-06
-1.57172e-07
-2.00834e-06
-9.77564e-06
-7.8078e-06
-3.07514e-06
1.28917e-06
2.15863e-06
7.56242e-06
5.91507e-06
7.21067e-07
-1.92763e-06
-6.57371e-06
-7.68167e-06
1.48586e-06
7.80376e-06
8.13527e-06
4.54864e-06
-1.50354e-06
-1.61335e-06
-7.93575e-07
-1.38552e-06
-5.11379e-06
-9.9925e-06
-1.17055e-05
-4.73486e-06
7.07694e-07
1.9369e-06
5.12199e-06
2.75329e-06
-1.70863e-06
-2.91061e-06
-5.55708e-06
-7.4858e-06
-1.91233e-06
1.74612e-06
1.78037e-06
2.16285e-06
3.58036e-06
3.94499e-06
1.36082e-06
-3.84243e-06
-7.12913e-06
-1.02951e-05
-9.46046e-06
-4.85938e-06
1.26652e-06
1.86679e-06
4.81595e-07
-1.22331e-06
-4.60834e-06
-4.58656e-06
-6.3957e-06
-8.33117e-06
-5.80773e-06
-4.81585e-06
-4.15929e-06
1.26896e-06
1.46614e-06
9.40569e-06
2.32269e-06
-7.1746e-06
-8.80968e-06
-6.92077e-06
-6.221e-06
-3.95411e-06
5.22993e-08
9.78491e-07
-4.18395e-06
-5.27063e-06
-7.15498e-06
-7.14155e-06
-7.9385e-06
-9.80536e-06
-9.67477e-06
-1.0855e-05
-9.97082e-06
-1.95239e-06
1.39736e-05
1.27744e-05
2.25821e-06
-1.04048e-05
-1.00974e-05
-3.98575e-06
-2.47573e-06
-3.88378e-06
-1.24167e-06
7.75191e-07
-7.58188e-06
-7.25539e-06
-8.46364e-06
-7.84789e-06
-8.80268e-06
-1.11538e-05
-1.18971e-05
-1.35692e-05
-1.27554e-05
-2.99887e-06
1.04035e-05
1.4812e-05
2.74177e-06
-1.15109e-05
-1.08597e-05
-2.20832e-06
9.40857e-08
-2.52722e-06
-1.72576e-06
1.01103e-06
-7.4984e-06
-7.38271e-06
-7.97381e-06
-7.90018e-06
-8.40927e-06
-1.09583e-05
-1.17793e-05
-1.33073e-05
-1.2401e-05
-2.80444e-06
1.06338e-05
1.45222e-05
2.49004e-06
-1.14511e-05
-1.06075e-05
-2.96945e-06
-3.83937e-07
-3.37332e-06
-2.90955e-06
-5.5471e-07
-4.35253e-06
-5.02286e-06
-7.30221e-06
-6.9437e-06
-8.01401e-06
-9.92028e-06
-9.59209e-06
-1.04169e-05
-9.42148e-06
-1.46388e-06
1.39691e-05
1.20815e-05
1.61689e-06
-1.05084e-05
-1.00345e-05
-4.79335e-06
-3.11636e-06
-3.91129e-06
-1.82408e-06
2.96006e-07
1.11256e-06
-1.57117e-06
-4.88307e-06
-5.29305e-06
-6.77675e-06
-8.60874e-06
-5.84722e-06
-4.81955e-06
-4.00396e-06
1.76828e-06
2.09712e-06
8.61324e-06
1.78568e-06
-7.3169e-06
-9.02017e-06
-8.18663e-06
-6.73205e-06
-5.07375e-06
-1.7042e-07
1.64145e-06
5.017e-06
2.02556e-06
-2.17903e-06
-3.21294e-06
-6.02331e-06
-7.54993e-06
-1.95224e-06
1.14511e-06
1.65481e-06
2.89727e-06
3.72229e-06
3.75231e-06
1.26132e-06
-4.45686e-06
-7.38042e-06
-1.02451e-05
-1.02616e-05
-5.60436e-06
5.23747e-07
1.99011e-06
6.77846e-06
4.83023e-06
1.19973e-07
-2.1503e-06
-6.6307e-06
-7.4275e-06
1.5304e-06
6.91838e-06
7.44153e-06
4.65133e-06
-6.14328e-07
-1.45974e-06
-4.50064e-07
-2.49509e-06
-5.13639e-06
-1.0652e-05
-1.00163e-05
-5.02571e-06
5.36408e-07
2.10541e-06
5.60725e-06
5.15626e-06
1.40307e-06
-2.49069e-06
-7.85998e-06
-7.7641e-06
3.63085e-06
1.23059e-05
1.33101e-05
6.81464e-06
-3.44582e-06
-5.29365e-06
-2.10605e-06
-3.23959e-07
-2.68565e-06
-6.49183e-06
-8.23815e-06
-2.36557e-06
1.88563e-06
2.5497e-06
2.52602e-06
3.29387e-06
9.22172e-07
-4.97352e-06
-9.24749e-06
-6.23013e-06
5.73993e-06
1.73138e-05
1.90142e-05
8.2359e-06
-6.62412e-06
-9.7356e-06
-4.00946e-06
2.59326e-07
-1.03507e-06
-2.78176e-06
1.52949e-06
2.5298e-06
3.01613e-06
1.55902e-06
-1.86318e-06
-2.11046e-07
-1.34341e-06
-9.32764e-06
-1.10334e-05
-6.45308e-06
7.00112e-06
2.22573e-05
2.41142e-05
9.00477e-06
-7.61636e-06
-1.26224e-05
-5.95765e-06
-7.13085e-07
3.51279e-07
3.40094e-06
7.3622e-06
7.67366e-06
4.66486e-06
8.29018e-07
-5.67881e-06
-2.5707e-06
-5.17434e-06
-1.16089e-05
-1.20635e-05
-6.45507e-06
8.17684e-06
2.69523e-05
2.8054e-05
1.09276e-05
-8.08757e-06
-1.47534e-05
-7.35333e-06
-1.1031e-06
1.78845e-06
8.30077e-06
1.36891e-05
1.11677e-05
4.7382e-06
2.62199e-07
-7.53224e-06
-4.38027e-06
-7.99003e-06
-1.38189e-05
-1.27833e-05
-5.54798e-06
9.13476e-06
2.93522e-05
3.05334e-05
1.08612e-05
-7.73698e-06
-1.50548e-05
-7.89976e-06
-1.8797e-06
1.50136e-06
1.28857e-05
2.01538e-05
1.50454e-05
5.17769e-06
4.15991e-07
)
;

boundaryField
{
    sides
    {
        type            calculated;
        value           nonuniform List<scalar> 
40
(
-7.53224e-06
-4.38027e-06
-7.99003e-06
-1.38189e-05
-1.27833e-05
-5.54798e-06
9.13476e-06
2.93522e-05
3.05334e-05
1.08612e-05
-7.73698e-06
-1.50548e-05
-7.89976e-06
-1.8797e-06
1.50136e-06
1.28857e-05
2.01538e-05
1.50454e-05
5.17769e-06
4.15991e-07
-7.02262e-06
-3.32289e-06
-6.48619e-06
-1.22773e-05
-1.20345e-05
-4.91648e-06
1.01124e-05
2.98286e-05
3.0512e-05
1.06724e-05
-8.62061e-06
-1.55412e-05
-8.05462e-06
-1.81087e-06
1.39401e-06
1.13851e-05
1.90814e-05
1.56033e-05
5.96201e-06
2.98403e-07
)
;
    }
    inlet
    {
        type            calculated;
        value           nonuniform List<scalar> 
20
(
-7.02262e-06
-5.02753e-06
-1.05077e-06
3.68026e-06
7.06855e-06
7.56242e-06
5.12199e-06
4.81595e-07
-4.18395e-06
-7.58188e-06
-7.4984e-06
-4.35253e-06
1.11256e-06
5.017e-06
6.77846e-06
5.60725e-06
2.52602e-06
-1.86318e-06
-5.67881e-06
-7.53224e-06
)
;
    }
    outlet
    {
        type            calculated;
        value           uniform 0;
    }
    frontAndBack
    {
        type            empty;
    }
}


// ************************************************************************* //
