/*--------------------------------*- C++ -*----------------------------------*\
  =========                 |
  \\      /  F ield         | OpenFOAM: The Open Source CFD Toolbox
   \\    /   O peration     | Website:  https://openfoam.org
    \\  /    A nd           | Version:  9
     \\/     M anipulation  |
\*---------------------------------------------------------------------------*/
FoamFile
{
    format      ascii;
    class       volScalarField;
    location    "8";
    object      h;
}
// * * * * * * * * * * * * * * * * * * * * * * * * * * * * * * * * * * * * * //

dimensions      [0 1 0 0 0 0 0];

internalField   nonuniform List<scalar> 
400
(
0.0100034
0.0100025
0.0100006
0.00999734
0.00999435
0.00999302
0.00999422
0.00999838
0.010002
0.0100018
0.00999875
0.00999563
0.00999507
0.0099964
0.00999834
0.0100014
0.0100045
0.0100057
0.0100041
0.0100014
0.0100028
0.0100021
0.0100007
0.00999784
0.00999501
0.0099936
0.00999453
0.00999821
0.0100015
0.0100014
0.00999851
0.00999559
0.00999512
0.00999657
0.00999856
0.0100013
0.0100038
0.0100047
0.0100034
0.0100011
0.0100019
0.0100017
0.0100009
0.00999866
0.00999617
0.00999453
0.00999501
0.00999794
0.0100007
0.0100008
0.00999811
0.00999561
0.00999551
0.00999716
0.00999912
0.0100011
0.0100026
0.0100031
0.0100022
0.0100008
0.0100009
0.0100013
0.010001
0.0099994
0.00999718
0.00999528
0.00999538
0.00999744
0.00999962
0.00999974
0.00999753
0.00999571
0.00999611
0.00999798
0.00999984
0.0100011
0.0100016
0.0100014
0.0100009
0.0100004
0.0100001
0.010001
0.0100008
0.00999973
0.00999771
0.00999564
0.00999545
0.0099968
0.00999826
0.00999828
0.00999678
0.00999577
0.00999675
0.00999901
0.010001
0.0100013
0.0100008
0.0100003
0.0100003
0.0100002
0.00999966
0.0100006
0.0100004
0.00999951
0.0099977
0.00999562
0.00999511
0.0099958
0.00999646
0.0099964
0.00999565
0.00999575
0.00999741
0.00999984
0.0100015
0.0100015
0.0100005
0.00999995
0.00999995
0.0100001
0.00999966
0.0100003
0.00999982
0.00999885
0.00999721
0.00999525
0.00999452
0.00999459
0.00999428
0.00999359
0.00999345
0.0099951
0.0099985
0.0100018
0.0100033
0.0100028
0.0100013
0.0100002
0.01
0.0100001
0.00999998
0.0100001
0.00999932
0.00999812
0.00999647
0.00999471
0.00999394
0.00999358
0.00999268
0.00999123
0.00998959
0.00999191
0.00999752
0.0100029
0.0100053
0.0100045
0.0100023
0.0100006
0.01
0.0100001
0.0100005
0.0100001
0.00999903
0.00999762
0.00999609
0.00999472
0.00999394
0.00999253
0.00998938
0.00998545
0.00998579
0.00999205
0.0100018
0.0100065
0.010006
0.0100039
0.010002
0.0100006
0.0100001
0.0100002
0.0100007
0.0100001
0.00999887
0.00999746
0.00999619
0.00999606
0.00999759
0.01
0.00999794
0.00897355
0.00895127
0.00997864
0.0100131
0.0100209
0.0100121
0.010004
0.010001
0.0100005
0.0100006
0.0100004
0.0100007
0.01
0.00999882
0.00999741
0.00999616
0.00999601
0.00999752
0.00999995
0.00999793
0.00897356
0.00895131
0.00997862
0.0100131
0.0100208
0.0100121
0.0100039
0.010001
0.0100005
0.0100005
0.0100003
0.0100003
0.00999988
0.0099988
0.0099974
0.00999587
0.00999448
0.00999368
0.0099923
0.00998922
0.00998535
0.00998573
0.00999194
0.0100017
0.0100064
0.010006
0.0100038
0.0100019
0.0100006
0.0100001
0.0100001
0.00999971
0.00999974
0.00999891
0.00999767
0.00999607
0.0099943
0.00999355
0.0099932
0.00999235
0.00999099
0.00998942
0.00999171
0.00999728
0.0100027
0.0100051
0.0100043
0.0100022
0.0100004
0.00999992
0.0100001
0.00999928
0.00999972
0.00999921
0.00999824
0.0099966
0.00999466
0.00999397
0.00999399
0.00999369
0.00999312
0.00999306
0.00999474
0.00999817
0.0100014
0.010003
0.0100025
0.0100009
0.00999994
0.00999988
0.0100001
0.00999912
0.00999986
0.0099996
0.00999874
0.00999695
0.00999491
0.00999443
0.00999506
0.00999568
0.0099957
0.00999508
0.00999523
0.00999699
0.00999934
0.0100011
0.0100011
0.0100003
0.00999977
0.0099999
0.0100001
0.00999938
0.0100001
0.00999991
0.00999887
0.00999682
0.00999476
0.00999459
0.00999594
0.00999731
0.00999738
0.00999594
0.00999505
0.00999608
0.00999838
0.0100003
0.010001
0.0100005
0.0100002
0.0100002
0.0100002
0.0100001
0.0100004
0.01
0.00999845
0.00999616
0.00999423
0.00999434
0.00999645
0.0099986
0.00999866
0.0099965
0.00999477
0.00999526
0.00999735
0.00999935
0.0100004
0.0100011
0.0100012
0.0100008
0.0100003
0.0100009
0.0100007
0.00999984
0.00999747
0.00999487
0.00999319
0.00999372
0.00999669
0.00999953
0.00999949
0.00999691
0.0099945
0.00999449
0.00999631
0.00999841
0.0100004
0.0100021
0.0100027
0.010002
0.0100006
0.0100017
0.0100011
0.0099995
0.00999648
0.00999365
0.00999209
0.009993
0.00999676
0.0100002
0.0100001
0.00999723
0.00999435
0.00999403
0.00999565
0.00999788
0.0100006
0.0100032
0.0100041
0.0100031
0.010001
0.0100022
0.0100012
0.00999916
0.00999573
0.00999275
0.00999136
0.00999247
0.00999666
0.0100004
0.0100003
0.00999738
0.00999429
0.00999375
0.00999512
0.00999722
0.0100006
0.010004
0.0100051
0.0100037
0.0100012
)
;

boundaryField
{
    sides
    {
        type            zeroGradient;
    }
    inlet
    {
        type            zeroGradient;
    }
    outlet
    {
        type            fixedValue;
        value           uniform 0.01;
    }
    frontAndBack
    {
        type            empty;
    }
}


// ************************************************************************* //
