/*--------------------------------*- C++ -*----------------------------------*\
  =========                 |
  \\      /  F ield         | OpenFOAM: The Open Source CFD Toolbox
   \\    /   O peration     | Website:  https://openfoam.org
    \\  /    A nd           | Version:  9
     \\/     M anipulation  |
\*---------------------------------------------------------------------------*/
FoamFile
{
    format      ascii;
    class       volScalarField;
    location    "8";
    object      h_0;
}
// * * * * * * * * * * * * * * * * * * * * * * * * * * * * * * * * * * * * * //

dimensions      [0 1 0 0 0 0 0];

internalField   nonuniform List<scalar> 
400
(
0.0100043
0.010003
0.0100015
0.00999843
0.00999522
0.00999318
0.00999285
0.00999543
0.00999947
0.0100011
0.00999956
0.00999676
0.00999556
0.00999651
0.00999808
0.0100003
0.010003
0.0100047
0.0100038
0.0100014
0.0100034
0.0100025
0.0100013
0.00999887
0.00999593
0.00999388
0.00999333
0.00999554
0.00999914
0.0100007
0.00999921
0.00999663
0.00999555
0.00999666
0.00999839
0.0100004
0.0100026
0.0100039
0.0100031
0.010001
0.010002
0.0100017
0.0100012
0.0099995
0.00999711
0.0099949
0.00999403
0.00999571
0.00999862
0.0100001
0.00999877
0.00999647
0.00999575
0.0099972
0.00999917
0.0100008
0.0100021
0.0100025
0.0100018
0.0100006
0.0100005
0.010001
0.010001
0.01
0.00999818
0.00999582
0.0099947
0.00999574
0.00999789
0.00999911
0.00999806
0.00999629
0.0099962
0.00999795
0.0100001
0.0100013
0.0100017
0.0100013
0.0100007
0.0100002
0.00999927
0.0100004
0.0100007
0.0100002
0.00999862
0.00999634
0.009995
0.00999559
0.00999699
0.00999781
0.00999704
0.00999602
0.00999673
0.00999903
0.0100014
0.0100024
0.0100014
0.0100004
0.01
0.00999995
0.00999873
0.01
0.0100004
0.00999987
0.00999854
0.00999635
0.00999489
0.00999508
0.00999578
0.0099961
0.00999571
0.00999572
0.00999738
0.0100001
0.0100022
0.0100026
0.0100016
0.0100003
0.00999983
0.00999991
0.00999898
0.01
0.01
0.00999923
0.00999789
0.00999588
0.00999459
0.00999445
0.00999416
0.00999339
0.00999313
0.00999464
0.00999843
0.0100023
0.0100042
0.0100039
0.0100022
0.0100006
0.00999994
0.00999997
0.00999982
0.0100003
0.00999984
0.00999859
0.00999706
0.00999532
0.00999433
0.009994
0.00999304
0.00999104
0.00998912
0.00999114
0.00999755
0.0100038
0.0100061
0.0100052
0.0100029
0.0100011
0.0100001
0.01
0.0100009
0.0100007
0.00999982
0.00999827
0.00999671
0.00999537
0.00999464
0.00999347
0.00999024
0.00998547
0.00998466
0.00999097
0.0100019
0.0100076
0.0100069
0.0100043
0.0100024
0.0100011
0.0100003
0.0100001
0.0100015
0.0100009
0.00999981
0.00999819
0.0099968
0.00999676
0.00999845
0.0100012
0.00999903
0.00897369
0.00895013
0.00997745
0.0100133
0.0100221
0.0100129
0.0100041
0.0100012
0.010001
0.0100008
0.0100004
0.0100014
0.0100008
0.00999972
0.00999816
0.00999676
0.0099967
0.00999837
0.0100011
0.00999899
0.00897368
0.00895017
0.00997746
0.0100132
0.010022
0.010013
0.0100041
0.0100013
0.010001
0.0100007
0.0100004
0.0100007
0.0100005
0.00999961
0.00999803
0.0099965
0.00999515
0.00999438
0.0099932
0.00999004
0.00998533
0.00998459
0.00999094
0.0100019
0.0100075
0.0100069
0.0100042
0.0100024
0.0100011
0.0100003
0.0100001
0.0099995
0.00999996
0.00999946
0.00999819
0.00999672
0.00999494
0.00999394
0.00999362
0.00999268
0.00999077
0.00998894
0.00999102
0.00999735
0.0100036
0.010006
0.0100051
0.0100028
0.0100009
0.0100001
0.01
0.00999863
0.00999956
0.00999947
0.00999864
0.00999732
0.00999529
0.00999403
0.00999391
0.00999356
0.00999286
0.00999273
0.00999431
0.00999815
0.010002
0.0100039
0.0100036
0.0100019
0.0100004
0.0099999
0.00999994
0.00999829
0.00999942
0.00999966
0.00999912
0.00999778
0.0099956
0.00999423
0.00999445
0.00999505
0.00999538
0.00999507
0.00999515
0.00999696
0.00999967
0.0100017
0.0100022
0.0100012
0.0100001
0.00999984
0.00999995
0.00999866
0.00999963
0.00999987
0.00999933
0.00999777
0.00999547
0.00999417
0.00999478
0.00999616
0.00999693
0.00999629
0.0099953
0.00999605
0.00999843
0.0100008
0.0100018
0.0100013
0.0100003
0.00999995
0.00999996
0.00999973
0.0100002
0.0100001
0.00999915
0.00999718
0.00999479
0.00999363
0.00999477
0.00999696
0.00999816
0.00999707
0.00999539
0.00999537
0.0099973
0.00999959
0.0100008
0.0100011
0.0100009
0.0100004
0.0100001
0.0100011
0.0100008
0.0100002
0.00999845
0.00999594
0.00999371
0.00999282
0.0099945
0.00999749
0.00999889
0.00999762
0.00999535
0.00999475
0.0099963
0.00999845
0.0100002
0.0100016
0.0100021
0.0100016
0.0100005
0.0100024
0.0100015
0.0100002
0.00999757
0.0099946
0.00999246
0.00999187
0.0099941
0.0099978
0.00999939
0.00999797
0.00999541
0.00999442
0.00999567
0.00999765
0.00999985
0.0100021
0.0100034
0.0100027
0.0100009
0.0100031
0.0100018
0.0100001
0.00999697
0.00999374
0.00999161
0.00999118
0.00999375
0.00999783
0.00999956
0.00999813
0.0099954
0.00999422
0.00999522
0.00999691
0.00999937
0.0100024
0.0100042
0.0100035
0.0100012
)
;

boundaryField
{
    sides
    {
        type            zeroGradient;
    }
    inlet
    {
        type            zeroGradient;
    }
    outlet
    {
        type            fixedValue;
        value           uniform 0.01;
    }
    frontAndBack
    {
        type            empty;
    }
}


// ************************************************************************* //
