/*--------------------------------*- C++ -*----------------------------------*\
  =========                 |
  \\      /  F ield         | OpenFOAM: The Open Source CFD Toolbox
   \\    /   O peration     | Website:  https://openfoam.org
    \\  /    A nd           | Version:  9
     \\/     M anipulation  |
\*---------------------------------------------------------------------------*/
FoamFile
{
    format      ascii;
    class       volVectorField;
    location    "8";
    object      hU;
}
// * * * * * * * * * * * * * * * * * * * * * * * * * * * * * * * * * * * * * //

dimensions      [0 2 -1 0 0 0 0];

internalField   nonuniform List<vector> 
400
(
(0.0010003 2.12798e-07 0)
(0.0010001 4.58352e-08 0)
(0.00100057 -1.73608e-07 0)
(0.0010015 -1.89893e-07 0)
(0.0010019 -1.45328e-07 0)
(0.00100213 -2.28578e-07 0)
(0.00100218 -4.08728e-07 0)
(0.00100188 -5.0105e-07 0)
(0.00100144 -4.06045e-07 0)
(0.00100116 -2.37345e-07 0)
(0.00100115 -1.09595e-07 0)
(0.00100131 -8.47664e-08 0)
(0.00100147 -1.17487e-07 0)
(0.00100159 -1.91078e-07 0)
(0.0010016 -2.79608e-07 0)
(0.00100152 -3.62119e-07 0)
(0.0010013 -3.78989e-07 0)
(0.00100116 -3.55199e-07 0)
(0.00100111 -2.81813e-07 0)
(0.00100106 -2.79583e-07 0)
(0.00100024 6.12991e-07 0)
(0.00100008 1.99268e-07 0)
(0.00100055 -3.68676e-07 0)
(0.00100143 -3.41583e-07 0)
(0.00100187 -1.39664e-07 0)
(0.00100215 -3.14717e-07 0)
(0.00100225 -7.79978e-07 0)
(0.00100199 -9.92688e-07 0)
(0.00100162 -7.0304e-07 0)
(0.00100137 -2.11786e-07 0)
(0.00100136 1.70553e-07 0)
(0.00100146 3.13443e-07 0)
(0.00100157 2.76762e-07 0)
(0.0010016 1.26298e-07 0)
(0.00100156 -7.88423e-08 0)
(0.00100145 -2.64215e-07 0)
(0.00100129 -2.87588e-07 0)
(0.00100114 -2.11291e-07 0)
(0.00100112 -7.73425e-08 0)
(0.00100096 -3.29809e-08 0)
(0.00100014 8.09801e-07 0)
(0.00100001 1.14568e-07 0)
(0.00100045 -7.58304e-07 0)
(0.00100122 -6.86776e-07 0)
(0.00100174 -3.65978e-07 0)
(0.00100214 -6.57247e-07 0)
(0.00100231 -1.4055e-06 0)
(0.00100213 -1.75423e-06 0)
(0.00100182 -1.3279e-06 0)
(0.00100164 -5.54455e-07 0)
(0.00100165 4.90714e-08 0)
(0.00100172 2.91665e-07 0)
(0.00100172 2.28759e-07 0)
(0.0010016 -1.47778e-08 0)
(0.00100147 -3.60717e-07 0)
(0.00100135 -6.60809e-07 0)
(0.00100122 -7.31804e-07 0)
(0.0010011 -5.98631e-07 0)
(0.00100103 -3.90608e-07 0)
(0.00100095 -2.16299e-07 0)
(0.00100001 7.86266e-07 0)
(0.000999938 -1.2098e-07 0)
(0.00100036 -1.15032e-06 0)
(0.001001 -9.85696e-07 0)
(0.00100158 -5.29541e-07 0)
(0.00100211 -8.98588e-07 0)
(0.00100239 -1.83134e-06 0)
(0.00100235 -2.27097e-06 0)
(0.00100221 -1.73156e-06 0)
(0.00100217 -6.88583e-07 0)
(0.0010022 2.30005e-07 0)
(0.00100219 6.84547e-07 0)
(0.00100201 7.2359e-07 0)
(0.00100165 4.764e-07 0)
(0.00100135 2.06239e-08 0)
(0.0010012 -4.73429e-07 0)
(0.00100121 -6.76563e-07 0)
(0.00100115 -6.39636e-07 0)
(0.00100117 -4.44819e-07 0)
(0.00100099 -1.87805e-07 0)
(0.0009999 5.40342e-07 0)
(0.000999881 -4.72427e-07 0)
(0.00100025 -1.54344e-06 0)
(0.00100076 -1.30565e-06 0)
(0.00100137 -7.685e-07 0)
(0.00100202 -1.22182e-06 0)
(0.00100245 -2.32041e-06 0)
(0.00100254 -2.85612e-06 0)
(0.00100262 -2.26322e-06 0)
(0.00100283 -1.02315e-06 0)
(0.00100303 1.05684e-07 0)
(0.00100293 7.66374e-07 0)
(0.00100248 9.56554e-07 0)
(0.00100174 7.74659e-07 0)
(0.00100111 3.56272e-07 0)
(0.00100084 -1.27531e-07 0)
(0.00100099 -4.1704e-07 0)
(0.00100105 -4.39382e-07 0)
(0.0010012 -2.12623e-07 0)
(0.00100112 8.41701e-08 0)
(0.000999842 1.61661e-07 0)
(0.000999874 -8.53206e-07 0)
(0.00100017 -1.83461e-06 0)
(0.00100052 -1.56978e-06 0)
(0.00100109 -1.05117e-06 0)
(0.00100183 -1.57973e-06 0)
(0.00100239 -2.85552e-06 0)
(0.00100274 -3.57434e-06 0)
(0.00100314 -2.99601e-06 0)
(0.00100364 -1.36774e-06 0)
(0.00100399 4.50603e-07 0)
(0.00100388 1.78448e-06 0)
(0.00100315 2.17173e-06 0)
(0.00100201 1.57918e-06 0)
(0.00100109 5.18087e-07 0)
(0.00100067 -3.79741e-07 0)
(0.00100093 -8.0894e-07 0)
(0.00100119 -8.03178e-07 0)
(0.00100154 -4.19799e-07 0)
(0.00100126 -4.16727e-08 0)
(0.000999838 -1.84592e-07 0)
(0.000999931 -1.11803e-06 0)
(0.00100012 -1.9388e-06 0)
(0.00100026 -1.73323e-06 0)
(0.00100073 -1.34214e-06 0)
(0.00100145 -2.01885e-06 0)
(0.00100205 -3.37976e-06 0)
(0.00100271 -4.42101e-06 0)
(0.00100385 -4.16792e-06 0)
(0.00100525 -3.01078e-06 0)
(0.00100605 -3.35563e-07 0)
(0.00100547 2.76367e-06 0)
(0.0010035 4.55901e-06 0)
(0.00100118 4.1007e-06 0)
(0.000999876 2.28891e-06 0)
(0.000999877 5.73327e-07 0)
(0.00100075 -2.14957e-07 0)
(0.00100136 -2.87226e-07 0)
(0.00100194 2.70255e-07 0)
(0.00100146 5.73115e-07 0)
(0.000999875 -3.83137e-07 0)
(0.00100001 -1.11701e-06 0)
(0.00100007 -1.78391e-06 0)
(0.000999989 -1.69919e-06 0)
(0.00100022 -1.6496e-06 0)
(0.00100087 -2.50329e-06 0)
(0.00100141 -4.2297e-06 0)
(0.00100224 -5.31613e-06 0)
(0.00100366 -5.18328e-06 0)
(0.00100654 -2.61666e-06 0)
(0.00100947 1.13336e-06 0)
(0.00100933 4.4799e-06 0)
(0.00100561 4.51109e-06 0)
(0.00100093 2.31267e-06 0)
(0.000998491 2.85268e-07 0)
(0.000998755 -6.64524e-07 0)
(0.00100045 -7.29664e-07 0)
(0.00100176 -4.17431e-07 0)
(0.00100252 6.24521e-08 0)
(0.00100163 1.10165e-07 0)
(0.000999935 -3.39866e-07 0)
(0.00100008 -8.53177e-07 0)
(0.000999971 -1.2582e-06 0)
(0.000999589 -1.29168e-06 0)
(0.000999501 -1.49197e-06 0)
(0.000999786 -2.66429e-06 0)
(0.00100037 -5.21995e-06 0)
(0.00100198 -8.85577e-06 0)
(0.00100559 -1.39033e-05 0)
(0.00101032 -1.4951e-05 0)
(0.00101234 4.2217e-06 0)
(0.00100906 1.887e-05 0)
(0.00100231 1.55517e-05 0)
(0.000997832 5.4974e-06 0)
(0.00099723 -4.15809e-07 0)
(0.000998858 -1.46682e-06 0)
(0.00100086 -7.13581e-07 0)
(0.00100199 1.67395e-07 0)
(0.00100226 8.47038e-07 0)
(0.00100122 4.14795e-07 0)
(0.000999791 -1.34005e-07 0)
(0.00100042 -3.36511e-07 0)
(0.000999445 -5.20188e-07 0)
(0.000999962 -5.23246e-07 0)
(0.000997731 -7.57956e-07 0)
(0.000999325 -1.28644e-06 0)
(0.000993954 -3.07317e-06 0)
(0.000998127 -5.82076e-06 0)
(0.000992244 -1.17313e-05 0)
(0.000916259 -1.27056e-05 0)
(0.000952032 4.40663e-07 0)
(0.00101061 1.46397e-05 0)
(0.000990909 1.29451e-05 0)
(0.000984032 5.19087e-06 0)
(0.00099015 2.63787e-07 0)
(0.000997163 -9.47316e-07 0)
(0.000999897 -6.80054e-07 0)
(0.00099966 1.25547e-09 0)
(0.000999511 6.62337e-07 0)
(0.000999615 3.384e-08 0)
(0.00099979 1.34756e-07 0)
(0.00100043 2.47599e-07 0)
(0.000999447 3.06628e-07 0)
(0.000999956 2.02358e-07 0)
(0.000997734 3.73943e-07 0)
(0.000999329 9.01367e-07 0)
(0.000993956 2.73437e-06 0)
(0.000998129 5.56436e-06 0)
(0.000992243 1.15696e-05 0)
(0.000916255 1.26063e-05 0)
(0.000952019 -5.39031e-07 0)
(0.00101058 -1.48105e-05 0)
(0.000990893 -1.32243e-05 0)
(0.000984028 -5.61069e-06 0)
(0.000990118 -8.36308e-07 0)
(0.000997119 2.59271e-07 0)
(0.000999862 -7.11145e-08 0)
(0.000999618 -8.90275e-07 0)
(0.000999493 -1.59579e-06 0)
(0.000999582 -1.14172e-06 0)
(0.000999929 3.33495e-07 0)
(0.00100009 7.54998e-07 0)
(0.001 1.04296e-06 0)
(0.000999614 9.81179e-07 0)
(0.000999517 1.12274e-06 0)
(0.000999806 2.28875e-06 0)
(0.00100038 4.87738e-06 0)
(0.00100198 8.57232e-06 0)
(0.00100557 1.37076e-05 0)
(0.0010103 1.48199e-05 0)
(0.00101232 -4.32788e-06 0)
(0.00100904 -1.9038e-05 0)
(0.00100227 -1.58009e-05 0)
(0.000997753 -5.88938e-06 0)
(0.000997188 -6.94603e-08 0)
(0.000998829 8.57389e-07 0)
(0.00100078 -6.99137e-09 0)
(0.00100187 -1.00217e-06 0)
(0.00100211 -1.7092e-06 0)
(0.00100108 -1.47781e-06 0)
(0.00099987 3.59622e-07 0)
(0.00100002 1.01211e-06 0)
(0.00100011 1.57631e-06 0)
(0.00100001 1.39344e-06 0)
(0.00100024 1.28081e-06 0)
(0.00100088 2.11741e-06 0)
(0.0010014 3.85625e-06 0)
(0.00100221 5.00195e-06 0)
(0.00100362 4.96924e-06 0)
(0.00100649 2.48991e-06 0)
(0.00100939 -1.22098e-06 0)
(0.00100924 -4.60492e-06 0)
(0.00100554 -4.72446e-06 0)
(0.00100087 -2.6357e-06 0)
(0.000998409 -6.98753e-07 0)
(0.00099858 8.92127e-08 0)
(0.00100027 7.46992e-08 0)
(0.00100156 -3.75547e-07 0)
(0.00100231 -8.73969e-07 0)
(0.00100138 -1.10353e-06 0)
(0.000999838 1.44638e-07 0)
(0.000999962 1.00412e-06 0)
(0.00100018 1.73943e-06 0)
(0.00100029 1.45115e-06 0)
(0.00100074 1.01009e-06 0)
(0.00100144 1.67134e-06 0)
(0.00100203 3.05542e-06 0)
(0.00100268 4.15025e-06 0)
(0.00100381 3.97942e-06 0)
(0.0010052 2.89509e-06 0)
(0.001006 2.6487e-07 0)
(0.00100541 -2.85302e-06 0)
(0.00100345 -4.74327e-06 0)
(0.00100108 -4.42727e-06 0)
(0.000999747 -2.75636e-06 0)
(0.000999707 -1.1671e-06 0)
(0.00100053 -3.85948e-07 0)
(0.00100107 -4.53286e-07 0)
(0.00100165 -1.06004e-06 0)
(0.00100107 -1.56543e-06 0)
(0.000999841 -1.93183e-07 0)
(0.000999925 7.52932e-07 0)
(0.00100024 1.64555e-06 0)
(0.00100057 1.29743e-06 0)
(0.00100111 7.34751e-07 0)
(0.00100182 1.25533e-06 0)
(0.00100236 2.55914e-06 0)
(0.00100268 3.32619e-06 0)
(0.00100308 2.80703e-06 0)
(0.00100356 1.246e-06 0)
(0.0010039 -5.30004e-07 0)
(0.00100376 -1.87254e-06 0)
(0.00100302 -2.32849e-06 0)
(0.00100185 -1.84984e-06 0)
(0.0010009 -8.60373e-07 0)
(0.00100046 -5.35331e-08 0)
(0.00100069 2.87724e-07 0)
(0.00100082 1.75434e-07 0)
(0.00100115 -2.27292e-07 0)
(0.00100078 -8.25874e-07 0)
(0.000999895 -5.52129e-07 0)
(0.000999937 3.88345e-07 0)
(0.00100033 1.37402e-06 0)
(0.00100082 1.05867e-06 0)
(0.00100138 4.76388e-07 0)
(0.00100201 9.27842e-07 0)
(0.00100241 2.06646e-06 0)
(0.00100249 2.6475e-06 0)
(0.00100255 2.09597e-06 0)
(0.00100277 8.93048e-07 0)
(0.00100297 -2.13797e-07 0)
(0.00100286 -8.84197e-07 0)
(0.00100238 -1.11264e-06 0)
(0.00100162 -1.01453e-06 0)
(0.00100096 -6.89029e-07 0)
(0.00100061 -3.15155e-07 0)
(0.00100067 -1.09268e-07 0)
(0.00100065 -2.12651e-07 0)
(0.00100075 -4.64438e-07 0)
(0.00100047 -9.87671e-07 0)
(0.000999995 -7.96052e-07 0)
(0.000999988 4.13008e-08 0)
(0.00100044 1.00442e-06 0)
(0.00100106 7.77993e-07 0)
(0.00100161 2.90744e-07 0)
(0.00100211 6.67229e-07 0)
(0.00100236 1.64944e-06 0)
(0.00100227 2.15347e-06 0)
(0.0010021 1.67689e-06 0)
(0.00100205 6.93051e-07 0)
(0.00100208 -1.82559e-07 0)
(0.00100207 -6.46314e-07 0)
(0.00100188 -7.22977e-07 0)
(0.00100147 -5.54674e-07 0)
(0.00100111 -1.97564e-07 0)
(0.00100087 1.79932e-07 0)
(0.00100083 3.54806e-07 0)
(0.00100064 2.11566e-07 0)
(0.00100058 4.95151e-09 0)
(0.00100021 -4.58439e-07 0)
(0.00100012 -8.22911e-07 0)
(0.00100005 -1.84354e-07 0)
(0.00100054 6.20808e-07 0)
(0.00100129 4.93536e-07 0)
(0.00100177 1.32652e-07 0)
(0.00100215 4.05096e-07 0)
(0.00100231 1.16951e-06 0)
(0.0010021 1.56149e-06 0)
(0.00100178 1.16906e-06 0)
(0.00100159 4.11304e-07 0)
(0.0010016 -1.96082e-07 0)
(0.00100164 -4.62754e-07 0)
(0.0010016 -4.41624e-07 0)
(0.00100143 -2.72012e-07 0)
(0.00100125 1.86633e-09 0)
(0.00100102 2.12775e-07 0)
(0.00100084 2.22577e-07 0)
(0.00100055 -8.36398e-09 0)
(0.00100042 -2.28599e-07 0)
(0.00100002 -5.74737e-07 0)
(0.00100022 -6.11209e-07 0)
(0.0010001 -2.09016e-07 0)
(0.00100061 3.48797e-07 0)
(0.00100146 3.29041e-07 0)
(0.00100186 1.28872e-07 0)
(0.00100213 3.33249e-07 0)
(0.00100221 8.30196e-07 0)
(0.00100191 1.08637e-06 0)
(0.00100148 8.50776e-07 0)
(0.00100122 3.92747e-07 0)
(0.0010012 3.32829e-08 0)
(0.00100132 -1.07395e-07 0)
(0.00100142 -6.62683e-08 0)
(0.00100137 6.55704e-08 0)
(0.00100127 2.69978e-07 0)
(0.00100105 3.97324e-07 0)
(0.0010008 3.86993e-07 0)
(0.00100048 1.91082e-07 0)
(0.0010004 4.98993e-08 0)
(0.000999985 -1.78321e-07 0)
(0.00100028 -2.43916e-07 0)
(0.00100014 -1.34736e-07 0)
(0.00100067 3.82021e-08 0)
(0.00100159 2.01501e-08 0)
(0.00100197 -6.08882e-08 0)
(0.00100216 3.98015e-09 0)
(0.00100218 1.48718e-07 0)
(0.00100185 2.145e-07 0)
(0.00100139 1.22518e-07 0)
(0.0010011 -3.57162e-08 0)
(0.00100109 -1.5391e-07 0)
(0.00100121 -2.09677e-07 0)
(0.00100136 -2.1609e-07 0)
(0.0010014 -1.88254e-07 0)
(0.00100135 -1.06544e-07 0)
(0.00100111 -5.83572e-08 0)
(0.00100082 -5.59441e-08 0)
(0.00100043 -1.46183e-07 0)
(0.00100037 -1.89826e-07 0)
(0.000999873 -3.11556e-07 0)
)
;

boundaryField
{
    sides
    {
        type            slip;
    }
    inlet
    {
        type            fixedValue;
        value           uniform (0.001 0 0);
    }
    outlet
    {
        type            zeroGradient;
    }
    frontAndBack
    {
        type            empty;
    }
}


// ************************************************************************* //
