/*--------------------------------*- C++ -*----------------------------------*\
  =========                 |
  \\      /  F ield         | OpenFOAM: The Open Source CFD Toolbox
   \\    /   O peration     | Website:  https://openfoam.org
    \\  /    A nd           | Version:  9
     \\/     M anipulation  |
\*---------------------------------------------------------------------------*/
FoamFile
{
    format      ascii;
    class       surfaceScalarField;
    location    "8";
    object      phi;
}
// * * * * * * * * * * * * * * * * * * * * * * * * * * * * * * * * * * * * * //

dimensions      [0 4 -1 0 0 0 0];

internalField   nonuniform List<scalar> 
760
(
5.00034e-06
2.28942e-09
5.00134e-06
6.58284e-10
5.00506e-06
-1.1741e-09
5.00892e-06
-1.41635e-09
5.0111e-06
-7.54118e-10
5.01227e-06
-1.50874e-09
5.01105e-06
-3.02067e-09
5.00749e-06
-3.73114e-09
5.00493e-06
-2.69909e-09
5.00483e-06
-9.90555e-10
5.00651e-06
2.1812e-10
5.00773e-06
6.57671e-10
5.00774e-06
5.19413e-10
5.00795e-06
-1.26242e-10
5.0079e-06
-8.58593e-10
5.00676e-06
-1.45973e-09
5.00535e-06
-1.48309e-09
5.00529e-06
-1.19977e-09
5.00582e-06
-6.84779e-10
-6.50228e-10
5.00031e-06
3.77627e-09
5.00132e-06
7.95401e-10
5.00467e-06
-2.71637e-09
5.00853e-06
-2.76244e-09
5.01103e-06
-1.43404e-09
5.01244e-06
-2.70565e-09
5.01151e-06
-5.73998e-09
5.00838e-06
-7.16085e-09
5.00601e-06
-5.29923e-09
5.006e-06
-2.06278e-09
5.00738e-06
4.82603e-10
5.00831e-06
1.45103e-09
5.00792e-06
1.20657e-09
5.00768e-06
1.79217e-10
5.00748e-06
-1.23709e-09
5.00664e-06
-2.49962e-09
5.00558e-06
-2.65677e-09
5.00549e-06
-1.90222e-09
5.00568e-06
-1.07294e-09
-6.18232e-10
5e-06
4.21874e-09
5.00092e-06
1.80595e-10
5.00384e-06
-4.53163e-09
5.00749e-06
-4.22954e-09
5.01061e-06
-2.38422e-09
5.01252e-06
-3.98713e-09
5.012e-06
-8.16737e-09
5.00947e-06
-1.00934e-08
5.00741e-06
-7.70972e-09
5.00754e-06
-3.14376e-09
5.00887e-06
6.59136e-10
5.00924e-06
2.33415e-09
5.00805e-06
2.22888e-09
5.00705e-06
1.13459e-09
5.00674e-06
-7.54183e-10
5.00625e-06
-2.53046e-09
5.0057e-06
-3.23535e-09
5.00552e-06
-2.77626e-09
5.00527e-06
-1.79825e-09
-8.90541e-10
4.9996e-06
3.51404e-09
5.00053e-06
-1.34151e-09
5.00297e-06
-6.62858e-09
5.00633e-06
-5.67752e-09
5.00999e-06
-3.21585e-09
5.01247e-06
-5.29734e-09
5.01272e-06
-1.03704e-08
5.01139e-06
-1.29621e-08
5.01014e-06
-1.02029e-08
5.01052e-06
-4.36277e-09
5.01151e-06
8.54718e-10
5.01083e-06
3.66321e-09
5.00838e-06
4.30027e-09
5.00635e-06
2.91688e-09
5.00591e-06
5.46689e-10
5.00611e-06
-1.96021e-09
5.0065e-06
-3.01283e-09
5.00641e-06
-2.89628e-09
5.00561e-06
-1.76211e-09
-2.66241e-10
4.99926e-06
1.77737e-09
5.00006e-06
-3.3421e-09
5.00199e-06
-8.4059e-09
5.00513e-06
-7.12301e-09
5.00907e-06
-4.50793e-09
5.01223e-06
-6.84215e-09
5.0132e-06
-1.25793e-08
5.01309e-06
-1.57491e-08
5.0135e-06
-1.33442e-08
5.01514e-06
-6.6063e-09
5.0156e-06
1.06198e-09
5.01344e-06
5.76465e-09
5.00884e-06
8.35384e-09
5.00487e-06
6.93951e-09
5.00377e-06
3.11082e-09
5.00565e-06
-8.62844e-10
5.00676e-06
-2.75269e-09
5.00665e-06
-2.98086e-09
5.00572e-06
-1.59044e-09
1.12265e-10
4.99921e-06
-1.69961e-10
4.99977e-06
-5.1399e-09
5.00125e-06
-9.57976e-09
5.00372e-06
-8.28611e-09
5.00761e-06
-5.8962e-09
5.01135e-06
-8.88213e-09
5.01346e-06
-1.5401e-08
5.01542e-06
-1.93434e-08
5.01748e-06
-1.67647e-08
5.02026e-06
-9.76693e-09
5.02111e-06
1.52365e-10
5.01639e-06
9.97393e-09
5.00956e-06
1.48359e-08
5.00476e-06
1.25415e-08
5.00399e-06
6.06707e-09
5.00556e-06
3.02598e-10
5.00792e-06
-2.85896e-09
5.00818e-06
-2.81903e-09
5.00659e-06
-4.12579e-10
1.2975e-09
4.99942e-06
-1.64444e-09
4.99977e-06
-5.89431e-09
5.00051e-06
-9.63109e-09
5.00206e-06
-8.67714e-09
5.0054e-06
-7.28799e-09
5.00856e-06
-1.07041e-08
5.01177e-06
-1.87298e-08
5.01758e-06
-2.5432e-08
5.02651e-06
-2.58388e-08
5.03293e-06
-1.66874e-08
5.02981e-06
2.56459e-09
5.01656e-06
2.19553e-08
5.00389e-06
2.75039e-08
4.99951e-06
1.85563e-08
5.00229e-06
5.59042e-09
5.00602e-06
-6.57881e-10
5.0085e-06
-2.99519e-09
5.00843e-06
-1.99242e-09
5.00708e-06
9.5675e-10
1.76795e-09
4.99979e-06
-2.09278e-09
4.99986e-06
-5.29172e-09
4.99971e-06
-8.04082e-09
5.00011e-06
-7.87408e-09
5.00246e-06
-8.26771e-09
5.00493e-06
-1.21742e-08
5.00773e-06
-2.09865e-08
5.01321e-06
-3.00024e-08
5.02797e-06
-3.98592e-08
5.05845e-06
-4.77638e-08
5.05125e-06
7.86288e-09
5.02292e-06
4.87081e-08
4.99833e-06
5.27643e-08
4.99484e-06
2.44278e-08
5.002e-06
4.87764e-10
5.00717e-06
-4.13348e-09
5.00895e-06
-3.17176e-09
5.00874e-06
-5.02733e-10
5.00776e-06
2.4684e-09
1.40347e-09
5.00023e-06
-1.35434e-09
4.99988e-06
-3.16649e-09
4.99861e-06
-4.6369e-09
4.99707e-06
-4.8567e-09
4.99631e-06
-6.35061e-09
4.99691e-06
-1.18966e-08
5.00251e-06
-2.54366e-08
5.02049e-06
-4.59316e-08
5.05982e-06
-7.7352e-08
5.07042e-06
-5.86769e-08
5.05051e-06
2.55757e-08
4.99568e-06
1.01295e-07
4.98953e-06
6.0025e-08
4.99791e-06
1.90301e-08
5.0024e-06
-2.18164e-09
5.00559e-06
-6.61021e-09
5.00646e-06
-2.80301e-09
5.00686e-06
6.92217e-10
5.00673e-06
3.217e-09
9.52473e-10
5.00072e-06
7.42238e-12
5.0002e-06
-2.05023e-10
4.99865e-06
-5.3865e-10
4.99634e-06
-8.40276e-10
4.99192e-06
-1.00546e-09
4.98185e-06
-1.01226e-09
4.95872e-06
-8.97393e-10
4.91596e-06
-6.86604e-10
4.84137e-06
-4.52845e-10
4.78296e-06
-2.94324e-10
4.80582e-06
-3.16203e-10
4.90528e-06
-4.84799e-10
4.96723e-06
-6.46834e-10
4.99047e-06
-9.59084e-10
4.99142e-06
-1.45114e-09
4.98678e-06
-1.77013e-09
4.98681e-06
-1.85626e-09
4.99137e-06
-2.21853e-09
4.99745e-06
-2.27e-09
-2.72197e-09
5.00074e-06
1.32057e-09
5.00021e-06
2.67972e-09
4.99861e-06
3.51731e-09
4.99636e-06
3.22946e-09
4.99193e-06
4.38463e-09
4.98187e-06
9.85951e-09
4.95874e-06
2.36176e-08
4.91596e-06
4.44934e-08
4.84136e-06
7.64264e-08
4.78285e-06
5.81563e-08
4.80576e-06
-2.62242e-08
4.90523e-06
-1.02195e-07
4.96719e-06
-6.12736e-08
4.99021e-06
-2.07598e-08
4.9914e-06
-8.40636e-10
4.98655e-06
3.32073e-09
4.98656e-06
-6.13767e-10
4.99133e-06
-5.26897e-09
4.99732e-06
-7.54235e-09
-6.15286e-09
5.00029e-06
2.021e-09
4.99998e-06
4.76505e-09
4.99875e-06
6.93477e-09
4.99716e-06
6.25224e-09
4.99641e-06
6.33801e-09
4.99699e-06
1.02337e-08
5.00254e-06
1.92284e-08
5.02039e-06
2.85691e-08
5.05971e-06
3.88909e-08
5.07045e-06
4.70062e-08
5.05027e-06
-8.33233e-09
4.99544e-06
-4.94005e-08
4.98923e-06
-5.38378e-08
4.99779e-06
-2.63144e-08
5.00239e-06
-3.58062e-09
5.00503e-06
1.62172e-09
5.00599e-06
-5.46008e-11
5.00619e-06
-3.76159e-09
5.00601e-06
-6.61207e-09
-6.5291e-09
4.99984e-06
1.43768e-09
4.99999e-06
5.33414e-09
4.99987e-06
8.56325e-09
5.00019e-06
7.18198e-09
5.00254e-06
5.56414e-09
5.00492e-06
8.9342e-09
5.00762e-06
1.70654e-08
5.01307e-06
2.40126e-08
5.02776e-06
2.48847e-08
5.05797e-06
1.61159e-08
5.05083e-06
-2.97992e-09
5.0226e-06
-2.2504e-08
4.99814e-06
-2.86129e-08
4.99461e-06
-2.03405e-08
5.00087e-06
-7.56951e-09
5.00637e-06
-1.86978e-09
5.00826e-06
-3.40561e-10
5.00757e-06
-1.74173e-09
5.00666e-06
-5.12854e-09
-6.75805e-09
4.99956e-06
-4.52483e-11
5.00001e-06
4.60199e-09
5.0007e-06
8.63148e-09
5.00217e-06
6.89332e-09
5.00546e-06
4.30656e-09
5.00846e-06
7.21428e-09
5.01158e-06
1.38121e-08
5.01746e-06
1.79865e-08
5.02633e-06
1.5774e-08
5.03268e-06
9.17106e-09
5.02954e-06
-5.92422e-10
5.01625e-06
-1.03875e-08
5.00348e-06
-1.56807e-08
4.99883e-06
-1.39975e-08
5.00164e-06
-8.02464e-09
5.00519e-06
-2.5924e-09
5.00707e-06
-1.25582e-10
5.00696e-06
-6.1739e-10
5.00542e-06
-3.34752e-09
-6.0272e-09
4.99943e-06
-1.88934e-09
5.00013e-06
2.87916e-09
5.00149e-06
7.57236e-09
5.00387e-06
5.84444e-09
5.00768e-06
2.9613e-09
5.01122e-06
5.27532e-09
5.01319e-06
1.12113e-08
5.01516e-06
1.46486e-08
5.01715e-06
1.24867e-08
5.01986e-06
5.97371e-09
5.02058e-06
-1.50957e-09
5.01573e-06
-6.23242e-09
5.00881e-06
-9.00231e-09
5.00397e-06
-8.17939e-09
5.00286e-06
-4.81136e-09
5.00468e-06
-1.48183e-09
5.00631e-06
2.50905e-10
5.00615e-06
-1.12241e-10
5.00442e-06
-1.77197e-09
-4.57471e-09
4.99953e-06
-3.54996e-09
5.00039e-06
9.39477e-10
5.00234e-06
5.73706e-09
5.00532e-06
4.49188e-09
5.00914e-06
1.87426e-09
5.01211e-06
3.94446e-09
5.01289e-06
9.25686e-09
5.01279e-06
1.20291e-08
5.01329e-06
9.49333e-09
5.01483e-06
3.83611e-09
5.01524e-06
-1.01823e-09
5.013e-06
-3.99106e-09
5.00826e-06
-4.85732e-09
5.00434e-06
-4.08177e-09
5.00294e-06
-1.96604e-09
5.00395e-06
-1.95999e-10
5.00504e-06
9.36178e-10
5.00459e-06
1.60054e-10
5.003e-06
-9.94966e-10
-3.51566e-09
4.99982e-06
-4.3347e-09
5.00084e-06
-5.11464e-10
5.00323e-06
3.88857e-09
5.00663e-06
3.2847e-09
5.01012e-06
1.14466e-09
5.01244e-06
2.87784e-09
5.01242e-06
7.20871e-09
5.01089e-06
9.46326e-09
5.00956e-06
7.31337e-09
5.00993e-06
2.95722e-09
5.01098e-06
-8.55987e-10
5.01027e-06
-2.56781e-09
5.00766e-06
-2.64472e-09
5.00517e-06
-1.80161e-09
5.00442e-06
-2.89478e-10
5.00453e-06
8.22123e-10
5.00422e-06
1.241e-09
5.00362e-06
2.02368e-10
5.00215e-06
-6.45174e-10
-2.67586e-09
5.00015e-06
-3.82232e-09
5.00122e-06
-1.03354e-09
5.00414e-06
2.23747e-09
5.0078e-06
2.17539e-09
5.01075e-06
8.00473e-10
5.01254e-06
2.06215e-09
5.01193e-06
5.11776e-09
5.00926e-06
6.75142e-09
5.0072e-06
5.0969e-09
5.00732e-06
1.9728e-09
5.00855e-06
-4.32484e-10
5.00872e-06
-1.52991e-09
5.00737e-06
-1.42247e-09
5.00606e-06
-6.88073e-10
5.00539e-06
6.14813e-10
5.00445e-06
1.30798e-09
5.00345e-06
1.32093e-09
5.00254e-06
2.04528e-10
5.00149e-06
-4.87404e-10
-1.97099e-09
5.00033e-06
-2.21526e-09
5.00144e-06
-8.59536e-10
5.00489e-06
1.00719e-09
5.00865e-06
9.59006e-10
5.01098e-06
3.01487e-10
5.01236e-06
1.00751e-09
5.01118e-06
2.76282e-09
5.00781e-06
3.55979e-09
5.00531e-06
2.66857e-09
5.00519e-06
1.03122e-09
5.00672e-06
-2.70724e-10
5.00761e-06
-7.19866e-10
5.007e-06
-6.21123e-10
5.00633e-06
-1.72799e-10
5.00579e-06
5.16067e-10
5.00433e-06
1.08605e-09
5.00275e-06
9.38024e-10
5.00194e-06
9.12441e-11
5.00142e-06
-4.36548e-10
-1.23002e-09
5.00052e-06
5.00163e-06
5.00552e-06
5.00927e-06
5.01142e-06
5.01233e-06
5.011e-06
5.00734e-06
5.00467e-06
5.00452e-06
5.00608e-06
5.00721e-06
5.00703e-06
5.00691e-06
5.00629e-06
5.00441e-06
5.00247e-06
5.00154e-06
5.00127e-06
)
;

boundaryField
{
    sides
    {
        type            calculated;
        value           uniform 0;
    }
    inlet
    {
        type            calculated;
        value           nonuniform List<scalar> 
20
(
-5e-06
-5e-06
-5e-06
-5e-06
-5e-06
-5e-06
-5e-06
-5e-06
-5e-06
-5e-06
-5e-06
-5e-06
-5e-06
-5e-06
-5e-06
-5e-06
-5e-06
-5e-06
-5e-06
-5e-06
)
;
    }
    outlet
    {
        type            calculated;
        value           nonuniform List<scalar> 
20
(
5.00641e-06
5.00537e-06
5.00506e-06
5.00457e-06
5.00482e-06
5.00517e-06
5.00654e-06
5.0082e-06
5.00714e-06
5.00095e-06
5.00073e-06
5.00651e-06
5.00692e-06
5.00461e-06
5.00284e-06
5.00149e-06
5.0007e-06
5.00026e-06
5.00048e-06
5e-06
)
;
    }
    frontAndBack
    {
        type            empty;
        value           nonuniform List<scalar> 0();
    }
}


// ************************************************************************* //
