/*--------------------------------*- C++ -*----------------------------------*\
  =========                 |
  \\      /  F ield         | OpenFOAM: The Open Source CFD Toolbox
   \\    /   O peration     | Website:  https://openfoam.org
    \\  /    A nd           | Version:  9
     \\/     M anipulation  |
\*---------------------------------------------------------------------------*/
FoamFile
{
    format      ascii;
    class       volVectorField;
    location    "8";
    object      U;
}
// * * * * * * * * * * * * * * * * * * * * * * * * * * * * * * * * * * * * * //

dimensions      [0 1 -1 0 0 0 0];

internalField   nonuniform List<vector> 
400
(
(0.0999961 2.12726e-05 0)
(0.0999849 4.58237e-06 0)
(0.100051 -1.73597e-05 0)
(0.100177 -1.89944e-05 0)
(0.100247 -1.4541e-05 0)
(0.100283 -2.28738e-05 0)
(0.100276 -4.08965e-05 0)
(0.100204 -5.01131e-05 0)
(0.100123 -4.05963e-05 0)
(0.100098 -2.37301e-05 0)
(0.100128 -1.09609e-05 0)
(0.100174 -8.48035e-06 0)
(0.100197 -1.17545e-05 0)
(0.100195 -1.91147e-05 0)
(0.100177 -2.79655e-05 0)
(0.100138 -3.62068e-05 0)
(0.100085 -3.78817e-05 0)
(0.100059 -3.54997e-05 0)
(0.10007 -2.81696e-05 0)
(0.100092 -2.79544e-05 0)
(0.0999965 6.12823e-05 0)
(0.0999865 1.99225e-05 0)
(0.100048 -3.6865e-05 0)
(0.100165 -3.41657e-05 0)
(0.100237 -1.39733e-05 0)
(0.100279 -3.14919e-05 0)
(0.100279 -7.80405e-05 0)
(0.100217 -9.92866e-05 0)
(0.100146 -7.02933e-05 0)
(0.100123 -2.11756e-05 0)
(0.100151 1.70579e-05 0)
(0.100191 3.13582e-05 0)
(0.100206 2.76898e-05 0)
(0.100194 1.26342e-05 0)
(0.100171 -7.88537e-06 0)
(0.100133 -2.64182e-05 0)
(0.100091 -2.87478e-05 0)
(0.100067 -2.11192e-05 0)
(0.100079 -7.73163e-06 0)
(0.100085 -3.29772e-06 0)
(0.0999951 8.0965e-05 0)
(0.0999839 1.14549e-05 0)
(0.100036 -7.58233e-05 0)
(0.100136 -6.86868e-05 0)
(0.100213 -3.66118e-05 0)
(0.100269 -6.57607e-05 0)
(0.100281 -0.000140621 0)
(0.100234 -0.000175459 0)
(0.100175 -0.00013278 0)
(0.100157 -5.54413e-05 0)
(0.100184 4.90807e-06 0)
(0.100216 2.91794e-05 0)
(0.100217 2.28862e-05 0)
(0.100188 -1.4782e-06 0)
(0.100156 -3.60749e-05 0)
(0.100124 -6.60738e-05 0)
(0.100096 -7.31611e-05 0)
(0.100079 -5.98448e-05 0)
(0.100081 -3.90522e-05 0)
(0.100087 -2.16282e-05 0)
(0.099992 7.86193e-05 0)
(0.0999808 -1.20965e-05 0)
(0.100026 -0.000115021 0)
(0.100106 -9.85755e-05 0)
(0.100186 -5.29691e-05 0)
(0.100258 -8.99012e-05 0)
(0.100286 -0.000183219 0)
(0.10026 -0.000227155 0)
(0.100225 -0.000173163 0)
(0.10022 -6.88601e-05 0)
(0.100245 2.30062e-05 0)
(0.100262 6.8484e-05 0)
(0.10024 7.23872e-05 0)
(0.100185 4.76497e-05 0)
(0.100136 2.06242e-06 0)
(0.100109 -4.73378e-05 0)
(0.100106 -6.76457e-05 0)
(0.100101 -6.39548e-05 0)
(0.100107 -4.44777e-05 0)
(0.100095 -1.87798e-05 0)
(0.0999888 5.40336e-05 0)
(0.0999786 -4.72382e-05 0)
(0.100017 -0.000154332 0)
(0.100079 -0.000130568 0)
(0.10016 -7.68676e-05 0)
(0.100246 -0.000122236 0)
(0.10029 -0.000232146 0)
(0.100287 -0.000285704 0)
(0.100279 -0.000226362 0)
(0.100301 -0.000102333 0)
(0.100335 1.05718e-05 0)
(0.100336 7.66698e-05 0)
(0.100281 9.56865e-05 0)
(0.100184 7.74735e-05 0)
(0.1001 3.56235e-05 0)
(0.100072 -1.27515e-05 0)
(0.100091 -4.17007e-05 0)
(0.100101 -4.39367e-05 0)
(0.100117 -2.12618e-05 0)
(0.10011 8.41687e-06 0)
(0.0999876 1.61666e-05 0)
(0.0999816 -8.53157e-05 0)
(0.100013 -0.000183453 0)
(0.100057 -0.000156985 0)
(0.100133 -0.000105141 0)
(0.100227 -0.000158042 0)
(0.100289 -0.000285692 0)
(0.100316 -0.000357584 0)
(0.10035 -0.000299707 0)
(0.1004 -0.000136823 0)
(0.100442 4.508e-05 0)
(0.10043 0.000178524 0)
(0.100341 0.000217229 0)
(0.100203 0.00015792 0)
(0.100094 5.1801e-05 0)
(0.100052 -3.79683e-05 0)
(0.100088 -8.08897e-05 0)
(0.10012 -8.03181e-05 0)
(0.100154 -4.19802e-05 0)
(0.100126 -4.16725e-06 0)
(0.0999873 -1.84598e-05 0)
(0.0999906 -0.0001118 0)
(0.100014 -0.000193884 0)
(0.100037 -0.000173343 0)
(0.100101 -0.000134252 0)
(0.100192 -0.000201981 0)
(0.10026 -0.000338161 0)
(0.100325 -0.00044234 0)
(0.100442 -0.000417031 0)
(0.100589 -0.000301271 0)
(0.100671 -3.35783e-05 0)
(0.100596 0.000276502 0)
(0.100366 0.00045597 0)
(0.1001 0.000409997 0)
(0.0999541 0.000228814 0)
(0.0999597 5.73166e-05 0)
(0.100062 -2.14929e-05 0)
(0.100134 -2.87221e-05 0)
(0.100194 2.70255e-05 0)
(0.100145 5.7311e-05 0)
(0.0999877 -3.83138e-05 0)
(0.0999999 -0.0001117 0)
(0.100014 -0.000178403 0)
(0.100018 -0.00016995 0)
(0.100057 -0.000165018 0)
(0.10014 -0.000250461 0)
(0.100202 -0.000423226 0)
(0.100288 -0.000531954 0)
(0.100439 -0.000518708 0)
(0.100743 -0.000261895 0)
(0.101052 0.000113455 0)
(0.101014 0.000448352 0)
(0.100586 0.000451221 0)
(0.100064 0.000231199 0)
(0.0997965 2.85118e-05 0)
(0.0998307 -6.64226e-05 0)
(0.100022 -7.29495e-05 0)
(0.10017 -4.17405e-05 0)
(0.100251 6.24518e-06 0)
(0.100162 1.10164e-05 0)
(0.0999888 -3.3985e-05 0)
(0.100007 -8.5317e-05 0)
(0.100007 -0.000125832 0)
(0.0999826 -0.000129199 0)
(0.0999892 -0.000149256 0)
(0.100031 -0.00026657 0)
(0.100098 -0.000522312 0)
(0.100273 -0.00088624 0)
(0.100666 -0.00139181 0)
(0.101179 -0.00149728 0)
(0.101378 0.000422771 0)
(0.100986 0.0018885 0)
(0.100213 0.00155489 0)
(0.0997189 0.000549386 0)
(0.099663 -4.15559e-05 0)
(0.0998464 -0.000146624 0)
(0.100066 -7.1344e-05 0)
(0.100193 1.67385e-05 0)
(0.100224 8.47025e-05 0)
(0.10012 4.14788e-05 0)
(0.0999718 -1.33996e-05 0)
(0.100042 -3.36508e-05 0)
(0.0999558 -5.20246e-05 0)
(0.100022 -5.23379e-05 0)
(0.0998112 -7.58245e-05 0)
(0.099972 -0.000128695 0)
(0.0994194 -0.000307391 0)
(0.0998127 -0.000582075 0)
(0.0992448 -0.00117337 0)
(0.102107 -0.0014159 0)
(0.106357 4.92292e-05 0)
(0.101277 0.0014671 0)
(0.098961 0.00129281 0)
(0.0981983 0.000518006 0)
(0.0988956 2.63469e-05 0)
(0.0996767 -9.4694e-05 0)
(0.0999795 -6.79985e-05 0)
(0.0999606 1.25541e-07 0)
(0.0999455 6.623e-05 0)
(0.0999571 3.38385e-06 0)
(0.0999724 1.34747e-05 0)
(0.100043 2.47599e-05 0)
(0.0999564 3.06664e-05 0)
(0.100022 2.0241e-05 0)
(0.0998117 3.74086e-05 0)
(0.0999728 9.01727e-05 0)
(0.0994202 0.000273505 0)
(0.0998134 0.000556439 0)
(0.0992449 0.0011572 0)
(0.102106 0.00140482 0)
(0.106355 -6.02181e-05 0)
(0.101274 -0.00148422 0)
(0.09896 -0.0013207 0)
(0.0981983 -0.000559904 0)
(0.0988923 -8.35299e-05 0)
(0.0996728 2.59169e-05 0)
(0.0999765 -7.11076e-06 0)
(0.0999571 -8.90232e-05 0)
(0.0999448 -0.000159572 0)
(0.0999548 -0.000114168 0)
(0.0999904 3.33487e-05 0)
(0.10001 7.55007e-05 0)
(0.100012 0.000104309 0)
(0.0999874 9.81434e-05 0)
(0.099993 0.00011232 0)
(0.100036 0.000229001 0)
(0.100101 0.000488046 0)
(0.100275 0.000857893 0)
(0.100665 0.00137224 0)
(0.101178 0.00148416 0)
(0.101377 -0.000433407 0)
(0.100985 -0.00190534 0)
(0.10021 -0.00157982 0)
(0.0997115 -0.000588562 0)
(0.0996592 -6.94188e-06 0)
(0.099845 8.57063e-05 0)
(0.100059 -6.99004e-07 0)
(0.100182 -0.000100211 0)
(0.10021 -0.000170919 0)
(0.100107 -0.000147779 0)
(0.0999898 3.59632e-05 0)
(0.100005 0.000101213 0)
(0.100021 0.000157648 0)
(0.100024 0.000139377 0)
(0.100063 0.000128131 0)
(0.100145 0.000211861 0)
(0.100204 0.000385873 0)
(0.100289 0.000500535 0)
(0.100439 0.000497304 0)
(0.10074 0.000249216 0)
(0.101045 -0.000122228 0)
(0.101008 -0.000460874 0)
(0.100581 -0.000472575 0)
(0.10006 -0.000263498 0)
(0.09979 -6.98396e-05 0)
(0.0998151 8.91744e-06 0)
(0.100006 7.46831e-06 0)
(0.100152 -3.75532e-05 0)
(0.100231 -8.73976e-05 0)
(0.100137 -0.000110352 0)
(0.0999911 1.44649e-05 0)
(0.099999 0.000100415 0)
(0.100026 0.000173957 0)
(0.100047 0.000145141 0)
(0.100108 0.000101043 0)
(0.100197 0.000167223 0)
(0.100264 0.000305727 0)
(0.100328 0.000415274 0)
(0.100444 0.000398194 0)
(0.100589 0.000289709 0)
(0.10067 2.65054e-05 0)
(0.100594 -0.000285452 0)
(0.100363 -0.000474414 0)
(0.100094 -0.000442665 0)
(0.0999445 -0.000275553 0)
(0.099946 -0.000116681 0)
(0.100044 -3.85912e-05 0)
(0.100107 -4.53288e-05 0)
(0.100167 -0.000106006 0)
(0.100107 -0.000156542 0)
(0.0999929 -1.932e-05 0)
(0.0999938 7.52942e-05 0)
(0.100028 0.000164562 0)
(0.100069 0.000129759 0)
(0.100141 7.34976e-05 0)
(0.100233 0.000125597 0)
(0.100292 0.000256057 0)
(0.100318 0.000332783 0)
(0.100351 0.000280825 0)
(0.100399 0.000124654 0)
(0.100439 -5.30264e-05 0)
(0.100424 -0.000187343 0)
(0.100332 -0.000232919 0)
(0.100192 -0.000184996 0)
(0.100079 -8.60282e-05 0)
(0.100035 -5.35272e-06 0)
(0.100066 2.87715e-05 0)
(0.100085 1.75438e-05 0)
(0.100116 -2.27295e-05 0)
(0.100077 -8.25868e-05 0)
(0.0999957 -5.52163e-05 0)
(0.0999926 3.88341e-05 0)
(0.100034 0.000137403 0)
(0.100093 0.000105879 0)
(0.10017 4.76539e-05 0)
(0.100254 9.28328e-05 0)
(0.100296 0.000206758 0)
(0.10029 0.000264857 0)
(0.100282 0.000209654 0)
(0.100303 8.93282e-05 0)
(0.100338 -2.13884e-05 0)
(0.100336 -8.84635e-05 0)
(0.100278 -0.000111308 0)
(0.100178 -0.000101469 0)
(0.100092 -6.89007e-05 0)
(0.100051 -3.15125e-05 0)
(0.100062 -1.09262e-05 0)
(0.100063 -2.12646e-05 0)
(0.100073 -4.64428e-05 0)
(0.100045 -9.87654e-05 0)
(0.099999 -7.96048e-05 0)
(0.0999947 4.12991e-06 0)
(0.100044 0.000100442 0)
(0.100122 7.78113e-05 0)
(0.100199 2.90856e-05 0)
(0.100269 6.67614e-05 0)
(0.100293 0.000165038 0)
(0.100262 0.000215423 0)
(0.100224 0.000167712 0)
(0.100218 6.93145e-05 0)
(0.100243 -1.82622e-05 0)
(0.10026 -6.46652e-05 0)
(0.100235 -7.2332e-05 0)
(0.100174 -5.54821e-05 0)
(0.100118 -1.97577e-05 0)
(0.100083 1.79925e-05 0)
(0.100072 3.54766e-05 0)
(0.100052 2.11542e-05 0)
(0.10005 4.95112e-07 0)
(0.100018 -4.58426e-05 0)
(0.100003 -8.22835e-05 0)
(0.0999983 -1.84341e-05 0)
(0.100055 6.20818e-05 0)
(0.100154 4.93661e-05 0)
(0.100229 1.3272e-05 0)
(0.100284 4.05372e-05 0)
(0.100294 0.000117024 0)
(0.100243 0.000156201 0)
(0.100182 0.000116911 0)
(0.100165 4.11325e-05 0)
(0.10019 -1.96142e-05 0)
(0.100219 -4.63008e-05 0)
(0.100216 -4.41868e-05 0)
(0.10018 -2.72113e-05 0)
(0.100141 1.86662e-07 0)
(0.100098 2.12766e-05 0)
(0.100063 2.2253e-05 0)
(0.100028 -8.36173e-07 0)
(0.100023 -2.28553e-05 0)
(0.0999959 -5.74701e-05 0)
(0.100005 -6.11105e-05 0)
(0.0999994 -2.08994e-05 0)
(0.100066 3.48814e-05 0)
(0.100181 3.29157e-05 0)
(0.10025 1.28953e-05 0)
(0.100292 3.33513e-05 0)
(0.100291 8.30777e-05 0)
(0.100223 0.000108672 0)
(0.100146 8.50762e-05 0)
(0.10012 3.92742e-05 0)
(0.100148 3.32921e-06 0)
(0.100189 -1.07455e-05 0)
(0.100202 -6.6308e-06 0)
(0.100181 6.55989e-06 0)
(0.100149 2.70036e-05 0)
(0.100099 3.973e-05 0)
(0.100048 3.86869e-05 0)
(0.100007 1.91003e-05 0)
(0.100009 4.9884e-06 0)
(0.0999887 -1.78304e-05 0)
(0.100006 -2.43863e-05 0)
(0.100002 -1.3472e-05 0)
(0.100075 3.82054e-06 0)
(0.100202 2.01587e-06 0)
(0.100269 -6.09324e-06 0)
(0.100303 3.98359e-07 0)
(0.100294 1.4883e-05 0)
(0.100218 2.14572e-05 0)
(0.100135 1.22513e-05 0)
(0.100107 -3.57151e-06 0)
(0.100135 -1.5395e-05 0)
(0.100178 -2.09796e-05 0)
(0.100199 -2.16226e-05 0)
(0.100189 -1.88346e-05 0)
(0.100163 -1.06574e-05 0)
(0.100105 -5.83537e-06 0)
(0.100043 -5.59219e-06 0)
(0.0999919 -1.46108e-05 0)
(0.1 -1.89756e-05 0)
(0.0999752 -3.11518e-05 0)
)
;

boundaryField
{
    sides
    {
        type            calculated;
        value           nonuniform List<vector> 
40
(
(0.100006 0 0)
(0.100002 0 0)
(0.100075 0 0)
(0.100202 0 0)
(0.100269 0 0)
(0.100303 0 0)
(0.100294 0 0)
(0.100218 0 0)
(0.100135 0 0)
(0.100107 0 0)
(0.100135 0 0)
(0.100178 0 0)
(0.100199 0 0)
(0.100189 0 0)
(0.100163 0 0)
(0.100105 0 0)
(0.100043 0 0)
(0.0999919 0 0)
(0.1 0 0)
(0.0999752 0 0)
(0.0999961 0 0)
(0.0999849 0 0)
(0.100051 0 0)
(0.100177 0 0)
(0.100247 0 0)
(0.100283 0 0)
(0.100276 0 0)
(0.100204 0 0)
(0.100123 0 0)
(0.100098 0 0)
(0.100128 0 0)
(0.100174 0 0)
(0.100197 0 0)
(0.100195 0 0)
(0.100177 0 0)
(0.100138 0 0)
(0.100085 0 0)
(0.100059 0 0)
(0.10007 0 0)
(0.100092 0 0)
)
;
    }
    inlet
    {
        type            calculated;
        value           nonuniform List<vector> 
20
(
(0.0999662 0 0)
(0.0999725 0 0)
(0.0999814 0 0)
(0.0999907 0 0)
(0.0999988 0 0)
(0.100003 0 0)
(0.100003 0 0)
(0.1 0 0)
(0.0999954 0 0)
(0.0999926 0 0)
(0.0999934 0 0)
(0.0999974 0 0)
(0.100003 0 0)
(0.100007 0 0)
(0.100009 0 0)
(0.100006 0 0)
(0.0999995 0 0)
(0.0999908 0 0)
(0.099983 0 0)
(0.0999785 0 0)
)
;
    }
    outlet
    {
        type            calculated;
        value           nonuniform List<vector> 
20
(
(0.100106 -2.79583e-05 0)
(0.100096 -3.29809e-06 0)
(0.100095 -2.16299e-05 0)
(0.100099 -1.87805e-05 0)
(0.100112 8.41701e-06 0)
(0.100126 -4.16727e-06 0)
(0.100146 5.73115e-05 0)
(0.100163 1.10165e-05 0)
(0.100122 4.14795e-05 0)
(0.0999615 3.384e-06 0)
(0.0999582 -0.000114172 0)
(0.100108 -0.000147781 0)
(0.100138 -0.000110353 0)
(0.100107 -0.000156543 0)
(0.100078 -8.25874e-05 0)
(0.100047 -9.87671e-05 0)
(0.100021 -4.58439e-05 0)
(0.100002 -5.74737e-05 0)
(0.0999985 -1.78321e-05 0)
(0.0999873 -3.11556e-05 0)
)
;
    }
    frontAndBack
    {
        type            empty;
    }
}


// ************************************************************************* //
