/*--------------------------------*- C++ -*----------------------------------*\
  =========                 |
  \\      /  F ield         | OpenFOAM: The Open Source CFD Toolbox
   \\    /   O peration     | Website:  https://openfoam.org
    \\  /    A nd           | Version:  9
     \\/     M anipulation  |
\*---------------------------------------------------------------------------*/
FoamFile
{
    format      ascii;
    class       volVectorField;
    location    "39";
    object      ddtCorrDdt0(hU);
}
// * * * * * * * * * * * * * * * * * * * * * * * * * * * * * * * * * * * * * //

dimensions      [0 2 -2 0 0 0 0];

internalField   nonuniform List<vector> 
400
(
(-8.06485e-09 -2.83298e-09 0)
(3.92129e-08 7.83541e-09 0)
(4.5297e-08 1.77914e-08 0)
(1.70702e-08 1.31652e-08 0)
(1.41205e-08 1.27146e-10 0)
(2.71071e-08 -6.60636e-09 0)
(3.50435e-08 -7.6012e-09 0)
(3.41706e-08 -2.47488e-09 0)
(1.83283e-08 2.91803e-09 0)
(-7.18757e-09 5.1171e-09 0)
(-2.48223e-08 -4.61386e-09 0)
(-2.98723e-08 -9.97432e-09 0)
(-1.84534e-08 -9.92333e-09 0)
(-2.12594e-08 -1.39292e-09 0)
(-3.95804e-08 8.3148e-09 0)
(-5.77618e-08 6.80706e-09 0)
(-6.68811e-08 3.81169e-10 0)
(-4.30711e-08 2.50004e-09 0)
(-1.36977e-08 7.64633e-09 0)
(-8.13513e-09 5.80226e-09 0)
(-4.88027e-09 -8.72811e-09 0)
(3.86625e-08 1.32688e-08 0)
(4.02791e-08 3.64261e-08 0)
(1.3608e-08 2.82562e-08 0)
(1.42704e-08 1.93516e-09 0)
(2.69502e-08 -1.52113e-08 0)
(3.50236e-08 -2.27507e-08 0)
(3.13223e-08 -1.01539e-08 0)
(2.11032e-08 1.44916e-09 0)
(-6.34862e-09 6.39562e-09 0)
(-2.23376e-08 -1.09693e-08 0)
(-2.5785e-08 -3.06272e-08 0)
(-2.19381e-08 -2.68731e-08 0)
(-1.91286e-08 -3.22859e-09 0)
(-3.58405e-08 2.18435e-08 0)
(-5.11833e-08 2.08629e-08 0)
(-5.27602e-08 -7.68557e-09 0)
(-3.71962e-08 -2.01718e-08 0)
(-2.3156e-08 1.24248e-08 0)
(-2.46512e-08 1.76517e-08 0)
(-3.42737e-09 -1.41358e-08 0)
(3.51314e-08 1.16625e-08 0)
(3.4016e-08 4.41571e-08 0)
(1.37613e-08 3.94647e-08 0)
(1.73774e-08 8.73967e-09 0)
(2.79226e-08 -2.47231e-08 0)
(3.23758e-08 -3.51591e-08 0)
(2.92264e-08 -1.90172e-08 0)
(1.94799e-08 1.50752e-09 0)
(2.96946e-09 2.02513e-09 0)
(-1.85405e-08 -1.65791e-08 0)
(-1.92074e-08 -4.88424e-08 0)
(-1.97665e-08 -4.13539e-08 0)
(-1.90641e-08 -2.12718e-09 0)
(-3.13637e-08 3.09338e-08 0)
(-5.37597e-08 3.1472e-08 0)
(-5.79758e-08 -5.45491e-09 0)
(-3.17468e-08 -2.57912e-08 0)
(-1.82239e-08 9.73757e-09 0)
(-2.94527e-08 2.03108e-08 0)
(-2.77558e-09 -1.84792e-08 0)
(2.92347e-08 9.75739e-09 0)
(2.71299e-08 5.2508e-08 0)
(1.43048e-08 5.47447e-08 0)
(1.90711e-08 1.38648e-08 0)
(2.90833e-08 -3.3539e-08 0)
(2.8925e-08 -4.06644e-08 0)
(3.0938e-08 -2.41203e-08 0)
(1.60151e-08 3.08789e-09 0)
(5.27951e-09 1.11777e-08 0)
(-6.48384e-09 -3.4201e-08 0)
(-1.90916e-08 -6.01868e-08 0)
(-1.40889e-08 -5.14341e-08 0)
(-2.25582e-08 -6.72888e-10 0)
(-3.18149e-08 4.05167e-08 0)
(-4.17016e-08 3.89321e-08 0)
(-4.29744e-08 -8.63506e-09 0)
(-3.85739e-08 -3.74305e-08 0)
(-4.15629e-08 5.12049e-09 0)
(-4.93593e-08 2.24322e-08 0)
(-2.67113e-09 -2.3404e-08 0)
(1.97265e-08 3.92602e-09 0)
(2.00901e-08 5.53421e-08 0)
(1.62609e-08 6.1404e-08 0)
(2.40934e-08 1.32325e-08 0)
(2.86399e-08 -3.3692e-08 0)
(2.82266e-08 -4.10263e-08 0)
(2.30247e-08 -2.10043e-08 0)
(2.5493e-08 5.97407e-09 0)
(-2.49855e-09 8.87909e-09 0)
(-1.06663e-08 -2.12356e-08 0)
(9.1854e-09 -7.37895e-08 0)
(-1.60273e-08 -5.41107e-08 0)
(-2.13656e-08 -3.21767e-09 0)
(-3.26627e-08 4.00624e-08 0)
(-4.76881e-08 4.23e-08 0)
(-5.41322e-08 -8.09421e-09 0)
(-4.08599e-08 -4.52053e-08 0)
(-3.62085e-08 1.34751e-09 0)
(-5.13913e-08 2.17081e-08 0)
(-1.7065e-09 -2.88964e-08 0)
(1.08527e-08 -1.62671e-09 0)
(1.23022e-08 5.45144e-08 0)
(1.86134e-08 5.97504e-08 0)
(2.81729e-08 1.23587e-08 0)
(3.15289e-08 -2.95073e-08 0)
(2.64719e-08 -3.65729e-08 0)
(2.57171e-08 -1.49622e-08 0)
(7.82444e-09 1.87285e-08 0)
(3.69946e-08 -2.11482e-08 0)
(-1.97834e-08 1.62798e-08 0)
(5.31912e-09 -7.14843e-08 0)
(5.22946e-09 -7.68962e-08 0)
(-3.45131e-08 -2.18727e-09 0)
(-3.28681e-08 4.68325e-08 0)
(-3.00256e-08 4.68081e-08 0)
(-3.73003e-08 1.17675e-09 0)
(-5.25629e-08 -3.08474e-08 0)
(-6.37701e-08 3.99499e-09 0)
(-6.3288e-08 1.86967e-08 0)
(1.41258e-09 -3.17877e-08 0)
(3.8549e-09 -6.13215e-09 0)
(5.18461e-09 4.80692e-08 0)
(1.99338e-08 5.29467e-08 0)
(3.38567e-08 1.26164e-08 0)
(3.34852e-08 -2.26484e-08 0)
(2.80588e-08 -2.96568e-08 0)
(2.20284e-08 -8.21456e-09 0)
(3.40358e-09 3.56661e-09 0)
(2.55347e-08 1.62062e-08 0)
(5.78805e-08 3.49617e-08 0)
(-9.00603e-08 -1.2731e-08 0)
(3.20202e-09 -5.3242e-08 0)
(5.41838e-09 -4.85926e-09 0)
(-2.98815e-08 5.10701e-08 0)
(-3.25111e-08 5.14351e-08 0)
(-3.51416e-08 -1.45379e-09 0)
(-5.36206e-08 -3.73841e-08 0)
(-7.21283e-08 2.55885e-09 0)
(-7.2916e-08 1.85046e-08 0)
(5.52244e-09 -2.96883e-08 0)
(-4.28474e-10 -8.80803e-09 0)
(-5.87528e-10 3.6727e-08 0)
(2.16151e-08 4.23242e-08 0)
(3.75378e-08 1.25849e-08 0)
(3.7006e-08 -1.49494e-08 0)
(2.6325e-08 -2.19885e-08 0)
(1.21769e-08 -6.18353e-09 0)
(2.53307e-08 1.85402e-08 0)
(3.14967e-08 5.17922e-08 0)
(-8.7648e-08 -7.50058e-08 0)
(-6.87658e-08 -4.00109e-08 0)
(-7.12895e-08 3.12959e-09 0)
(-2.48292e-08 1.82768e-08 0)
(-1.95668e-08 4.24929e-08 0)
(-2.88398e-08 4.52874e-08 0)
(-3.58975e-08 2.62167e-09 0)
(-5.70694e-08 -2.47062e-08 0)
(-8.09396e-08 2.86524e-09 0)
(-7.92698e-08 1.23506e-08 0)
(9.5096e-09 -2.20548e-08 0)
(-2.93338e-09 -6.84009e-09 0)
(-4.40261e-09 2.55809e-08 0)
(2.34435e-08 3.02382e-08 0)
(4.17726e-08 1.07135e-08 0)
(3.75261e-08 -9.49355e-09 0)
(2.71862e-08 -1.34862e-08 0)
(2.60259e-08 -1.63023e-09 0)
(1.18896e-08 2.37065e-08 0)
(1.88181e-08 5.06979e-08 0)
(1.22711e-07 -6.86572e-08 0)
(7.3323e-08 -2.72392e-08 0)
(2.7678e-08 1.41889e-08 0)
(-4.70438e-08 2.6036e-08 0)
(-4.59258e-08 3.18342e-08 0)
(-3.22532e-08 3.37308e-08 0)
(-2.13198e-08 1.4342e-08 0)
(-5.76628e-08 -6.89362e-09 0)
(-9.09208e-08 3.77269e-09 0)
(-8.83082e-08 5.02434e-09 0)
(1.28171e-08 -8.80801e-09 0)
(-2.93077e-09 -1.27674e-09 0)
(-6.44438e-09 1.45016e-08 0)
(2.27961e-08 1.74471e-08 0)
(4.13958e-08 8.16679e-09 0)
(3.91433e-08 -2.0408e-09 0)
(2.5453e-08 -3.83972e-09 0)
(2.31588e-08 9.46448e-09 0)
(3.8923e-08 2.5486e-09 0)
(1.75764e-08 6.88077e-09 0)
(-1.69496e-08 1.9988e-08 0)
(9.1063e-08 2.89989e-08 0)
(-3.26084e-08 -2.03092e-08 0)
(-6.49211e-08 -1.07115e-09 0)
(-4.32243e-08 1.98516e-08 0)
(-2.60578e-08 2.42548e-08 0)
(-4.31377e-08 2.0059e-08 0)
(-6.89661e-08 6.90127e-09 0)
(-9.93105e-08 2.7311e-09 0)
(-9.35974e-08 -3.25509e-09 0)
(1.33879e-08 8.14406e-09 0)
(-2.0233e-09 4.63246e-09 0)
(-5.91798e-09 -3.91152e-10 0)
(2.1815e-08 2.65774e-09 0)
(3.97114e-08 6.11408e-09 0)
(3.79714e-08 1.04383e-08 0)
(3.01279e-08 1.07432e-08 0)
(2.22449e-08 5.89235e-09 0)
(3.6146e-08 6.07674e-09 0)
(-2.40708e-08 -2.2911e-08 0)
(9.55007e-08 -1.5519e-07 0)
(2.23256e-08 -3.97728e-08 0)
(-3.99554e-08 -1.74136e-08 0)
(-2.18113e-08 -6.05203e-09 0)
(-3.04047e-08 8.44982e-10 0)
(-2.82056e-08 6.90185e-09 0)
(-3.54928e-08 1.20708e-08 0)
(-7.30181e-08 1.51055e-08 0)
(-1.04104e-07 4.145e-10 0)
(-9.51236e-08 -1.13106e-08 0)
(1.06148e-08 2.32473e-08 0)
(-1.40684e-09 1.11309e-08 0)
(-3.39435e-09 -1.46266e-08 0)
(2.08299e-08 -1.40856e-08 0)
(3.69171e-08 5.09145e-09 0)
(3.6082e-08 2.40022e-08 0)
(3.1236e-08 2.59879e-08 0)
(2.83662e-08 1.15898e-10 0)
(2.72089e-08 -2.03866e-08 0)
(-1.32408e-07 -3.66724e-08 0)
(-2.17991e-08 2.1696e-07 0)
(2.57897e-07 2.20638e-08 0)
(1.66091e-08 8.50848e-09 0)
(-3.30048e-08 -9.2799e-09 0)
(-3.14585e-08 -2.60898e-08 0)
(-3.05259e-08 -1.93221e-08 0)
(-3.82938e-08 5.35575e-09 0)
(-7.14561e-08 2.00027e-08 0)
(-1.00121e-07 -3.0182e-09 0)
(-8.79853e-08 -1.85378e-08 0)
(6.57597e-09 3.21262e-08 0)
(-1.18549e-10 1.47185e-08 0)
(-6.87981e-10 -2.85217e-08 0)
(1.86597e-08 -3.08866e-08 0)
(3.47175e-08 4.08867e-09 0)
(3.57404e-08 3.47465e-08 0)
(2.67908e-08 3.93863e-08 0)
(1.65689e-08 6.91074e-09 0)
(1.14533e-08 -2.89732e-08 0)
(1.90937e-07 -3.71856e-08 0)
(7.80881e-08 1.99173e-07 0)
(-2.79411e-07 4.18291e-08 0)
(-5.49409e-08 1.59499e-08 0)
(-3.01963e-08 -1.41962e-08 0)
(-3.77839e-08 -4.07096e-08 0)
(-2.94189e-08 -2.99622e-08 0)
(-3.55345e-08 1.37177e-08 0)
(-6.35316e-08 3.67847e-08 0)
(-8.54472e-08 -2.16328e-09 0)
(-7.50287e-08 -2.435e-08 0)
(2.5541e-09 3.37191e-08 0)
(2.57094e-09 1.32817e-08 0)
(3.23911e-09 -3.87122e-08 0)
(1.69118e-08 -4.33776e-08 0)
(3.2189e-08 2.47042e-09 0)
(3.44087e-08 4.02687e-08 0)
(2.63485e-08 4.68389e-08 0)
(1.78816e-08 2.31131e-08 0)
(1.54364e-08 -1.49517e-08 0)
(4.88264e-08 -1.32044e-08 0)
(-6.11192e-08 -2.11832e-07 0)
(-2.79016e-08 2.4211e-09 0)
(-2.31058e-08 3.42152e-08 0)
(-4.11706e-08 -9.71513e-09 0)
(-3.25862e-08 -3.95839e-08 0)
(-2.36418e-08 -2.51513e-08 0)
(-3.30157e-08 2.26044e-08 0)
(-5.9644e-08 4.92978e-08 0)
(-7.15752e-08 2.557e-09 0)
(-6.21777e-08 -2.5717e-08 0)
(-4.21111e-11 3.01582e-08 0)
(9.6147e-09 8.91171e-09 0)
(9.36326e-09 -4.21562e-08 0)
(1.51511e-08 -4.6685e-08 0)
(2.7034e-08 -6.00823e-10 0)
(3.44068e-08 4.20455e-08 0)
(2.81177e-08 4.67025e-08 0)
(1.92871e-08 3.01676e-08 0)
(1.59432e-08 -1.23912e-09 0)
(1.81237e-09 -1.76885e-08 0)
(2.47203e-09 -1.38611e-09 0)
(-7.33488e-09 5.8648e-08 0)
(-2.65127e-08 4.49034e-08 0)
(-2.89327e-08 2.62775e-09 0)
(-2.28909e-08 -2.89128e-08 0)
(-2.61205e-08 -2.40784e-08 0)
(-4.03716e-08 2.00463e-08 0)
(-5.24695e-08 5.20435e-08 0)
(-5.44012e-08 6.5929e-09 0)
(-5.39884e-08 -2.54346e-08 0)
(-1.42726e-09 2.5701e-08 0)
(1.98009e-08 3.10893e-09 0)
(1.81639e-08 -4.41066e-08 0)
(1.29506e-08 -4.45875e-08 0)
(2.18806e-08 -1.83981e-10 0)
(3.08604e-08 4.08417e-08 0)
(3.15199e-08 4.50914e-08 0)
(2.60522e-08 2.53221e-08 0)
(1.72506e-08 3.98034e-09 0)
(1.15467e-08 -3.92739e-09 0)
(-5.21146e-10 2.91346e-08 0)
(-2.41457e-08 6.03798e-08 0)
(-2.74356e-08 6.10397e-08 0)
(-1.82839e-08 1.93632e-08 0)
(-2.33143e-08 -2.36445e-08 0)
(-4.25186e-08 -2.58534e-08 0)
(-4.91448e-08 2.24199e-08 0)
(-4.21709e-08 5.49938e-08 0)
(-4.03003e-08 3.92021e-09 0)
(-4.95254e-08 -2.73762e-08 0)
(-2.70433e-09 2.18819e-08 0)
(2.86285e-08 -1.91903e-09 0)
(2.71583e-08 -4.38248e-08 0)
(1.30273e-08 -4.06438e-08 0)
(1.78903e-08 2.94087e-09 0)
(2.86634e-08 4.00666e-08 0)
(3.23351e-08 4.39311e-08 0)
(2.91965e-08 2.11056e-08 0)
(1.92915e-08 -1.517e-09 0)
(-2.87266e-10 -5.27192e-09 0)
(-1.73006e-08 1.94139e-08 0)
(-1.803e-08 5.72557e-08 0)
(-1.25275e-08 5.84625e-08 0)
(-2.01369e-08 1.41403e-08 0)
(-3.75487e-08 -3.00844e-08 0)
(-5.05171e-08 -2.79748e-08 0)
(-5.24696e-08 1.98765e-08 0)
(-4.23808e-08 4.559e-08 0)
(-3.41471e-08 -4.58524e-09 0)
(-4.2785e-08 -2.87169e-08 0)
(-4.21166e-09 1.80667e-08 0)
(3.44435e-08 -7.79442e-09 0)
(3.42558e-08 -4.3257e-08 0)
(1.32364e-08 -3.70863e-08 0)
(1.58476e-08 3.89482e-09 0)
(2.76846e-08 3.87736e-08 0)
(3.36624e-08 4.136e-08 0)
(3.27593e-08 1.90851e-08 0)
(1.88168e-08 -5.83885e-09 0)
(-1.14309e-09 -1.11574e-08 0)
(-1.97005e-08 1.2747e-08 0)
(-2.91361e-08 4.2929e-08 0)
(-2.76547e-08 3.84557e-08 0)
(-2.88278e-08 -2.87147e-10 0)
(-4.15362e-08 -3.30683e-08 0)
(-5.70991e-08 -3.02408e-08 0)
(-5.90564e-08 6.37375e-09 0)
(-3.98514e-08 2.60073e-08 0)
(-2.19499e-08 -1.11441e-08 0)
(-2.88949e-08 -2.53695e-08 0)
(-7.29885e-09 1.34131e-08 0)
(3.45629e-08 -5.16165e-09 0)
(3.83845e-08 -2.84737e-08 0)
(1.59454e-08 -2.43602e-08 0)
(1.78275e-08 3.43964e-09 0)
(2.93459e-08 2.85334e-08 0)
(3.47229e-08 3.26506e-08 0)
(3.16694e-08 1.8033e-08 0)
(1.79866e-08 -5.774e-10 0)
(-8.1968e-09 -6.04992e-09 0)
(-2.94731e-08 4.42775e-09 0)
(-2.81862e-08 2.20133e-08 0)
(-2.20907e-08 2.001e-08 0)
(-3.0225e-08 -3.9049e-09 0)
(-4.97472e-08 -2.60496e-08 0)
(-6.42881e-08 -2.41357e-08 0)
(-6.07064e-08 1.63199e-09 0)
(-3.25133e-08 1.51847e-08 0)
(-7.70619e-09 -9.6573e-09 0)
(-1.31749e-08 -1.7843e-08 0)
(-8.64506e-09 5.35208e-09 0)
(3.42087e-08 6.7413e-10 0)
(3.88711e-08 -6.43189e-09 0)
(1.61206e-08 -6.27923e-09 0)
(1.8315e-08 1.54901e-09 0)
(3.07658e-08 9.98218e-09 0)
(3.57941e-08 1.24141e-08 0)
(3.33306e-08 9.18158e-09 0)
(1.85248e-08 3.75436e-09 0)
(-6.97403e-09 5.78703e-10 0)
(-2.68681e-08 6.06125e-09 0)
(-3.30037e-08 1.19861e-08 0)
(-3.03013e-08 6.93153e-09 0)
(-3.35367e-08 -3.65312e-09 0)
(-4.78359e-08 -1.04751e-08 0)
(-6.05708e-08 -8.42021e-09 0)
(-5.81924e-08 1.27566e-09 0)
(-3.03854e-08 6.19865e-09 0)
(-1.61945e-09 -3.13822e-09 0)
(-3.65055e-09 -6.34034e-09 0)
)
;

boundaryField
{
    sides
    {
        type            calculated;
        value           nonuniform List<vector> 
40
(
(-8.64506e-09 0 0)
(3.42087e-08 0 0)
(3.88711e-08 0 0)
(1.61206e-08 0 0)
(1.8315e-08 0 0)
(3.07658e-08 0 0)
(3.57941e-08 0 0)
(3.33306e-08 0 0)
(1.85248e-08 0 0)
(-6.97403e-09 0 0)
(-2.68681e-08 0 0)
(-3.30037e-08 0 0)
(-3.03013e-08 0 0)
(-3.35367e-08 0 0)
(-4.78359e-08 0 0)
(-6.05708e-08 0 0)
(-5.81924e-08 0 0)
(-3.03854e-08 0 0)
(-1.61945e-09 0 0)
(-3.65055e-09 0 0)
(-8.06485e-09 0 0)
(3.92129e-08 0 0)
(4.5297e-08 0 0)
(1.70702e-08 0 0)
(1.41205e-08 0 0)
(2.71071e-08 0 0)
(3.50435e-08 0 0)
(3.41706e-08 0 0)
(1.83283e-08 0 0)
(-7.18757e-09 0 0)
(-2.48223e-08 0 0)
(-2.98723e-08 0 0)
(-1.84534e-08 0 0)
(-2.12594e-08 0 0)
(-3.95804e-08 0 0)
(-5.77618e-08 0 0)
(-6.68811e-08 0 0)
(-4.30711e-08 0 0)
(-1.36977e-08 0 0)
(-8.13513e-09 0 0)
)
;
    }
    inlet
    {
        type            calculated;
        value           uniform (0 0 0);
    }
    outlet
    {
        type            calculated;
        value           nonuniform List<vector> 
20
(
(-8.13513e-09 5.80226e-09 0)
(-2.46512e-08 1.76517e-08 0)
(-2.94527e-08 2.03108e-08 0)
(-4.93593e-08 2.24322e-08 0)
(-5.13913e-08 2.17081e-08 0)
(-6.3288e-08 1.86967e-08 0)
(-7.2916e-08 1.85046e-08 0)
(-7.92698e-08 1.23506e-08 0)
(-8.83082e-08 5.02434e-09 0)
(-9.35974e-08 -3.25509e-09 0)
(-9.51236e-08 -1.13106e-08 0)
(-8.79853e-08 -1.85378e-08 0)
(-7.50287e-08 -2.435e-08 0)
(-6.21777e-08 -2.5717e-08 0)
(-5.39884e-08 -2.54346e-08 0)
(-4.95254e-08 -2.73762e-08 0)
(-4.2785e-08 -2.87169e-08 0)
(-2.88949e-08 -2.53695e-08 0)
(-1.31749e-08 -1.7843e-08 0)
(-3.65055e-09 -6.34034e-09 0)
)
;
    }
    frontAndBack
    {
        type            empty;
    }
}


// ************************************************************************* //
