/*--------------------------------*- C++ -*----------------------------------*\
  =========                 |
  \\      /  F ield         | OpenFOAM: The Open Source CFD Toolbox
   \\    /   O peration     | Website:  https://openfoam.org
    \\  /    A nd           | Version:  9
     \\/     M anipulation  |
\*---------------------------------------------------------------------------*/
FoamFile
{
    format      ascii;
    class       surfaceScalarField;
    location    "39";
    object      ddtCorrDdt0(phi);
}
// * * * * * * * * * * * * * * * * * * * * * * * * * * * * * * * * * * * * * //

dimensions      [0 4 -2 0 0 0 0];

internalField   nonuniform List<scalar> 
760
(
1.02274e-10
-2.74189e-11
1.90065e-10
4.37016e-11
1.73349e-10
1.23124e-10
1.02016e-10
8.60795e-11
9.34127e-11
-1.35046e-11
1.71527e-10
-5.18989e-11
1.82503e-10
-6.69889e-11
1.35892e-10
-2.89016e-11
1.26772e-11
8.86821e-12
-7.77574e-11
3.74342e-11
-1.3213e-10
-3.19951e-11
-1.24496e-10
-1.02407e-10
-1.04592e-10
-1.01765e-10
-1.65538e-10
-1.44106e-11
-2.45806e-10
7.83201e-11
-3.10213e-10
6.21613e-11
-2.93353e-10
-3.38387e-11
-1.51129e-10
-6.16474e-11
-4.07909e-11
6.34318e-11
6.19268e-11
1.13784e-10
-5.87414e-11
1.8143e-10
6.97082e-11
1.39194e-10
2.04131e-10
8.07893e-11
1.54874e-10
1.13284e-10
1.35531e-11
1.65403e-10
-8.99209e-11
1.76803e-10
-1.52271e-10
1.30735e-10
-6.46929e-11
3.10754e-11
3.00724e-12
-8.35059e-11
1.93481e-11
-9.47555e-11
-8.1794e-11
-1.43247e-10
-2.16321e-10
-1.0328e-10
-1.73479e-10
-1.41037e-10
-2.78628e-11
-2.2755e-10
1.28302e-10
-2.63406e-10
1.26126e-10
-2.29317e-10
-3.62402e-11
-1.54351e-10
-1.00222e-10
-1.00231e-10
5.25336e-11
1.13532e-10
1.16517e-10
-7.79398e-11
1.54376e-10
6.29475e-11
1.01221e-10
2.39122e-10
9.34836e-11
2.29448e-10
1.48252e-10
6.87936e-11
1.31369e-10
-1.59487e-10
1.83877e-10
-1.98716e-10
1.06907e-10
-1.2331e-10
6.74958e-11
1.22946e-11
-5.10502e-11
-7.35241e-13
-9.65571e-11
-8.76391e-11
-9.03277e-11
-2.68864e-10
-1.16276e-10
-2.3253e-10
-1.14478e-10
2.15998e-12
-2.21776e-10
1.81788e-10
-2.96482e-10
1.87826e-10
-2.28168e-10
-3.37789e-11
-9.92233e-11
-1.84906e-10
-1.28641e-10
4.12828e-11
9.07301e-11
1.02186e-10
-9.99324e-11
1.06981e-10
3.50106e-11
7.83072e-11
2.63757e-10
1.2935e-10
2.96477e-10
1.25222e-10
6.08315e-11
1.36563e-10
-1.80714e-10
1.70113e-10
-2.13018e-10
1.23775e-10
-1.25322e-10
3.55053e-11
1.14955e-12
1.45879e-11
8.17018e-11
-8.52853e-11
-2.17159e-10
-7.43521e-11
-2.80484e-10
-9.80061e-11
-2.63864e-10
-1.38511e-10
-1.88649e-11
-1.82547e-10
2.08779e-10
-2.25504e-10
2.02928e-10
-1.98561e-10
-2.38413e-11
-1.83798e-10
-1.70398e-10
-2.19318e-10
1.23026e-11
9.52505e-11
5.80721e-11
-1.29363e-10
5.07672e-11
4.2805e-12
9.0421e-11
2.77142e-10
1.416e-10
3.01153e-10
1.19224e-10
5.76228e-11
1.50857e-10
-1.63371e-10
1.37307e-10
-2.03125e-10
1.15911e-10
-9.92068e-11
1.07862e-10
5.90745e-11
-1.3962e-10
-1.33364e-11
8.77052e-11
9.77836e-11
-5.44605e-11
-4.95229e-10
-9.50089e-11
-2.8981e-10
-1.2594e-10
7.81489e-12
-2.09531e-10
2.15911e-10
-2.63425e-10
2.35076e-10
-2.31448e-10
-2.05867e-11
-1.70692e-10
-2.08442e-10
-2.26742e-10
2.03238e-11
1.07215e-10
7.60398e-12
-1.55914e-10
1.22617e-11
-1.85731e-11
8.9764e-11
2.54573e-10
1.46301e-10
2.79631e-10
1.37528e-10
5.62688e-11
1.57452e-10
-1.30523e-10
1.31308e-10
-1.59926e-10
1.00384e-10
-6.43229e-11
9.25139e-11
9.50052e-11
9.86054e-11
-2.66934e-10
-1.66641e-10
1.65903e-10
1.41797e-10
-1.01104e-10
-1.06092e-10
-4.44493e-10
-1.78188e-10
-4.13571e-11
-1.50729e-10
2.36679e-10
-1.64655e-10
2.27933e-10
-2.16587e-10
-5.16844e-12
-2.85e-10
-1.7908e-10
-3.26767e-10
1.54688e-11
9.26651e-11
-2.64169e-11
-1.59871e-10
-1.77518e-11
-3.66887e-11
8.19412e-11
2.14128e-10
1.52201e-10
2.33902e-10
1.64996e-10
6.45997e-11
1.66987e-10
-9.25038e-11
1.13359e-10
-1.35447e-10
1.84767e-10
-9.79566e-12
-2.68965e-10
-1.15559e-10
6.74207e-10
6.20301e-10
-3.86065e-10
1.28902e-09
-2.0256e-10
1.14906e-10
1.02822e-10
8.51946e-13
-7.59801e-11
6.50563e-12
-1.62128e-10
2.23546e-10
-1.61242e-10
2.0111e-10
-2.10091e-10
-1.06283e-09
-3.13909e-10
-1.44601e-10
-3.7604e-10
1.48408e-11
7.7477e-11
-4.6818e-11
-1.35539e-10
-3.1924e-11
-3.74686e-11
6.65491e-11
1.5978e-10
1.66585e-10
1.87545e-10
1.91628e-10
5.93051e-11
1.53828e-10
-5.36325e-11
1.44192e-10
-9.68571e-11
-6.2327e-12
-5.14579e-11
1.07324e-10
3.75724e-10
1.74217e-10
-1.89178e-11
-6.48321e-10
-3.82413e-08
-3.76306e-10
-7.38788e-10
-1.93855e-10
5.14265e-11
-7.5349e-11
1.95192e-10
-1.28858e-10
2.72297e-10
-1.53878e-10
1.75509e-10
-2.26086e-10
5.55565e-11
-3.44839e-10
-9.91772e-11
-4.16981e-10
1.72584e-11
4.46898e-11
-5.4159e-11
-8.04431e-11
-4.3033e-11
-2.15988e-11
6.38624e-11
1.03002e-10
1.76358e-10
1.21929e-10
2.13085e-10
5.39854e-11
1.58392e-10
-3.79731e-11
8.59931e-11
-3.18019e-11
2.06008e-10
3.51338e-11
1.17996e-10
-6.45999e-11
5.15658e-11
6.34711e-10
7.00087e-10
6.53118e-10
3.03058e-10
2.70468e-10
-1.12423e-10
1.54956e-10
-2.31294e-10
7.29059e-11
-1.77704e-10
2.15571e-10
-1.40777e-10
1.65207e-10
-1.67967e-10
-3.01085e-09
-3.7659e-10
2.07097e-11
-4.68383e-10
2.71378e-11
3.29122e-10
-5.41579e-11
-3.6976e-12
-3.51602e-11
8.52762e-12
5.28799e-11
3.84508e-11
1.74382e-10
5.46912e-11
2.06679e-10
2.98797e-11
1.50834e-10
1.93615e-11
1.29337e-10
1.58981e-11
9.20566e-11
7.44805e-11
4.19188e-10
5.03314e-11
-4.09339e-10
-2.7156e-10
4.33972e-10
-2.04022e-11
1.46632e-10
3.79969e-11
-3.06681e-10
-2.71297e-10
-2.75272e-10
-6.64936e-11
-1.40351e-10
6.97823e-11
-1.43795e-10
7.80023e-11
-2.84647e-10
5.91567e-11
-4.29034e-10
5.14819e-11
-4.98087e-10
1.31247e-11
-3.29715e-11
-5.33107e-11
7.97961e-11
-2.50655e-11
4.03868e-11
5.89584e-11
-3.51712e-11
1.53094e-10
-2.76252e-11
2.0037e-10
2.62736e-11
1.45204e-10
8.46663e-11
1.72471e-10
9.67194e-11
1.51989e-10
-7.92705e-12
9.06122e-11
-1.90757e-12
-5.43708e-11
-1.70761e-10
5.7596e-10
-1.20272e-09
-2.31797e-10
-5.36332e-10
-9.15752e-11
5.08828e-11
-1.30739e-10
5.92838e-12
-1.34141e-10
-5.70126e-11
-1.35901e-10
-1.3019e-11
-2.73266e-10
5.86287e-11
-4.49461e-10
9.78024e-11
-5.14319e-10
-4.41268e-12
-7.37139e-11
-5.83064e-11
1.47223e-10
-1.85668e-11
6.25437e-11
7.10662e-11
-1.16108e-10
1.34884e-10
-1.14562e-10
1.87788e-10
2.56677e-11
1.62496e-10
1.56677e-10
1.55607e-10
1.49608e-10
1.74718e-10
3.16112e-12
2.08916e-10
-1.23189e-10
-1.7835e-09
-2.10589e-10
1.84709e-09
5.74791e-08
3.74226e-10
8.17993e-10
-9.15326e-11
4.23168e-11
-1.59378e-10
-4.99214e-11
-1.45214e-10
-1.89148e-10
-1.4025e-10
-2.67779e-11
-2.75595e-10
6.23347e-11
-4.4724e-10
1.36288e-10
-4.84827e-10
-2.56584e-11
-1.13617e-10
-5.7733e-11
1.73036e-10
-1.73223e-11
6.89382e-11
7.54538e-11
-1.77317e-10
1.24198e-10
-1.90323e-10
1.86191e-10
2.31298e-11
1.69857e-10
1.90764e-10
9.15581e-11
2.34863e-10
9.67436e-11
6.10142e-11
-3.69733e-11
-1.23941e-10
2.18841e-09
-1.42951e-10
-1.8846e-09
-1.78005e-09
-5.04216e-10
-2.5622e-10
-1.49362e-10
1.75963e-10
-1.67446e-10
-6.24264e-11
-1.62602e-10
-2.12056e-10
-1.41898e-10
-1.3682e-10
-2.35926e-10
5.97453e-11
-3.95663e-10
1.92775e-10
-4.15577e-10
-9.88437e-12
-1.2659e-10
-4.02417e-11
1.61806e-10
-1.72778e-11
5.66674e-11
7.58096e-11
-2.00192e-10
1.2936e-10
-2.31099e-10
1.65898e-10
9.5341e-12
1.91095e-10
2.1101e-10
8.06113e-11
2.393e-10
6.99714e-11
1.65442e-10
1.4796e-10
-4.64428e-11
1.04942e-10
-1.06856e-10
-3.88473e-10
-2.07835e-10
-5.06872e-11
2.32199e-10
-1.91988e-10
1.28333e-10
-1.78241e-10
-5.08586e-11
-1.20547e-10
-1.77921e-10
-1.27287e-10
-1.27148e-10
-2.33883e-10
9.97863e-11
-3.41222e-10
2.52019e-10
-3.43814e-10
2.35158e-11
-1.26232e-10
-4.82528e-13
1.36297e-10
1.25085e-11
3.14718e-11
6.67575e-11
-2.08075e-10
1.29807e-10
-2.2175e-10
1.49034e-10
-9.52761e-12
1.86017e-10
2.08501e-10
1.23523e-10
2.28371e-10
5.20071e-11
1.60026e-10
8.01876e-11
4.75494e-11
-3.5689e-11
-4.84165e-11
3.75242e-11
-3.92156e-11
-1.16176e-10
2.5415e-10
-1.46969e-10
2.78999e-10
-1.16612e-10
6.46024e-11
-1.05311e-10
-1.19959e-10
-1.69287e-10
-1.16272e-10
-2.34459e-10
1.21055e-10
-2.6715e-10
2.81414e-10
-2.77477e-10
3.62577e-11
-1.27672e-10
5.1504e-11
1.15705e-10
6.51959e-11
4.06095e-13
7.49018e-11
-2.15763e-10
1.03076e-10
-2.03701e-10
1.36611e-10
1.12722e-11
1.64531e-10
1.93312e-10
1.7139e-10
2.2321e-10
8.99615e-11
1.1126e-10
6.38881e-11
1.10378e-11
5.35011e-11
-1.05195e-11
-9.37481e-11
1.86341e-10
-1.29618e-10
3.26889e-10
-1.1686e-10
3.24704e-10
-8.95454e-11
9.779e-11
-1.62764e-10
-1.23195e-10
-2.40361e-10
-1.3181e-10
-2.24606e-10
1.01189e-10
-1.94946e-10
2.48419e-10
-2.29346e-10
6.09212e-12
-1.36469e-10
9.15088e-11
9.94061e-11
1.15654e-10
-2.2541e-11
9.78796e-11
-2.1434e-10
9.18835e-11
-1.85615e-10
1.11503e-10
2.9597e-11
1.63409e-10
2.09214e-10
1.77184e-10
2.1448e-10
1.26949e-10
9.488e-11
3.44476e-11
-2.86125e-11
-5.59915e-11
-3.3666e-11
-8.10891e-11
7.55552e-11
-8.51266e-11
2.53645e-10
-8.16395e-11
2.53597e-10
-1.39865e-10
4.96427e-11
-2.22539e-10
-1.54166e-10
-2.71286e-10
-1.54492e-10
-2.35513e-10
5.88049e-11
-1.74493e-10
1.74889e-10
-1.90906e-10
-4.54601e-11
-1.3896e-10
1.12291e-10
7.90593e-11
1.48553e-10
-3.17533e-11
1.21068e-10
-1.75208e-10
9.1452e-11
-1.47345e-10
1.0502e-10
2.83701e-11
1.56757e-10
1.82274e-10
1.85388e-10
1.98319e-10
1.35369e-10
9.61814e-11
3.47581e-11
-2.36328e-11
-5.09401e-11
-5.80441e-11
-1.33065e-10
5.88912e-11
-1.35245e-10
1.56457e-10
-1.44319e-10
1.29135e-10
-1.85459e-10
-3.51739e-11
-2.53645e-10
-1.69114e-10
-2.97372e-10
-1.47704e-10
-2.47373e-10
1.72101e-11
-1.442e-10
9.41623e-11
-1.21069e-10
-6.95142e-11
-1.16104e-10
9.8343e-11
5.45646e-11
1.59747e-10
-2.23066e-11
1.43401e-10
-1.00701e-10
1.09837e-10
-8.12497e-11
1.19124e-10
1.92043e-11
1.62218e-10
1.08632e-10
1.80072e-10
1.2353e-10
1.28772e-10
7.16097e-11
1.46856e-11
1.90571e-12
-1.07566e-10
-2.04956e-11
-1.30624e-10
1.37109e-11
-1.24467e-10
6.50588e-11
-1.39344e-10
4.92804e-11
-2.12656e-10
-3.07602e-11
-2.92568e-10
-9.94039e-11
-3.14913e-10
-8.88787e-11
-2.39244e-10
-6.73616e-12
-1.0008e-10
3.43433e-11
-4.08571e-11
-4.33832e-11
-6.35906e-11
8.67778e-11
1.58622e-10
1.48558e-10
1.15484e-10
1.28576e-10
1.68452e-10
1.84008e-10
1.28226e-10
1.98737e-11
-8.99107e-11
-1.41192e-10
-1.57138e-10
-1.69097e-10
-2.20363e-10
-2.76801e-10
-2.94829e-10
-2.31021e-10
-8.70757e-11
2.11152e-12
)
;

boundaryField
{
    sides
    {
        type            calculated;
        value           uniform 0;
    }
    inlet
    {
        type            calculated;
        value           uniform 0;
    }
    outlet
    {
        type            calculated;
        value           nonuniform List<scalar> 
20
(
-9.42595e-12
-1.2931e-10
-1.42643e-10
-2.86016e-10
-2.82146e-10
-3.37504e-10
-3.84665e-10
-4.13957e-10
-4.63251e-10
-4.87808e-10
-4.95531e-10
-4.47952e-10
-3.72121e-10
-3.09679e-10
-2.77596e-10
-2.64631e-10
-2.3564e-10
-1.53574e-10
-5.5979e-11
2.18619e-12
)
;
    }
    frontAndBack
    {
        type            empty;
        value           nonuniform List<scalar> 0();
    }
}


// ************************************************************************* //
