/*--------------------------------*- C++ -*----------------------------------*\
  =========                 |
  \\      /  F ield         | OpenFOAM: The Open Source CFD Toolbox
   \\    /   O peration     | Website:  https://openfoam.org
    \\  /    A nd           | Version:  9
     \\/     M anipulation  |
\*---------------------------------------------------------------------------*/
FoamFile
{
    format      ascii;
    class       volScalarField;
    location    "39";
    object      h;
}
// * * * * * * * * * * * * * * * * * * * * * * * * * * * * * * * * * * * * * //

dimensions      [0 1 0 0 0 0 0];

internalField   nonuniform List<scalar> 
400
(
0.0100003
0.0100003
0.0100002
0.01
0.00999982
0.00999958
0.00999932
0.00999906
0.00999883
0.00999866
0.00999857
0.00999859
0.00999873
0.00999897
0.00999927
0.00999957
0.00999982
0.00999999
0.0100001
0.01
0.0100003
0.0100002
0.0100001
0.00999996
0.00999974
0.00999949
0.00999921
0.00999892
0.00999866
0.00999845
0.00999834
0.00999838
0.00999855
0.00999883
0.00999916
0.00999948
0.00999973
0.00999987
0.00999995
0.00999998
0.0100003
0.0100002
0.0100001
0.00999997
0.00999975
0.00999948
0.00999917
0.00999884
0.00999853
0.00999828
0.00999814
0.00999816
0.00999835
0.00999871
0.00999914
0.00999956
0.00999986
0.01
0.0100001
0.01
0.0100003
0.0100003
0.0100002
0.01
0.00999979
0.00999949
0.00999913
0.00999871
0.00999828
0.00999791
0.0099977
0.00999772
0.00999804
0.00999858
0.00999918
0.00999964
0.00999988
0.00999993
0.00999992
0.00999995
0.0100004
0.0100004
0.0100003
0.0100001
0.0099999
0.00999957
0.00999913
0.00999859
0.009998
0.00999742
0.00999702
0.00999705
0.00999755
0.00999845
0.00999941
0.0100001
0.0100003
0.0100002
0.01
0.00999997
0.0100005
0.0100005
0.0100004
0.0100003
0.0100001
0.00999976
0.00999922
0.00999848
0.0099976
0.00999678
0.00999617
0.00999615
0.00999693
0.00999829
0.00999961
0.0100003
0.0100004
0.0100001
0.00999988
0.0099999
0.0100006
0.0100007
0.0100007
0.0100006
0.0100005
0.0100001
0.00999956
0.00999855
0.00999704
0.00999526
0.00999405
0.0099944
0.00999658
0.00999937
0.0100012
0.0100014
0.0100007
0.00999995
0.00999968
0.00999985
0.0100008
0.0100008
0.0100009
0.010001
0.010001
0.0100008
0.0100002
0.00999918
0.00999729
0.00999416
0.00999046
0.00999011
0.00999436
0.0100001
0.0100032
0.0100029
0.0100011
0.00999975
0.00999943
0.00999981
0.0100009
0.010001
0.0100012
0.0100015
0.0100017
0.0100018
0.0100013
0.00999939
0.00999539
0.00998964
0.0099866
0.00998964
0.00999793
0.0100036
0.0100043
0.0100023
0.0100002
0.00999924
0.00999937
0.00999985
0.0100009
0.010001
0.0100013
0.0100018
0.0100026
0.010004
0.0100058
0.0100077
0.0100048
0.00897835
0.00895229
0.00997575
0.0100087
0.0100177
0.0100103
0.0100022
0.00999872
0.00999879
0.0099997
0.0100001
0.0100008
0.010001
0.0100012
0.0100017
0.0100025
0.0100039
0.0100057
0.0100077
0.0100047
0.00897831
0.00895232
0.00997569
0.0100086
0.0100176
0.0100103
0.0100021
0.00999871
0.00999877
0.00999967
0.0100001
0.0100007
0.0100008
0.010001
0.0100012
0.0100015
0.0100016
0.0100011
0.00999918
0.00999519
0.00998946
0.00998639
0.00998949
0.00999781
0.0100035
0.0100042
0.0100021
0.0100001
0.00999921
0.00999938
0.00999986
0.0100004
0.0100005
0.0100006
0.0100006
0.0100006
0.0100004
0.00999992
0.00999887
0.00999699
0.00999389
0.00999024
0.00998983
0.0099941
0.00999982
0.010003
0.0100028
0.010001
0.00999967
0.0099994
0.0099998
0.0100002
0.0100002
0.0100002
0.0100001
0.00999998
0.00999967
0.0099991
0.0099981
0.00999659
0.00999482
0.00999358
0.00999401
0.00999621
0.00999905
0.0100009
0.0100012
0.0100005
0.00999981
0.00999958
0.00999981
0.00999988
0.00999987
0.00999982
0.0099997
0.00999949
0.00999915
0.00999862
0.00999791
0.00999706
0.00999625
0.00999569
0.00999569
0.00999651
0.00999792
0.00999927
0.01
0.0100001
0.00999991
0.00999977
0.00999987
0.00999963
0.00999959
0.00999952
0.00999937
0.00999914
0.00999882
0.0099984
0.00999788
0.00999731
0.00999675
0.00999637
0.00999643
0.00999699
0.00999793
0.00999893
0.00999964
0.00999993
0.00999992
0.00999986
0.00999991
0.00999941
0.00999936
0.00999927
0.00999912
0.0099989
0.00999861
0.00999826
0.00999786
0.00999746
0.00999713
0.00999697
0.00999704
0.00999739
0.00999799
0.00999866
0.00999921
0.00999956
0.00999971
0.0099998
0.0099999
0.00999922
0.00999917
0.00999907
0.00999892
0.00999871
0.00999845
0.00999815
0.00999784
0.00999754
0.00999731
0.0099972
0.00999728
0.00999754
0.00999797
0.00999847
0.00999895
0.00999933
0.00999958
0.00999976
0.00999991
0.00999908
0.00999903
0.00999893
0.00999878
0.00999858
0.00999835
0.00999809
0.00999783
0.00999761
0.00999745
0.00999739
0.00999745
0.00999766
0.00999801
0.00999843
0.00999886
0.00999923
0.00999952
0.00999974
0.00999991
0.00999895
0.00999889
0.00999879
0.00999863
0.00999843
0.0099982
0.00999796
0.00999773
0.00999752
0.00999738
0.00999734
0.00999742
0.00999762
0.00999793
0.00999831
0.0099987
0.00999907
0.00999938
0.00999964
0.00999986
)
;

boundaryField
{
    sides
    {
        type            zeroGradient;
    }
    inlet
    {
        type            zeroGradient;
    }
    outlet
    {
        type            fixedValue;
        value           uniform 0.01;
    }
    frontAndBack
    {
        type            empty;
    }
}


// ************************************************************************* //
