/*--------------------------------*- C++ -*----------------------------------*\
  =========                 |
  \\      /  F ield         | OpenFOAM: The Open Source CFD Toolbox
   \\    /   O peration     | Website:  https://openfoam.org
    \\  /    A nd           | Version:  9
     \\/     M anipulation  |
\*---------------------------------------------------------------------------*/
FoamFile
{
    format      ascii;
    class       volVectorField;
    location    "39";
    object      hU_0;
}
// * * * * * * * * * * * * * * * * * * * * * * * * * * * * * * * * * * * * * //

dimensions      [0 2 -1 0 0 0 0];

internalField   nonuniform List<vector> 
400
(
(0.00100001 -1.97322e-08 0)
(0.00100004 -6.0304e-08 0)
(0.00100009 -1.04411e-07 0)
(0.00100021 -1.48654e-07 0)
(0.00100038 -1.86421e-07 0)
(0.00100057 -2.14172e-07 0)
(0.00100077 -2.30829e-07 0)
(0.00100097 -2.38099e-07 0)
(0.00100116 -2.31213e-07 0)
(0.0010013 -2.11221e-07 0)
(0.00100139 -1.71629e-07 0)
(0.00100139 -1.28992e-07 0)
(0.00100128 -9.62435e-08 0)
(0.00100108 -8.92259e-08 0)
(0.00100084 -9.92228e-08 0)
(0.00100061 -1.39757e-07 0)
(0.00100042 -1.61022e-07 0)
(0.00100032 -2.026e-07 0)
(0.00100024 -1.88479e-07 0)
(0.00100031 -2.68337e-07 0)
(0.00100001 -1.63549e-08 0)
(0.00100004 -5.33655e-08 0)
(0.0010001 -1.04525e-07 0)
(0.00100023 -1.62462e-07 0)
(0.0010004 -2.09502e-07 0)
(0.00100061 -2.33009e-07 0)
(0.00100083 -2.30648e-07 0)
(0.00100106 -2.01969e-07 0)
(0.00100127 -1.41581e-07 0)
(0.00100145 -4.56411e-08 0)
(0.00100155 8.85859e-08 0)
(0.00100153 2.46413e-07 0)
(0.0010014 3.98402e-07 0)
(0.00100116 4.87373e-07 0)
(0.00100089 5.05833e-07 0)
(0.00100064 4.38802e-07 0)
(0.00100046 3.60638e-07 0)
(0.00100035 2.55401e-07 0)
(0.00100031 2.13314e-07 0)
(0.00100026 8.09279e-08 0)
(0.00100001 -3.83682e-08 0)
(0.00100004 -1.22165e-07 0)
(0.0010001 -2.322e-07 0)
(0.00100023 -3.5714e-07 0)
(0.00100041 -4.67918e-07 0)
(0.00100063 -5.44459e-07 0)
(0.00100088 -5.8127e-07 0)
(0.00100115 -5.70248e-07 0)
(0.00100141 -4.99123e-07 0)
(0.00100162 -3.48594e-07 0)
(0.00100174 -1.17e-07 0)
(0.00100174 1.60677e-07 0)
(0.00100157 4.15506e-07 0)
(0.00100128 5.3616e-07 0)
(0.00100091 5.00063e-07 0)
(0.00100059 3.33957e-07 0)
(0.00100035 1.76936e-07 0)
(0.00100025 4.1158e-08 0)
(0.0010002 6.10467e-09 0)
(0.00100027 -1.1667e-07 0)
(0.00100001 -5.54158e-08 0)
(0.00100004 -1.75634e-07 0)
(0.00100011 -3.32644e-07 0)
(0.00100024 -5.11764e-07 0)
(0.00100043 -6.74702e-07 0)
(0.00100067 -7.96839e-07 0)
(0.00100098 -8.61234e-07 0)
(0.00100132 -8.5168e-07 0)
(0.00100168 -7.31506e-07 0)
(0.001002 -4.73012e-07 0)
(0.00100219 -3.58718e-08 0)
(0.00100217 4.90864e-07 0)
(0.0010019 9.54453e-07 0)
(0.00100144 1.16032e-06 0)
(0.00100094 1.05523e-06 0)
(0.00100055 7.16258e-07 0)
(0.00100038 3.88233e-07 0)
(0.00100033 1.62597e-07 0)
(0.00100038 1.12592e-07 0)
(0.00100033 -6.36575e-10 0)
(0.00100001 -7.10897e-08 0)
(0.00100003 -2.26773e-07 0)
(0.0010001 -4.31296e-07 0)
(0.00100023 -6.74062e-07 0)
(0.00100042 -9.15114e-07 0)
(0.0010007 -1.12604e-06 0)
(0.00100107 -1.26909e-06 0)
(0.00100153 -1.30037e-06 0)
(0.00100204 -1.15007e-06 0)
(0.00100254 -7.75244e-07 0)
(0.00100288 -1.83142e-07 0)
(0.00100286 5.74222e-07 0)
(0.00100241 1.2471e-06 0)
(0.00100164 1.5322e-06 0)
(0.00100083 1.37581e-06 0)
(0.00100028 9.36336e-07 0)
(0.00100011 5.4221e-07 0)
(0.0010002 3.07053e-07 0)
(0.00100035 2.75766e-07 0)
(0.00100041 1.67241e-07 0)
(0.00100001 -8.38003e-08 0)
(0.00100002 -2.67501e-07 0)
(0.00100007 -5.17123e-07 0)
(0.00100018 -8.26019e-07 0)
(0.00100036 -1.16905e-06 0)
(0.00100066 -1.51385e-06 0)
(0.00100112 -1.83084e-06 0)
(0.00100176 -2.01812e-06 0)
(0.00100252 -1.88661e-06 0)
(0.00100323 -1.19905e-06 0)
(0.00100374 7.15097e-08 0)
(0.00100374 1.53638e-06 0)
(0.00100306 2.4541e-06 0)
(0.00100189 2.32991e-06 0)
(0.00100079 1.43247e-06 0)
(0.00100016 4.66236e-07 0)
(0.00100015 -2.31796e-08 0)
(0.00100035 -9.45575e-08 0)
(0.00100062 6.90339e-08 0)
(0.00100054 4.84809e-08 0)
(0.001 -8.5352e-08 0)
(0.000999996 -2.87601e-07 0)
(0.00100001 -5.61651e-07 0)
(0.00100006 -9.46316e-07 0)
(0.00100019 -1.39107e-06 0)
(0.00100046 -1.93825e-06 0)
(0.00100097 -2.4662e-06 0)
(0.00100186 -3.05438e-06 0)
(0.00100318 -3.21284e-06 0)
(0.0010047 -2.88242e-06 0)
(0.0010057 -6.81553e-07 0)
(0.00100532 2.54909e-06 0)
(0.00100346 4.84228e-06 0)
(0.00100109 4.75834e-06 0)
(0.000999578 3.03071e-06 0)
(0.000999345 1.23734e-06 0)
(0.00099998 3.94574e-07 0)
(0.00100054 3.18738e-07 0)
(0.00100091 5.71005e-07 0)
(0.00100065 5.31344e-07 0)
(0.000999998 -7.92648e-08 0)
(0.000999958 -2.52387e-07 0)
(0.000999895 -5.45077e-07 0)
(0.000999863 -9.44729e-07 0)
(0.000999859 -1.57766e-06 0)
(0.00100007 -2.34035e-06 0)
(0.00100047 -3.38594e-06 0)
(0.00100149 -4.10352e-06 0)
(0.00100305 -4.36052e-06 0)
(0.00100599 -2.54775e-06 0)
(0.00100906 7.43156e-07 0)
(0.00100909 4.26785e-06 0)
(0.00100546 4.73401e-06 0)
(0.0010007 2.79908e-06 0)
(0.000998123 7.38334e-07 0)
(0.00099825 -2.94837e-07 0)
(0.000999775 -3.16281e-07 0)
(0.00100085 -1.93316e-08 0)
(0.00100132 2.14752e-07 0)
(0.00100085 9.94183e-08 0)
(0.000999997 -4.03958e-08 0)
(0.000999904 -1.79814e-07 0)
(0.000999746 -3.65716e-07 0)
(0.000999521 -7.27359e-07 0)
(0.000999268 -1.33965e-06 0)
(0.000999181 -2.48062e-06 0)
(0.000999673 -4.67961e-06 0)
(0.00100136 -8.05815e-06 0)
(0.00100489 -1.32799e-05 0)
(0.00100955 -1.49116e-05 0)
(0.00101186 3.83477e-06 0)
(0.00100889 1.87339e-05 0)
(0.00100216 1.5798e-05 0)
(0.000997524 5.75988e-06 0)
(0.000996856 -3.10465e-07 0)
(0.000998436 -1.27326e-06 0)
(0.00100025 -1.15191e-07 0)
(0.00100098 6.2421e-07 0)
(0.00100106 6.47013e-07 0)
(0.00100054 2.37688e-07 0)
(0.000999805 -1.60544e-08 0)
(0.00100016 -5.71163e-08 0)
(0.000999206 -1.43473e-07 0)
(0.000999895 -2.46062e-07 0)
(0.000997502 -5.94096e-07 0)
(0.000998812 -1.13448e-06 0)
(0.000993311 -2.88576e-06 0)
(0.000997498 -5.59503e-06 0)
(0.000991638 -1.15433e-05 0)
(0.000915801 -1.27092e-05 0)
(0.000951431 2.75039e-07 0)
(0.00101017 1.4641e-05 0)
(0.000990897 1.30927e-05 0)
(0.000983934 5.15468e-06 0)
(0.000989557 2.01437e-07 0)
(0.000996257 -7.83098e-07 0)
(0.000999211 -1.2088e-07 0)
(0.000999388 2.39449e-07 0)
(0.000998636 1.63291e-07 0)
(0.000998504 -1.92532e-07 0)
(0.000999805 1.08483e-08 0)
(0.00100016 3.96651e-08 0)
(0.000999206 1.12005e-07 0)
(0.000999894 1.97574e-07 0)
(0.0009975 5.27502e-07 0)
(0.000998807 1.04622e-06 0)
(0.000993303 2.77748e-06 0)
(0.000997488 5.46348e-06 0)
(0.000991622 1.13911e-05 0)
(0.000915781 1.25459e-05 0)
(0.000951395 -4.74194e-07 0)
(0.00101015 -1.49012e-05 0)
(0.000990896 -1.34007e-05 0)
(0.000983924 -5.52843e-06 0)
(0.000989535 -6.38883e-07 0)
(0.000996218 2.55272e-07 0)
(0.000999168 -4.70456e-07 0)
(0.000999341 -1.00854e-06 0)
(0.000998623 -1.00441e-06 0)
(0.000998454 -8.97278e-07 0)
(0.000999997 3.55727e-08 0)
(0.000999903 1.63344e-07 0)
(0.000999746 3.35181e-07 0)
(0.000999522 6.79427e-07 0)
(0.000999268 1.27345e-06 0)
(0.000999182 2.39266e-06 0)
(0.00099967 4.57106e-06 0)
(0.00100136 7.92113e-06 0)
(0.00100487 1.31142e-05 0)
(0.00100954 1.47114e-05 0)
(0.00101187 -4.05797e-06 0)
(0.00100886 -1.90023e-05 0)
(0.00100209 -1.60966e-05 0)
(0.000997438 -6.12408e-06 0)
(0.000996783 -7.72379e-08 0)
(0.000998375 7.92246e-07 0)
(0.00100014 -4.14289e-07 0)
(0.00100083 -1.30775e-06 0)
(0.00100087 -1.39793e-06 0)
(0.00100037 -1.25982e-06 0)
(0.000999998 7.4981e-08 0)
(0.000999957 2.3723e-07 0)
(0.000999894 5.15578e-07 0)
(0.000999861 8.97572e-07 0)
(0.000999853 1.50885e-06 0)
(0.00100005 2.24805e-06 0)
(0.00100045 3.2665e-06 0)
(0.00100146 3.95898e-06 0)
(0.001003 4.18717e-06 0)
(0.00100592 2.35677e-06 0)
(0.00100895 -9.69161e-07 0)
(0.00100901 -4.53482e-06 0)
(0.00100538 -5.02317e-06 0)
(0.00100063 -3.13427e-06 0)
(0.000998029 -1.12296e-06 0)
(0.000998111 -2.2405e-07 0)
(0.000999599 -2.97236e-07 0)
(0.00100062 -7.43842e-07 0)
(0.00100105 -9.91092e-07 0)
(0.00100055 -1.08325e-06 0)
(0.001 8.14194e-08 0)
(0.000999994 2.72931e-07 0)
(0.00100001 5.33886e-07 0)
(0.00100006 9.01692e-07 0)
(0.00100018 1.32793e-06 0)
(0.00100044 1.85536e-06 0)
(0.00100095 2.36673e-06 0)
(0.00100183 2.93781e-06 0)
(0.00100315 3.08579e-06 0)
(0.00100465 2.72942e-06 0)
(0.00100564 5.16901e-07 0)
(0.00100524 -2.73868e-06 0)
(0.00100335 -5.07948e-06 0)
(0.00100093 -5.07655e-06 0)
(0.000999383 -3.43752e-06 0)
(0.000999099 -1.76168e-06 0)
(0.00099972 -9.8899e-07 0)
(0.00100023 -1.0608e-06 0)
(0.0010006 -1.33414e-06 0)
(0.00100023 -1.52519e-06 0)
(0.001 8.01249e-08 0)
(0.00100002 2.54173e-07 0)
(0.00100007 4.92585e-07 0)
(0.00100017 7.87702e-07 0)
(0.00100035 1.11526e-06 0)
(0.00100064 1.44231e-06 0)
(0.00100109 1.74205e-06 0)
(0.00100171 1.90726e-06 0)
(0.00100245 1.75249e-06 0)
(0.00100314 1.032e-06 0)
(0.00100363 -2.58931e-07 0)
(0.0010036 -1.7682e-06 0)
(0.00100289 -2.71551e-06 0)
(0.00100168 -2.63882e-06 0)
(0.00100055 -1.76774e-06 0)
(0.00099988 -8.62589e-07 0)
(0.000999835 -3.94017e-07 0)
(0.000999962 -4.48362e-07 0)
(0.0010002 -6.44259e-07 0)
(0.000999991 -8.58324e-07 0)
(0.00100001 6.76035e-08 0)
(0.00100003 2.14855e-07 0)
(0.0010001 4.10012e-07 0)
(0.00100022 6.42712e-07 0)
(0.00100041 8.71462e-07 0)
(0.00100068 1.06722e-06 0)
(0.00100104 1.19357e-06 0)
(0.00100148 1.20875e-06 0)
(0.00100197 1.04295e-06 0)
(0.00100246 6.52606e-07 0)
(0.00100277 3.32703e-08 0)
(0.00100271 -7.58171e-07 0)
(0.00100225 -1.45434e-06 0)
(0.00100143 -1.78267e-06 0)
(0.00100059 -1.65925e-06 0)
(0.00099998 -1.31605e-06 0)
(0.000999774 -9.9585e-07 0)
(0.000999749 -9.38855e-07 0)
(0.000999866 -9.74169e-07 0)
(0.000999748 -1.11785e-06 0)
(0.00100001 5.23314e-08 0)
(0.00100004 1.64978e-07 0)
(0.0010001 3.13091e-07 0)
(0.00100023 4.82768e-07 0)
(0.00100042 6.37469e-07 0)
(0.00100065 7.50489e-07 0)
(0.00100094 8.05983e-07 0)
(0.00100127 7.8731e-07 0)
(0.0010016 6.63345e-07 0)
(0.00100188 4.01208e-07 0)
(0.00100204 -3.558e-08 0)
(0.00100198 -5.67464e-07 0)
(0.00100168 -1.04253e-06 0)
(0.00100117 -1.29118e-06 0)
(0.00100062 -1.2216e-06 0)
(0.00100014 -9.64343e-07 0)
(0.000999893 -6.71788e-07 0)
(0.000999723 -5.59227e-07 0)
(0.000999732 -5.13039e-07 0)
(0.000999538 -6.06139e-07 0)
(0.00100001 3.63478e-08 0)
(0.00100004 1.13446e-07 0)
(0.0010001 2.13506e-07 0)
(0.00100023 3.23239e-07 0)
(0.0010004 4.15438e-07 0)
(0.00100061 4.70402e-07 0)
(0.00100085 4.83177e-07 0)
(0.0010011 4.42891e-07 0)
(0.00100134 3.39904e-07 0)
(0.00100154 1.52752e-07 0)
(0.00100164 -1.06332e-07 0)
(0.00100158 -4.15362e-07 0)
(0.00100137 -6.8864e-07 0)
(0.00100101 -8.50315e-07 0)
(0.00100061 -8.43769e-07 0)
(0.00100019 -7.47709e-07 0)
(0.00099993 -6.14004e-07 0)
(0.000999675 -5.96593e-07 0)
(0.000999607 -5.79248e-07 0)
(0.000999361 -6.89835e-07 0)
(0.00100001 2.6302e-08 0)
(0.00100004 8.24787e-08 0)
(0.00100009 1.53315e-07 0)
(0.00100021 2.30823e-07 0)
(0.00100037 2.96948e-07 0)
(0.00100055 3.40825e-07 0)
(0.00100075 3.59422e-07 0)
(0.00100096 3.50508e-07 0)
(0.00100114 3.07713e-07 0)
(0.00100127 2.23208e-07 0)
(0.00100134 9.28533e-08 0)
(0.0010013 -6.52372e-08 0)
(0.00100113 -2.08773e-07 0)
(0.00100084 -3.01974e-07 0)
(0.00100051 -3.08598e-07 0)
(0.00100014 -2.66736e-07 0)
(0.000999884 -1.86522e-07 0)
(0.000999601 -1.68317e-07 0)
(0.000999494 -1.30205e-07 0)
(0.000999221 -2.01898e-07 0)
(0.00100001 -6.12406e-09 0)
(0.00100004 -1.62454e-08 0)
(0.0010001 -1.99653e-08 0)
(0.00100021 -1.93305e-08 0)
(0.00100037 -1.97319e-08 0)
(0.00100055 -2.58755e-08 0)
(0.00100074 -3.82118e-08 0)
(0.00100093 -5.82295e-08 0)
(0.00100109 -8.52269e-08 0)
(0.00100121 -1.22408e-07 0)
(0.00100126 -1.66667e-07 0)
(0.0010012 -2.3022e-07 0)
(0.00100105 -2.92612e-07 0)
(0.00100078 -3.42901e-07 0)
(0.0010005 -3.57607e-07 0)
(0.00100015 -3.62009e-07 0)
(0.000999928 -3.36183e-07 0)
(0.000999597 -3.52404e-07 0)
(0.000999499 -3.31806e-07 0)
(0.000999101 -4.11544e-07 0)
)
;

boundaryField
{
    sides
    {
        type            slip;
    }
    inlet
    {
        type            fixedValue;
        value           uniform (0.001 0 0);
    }
    outlet
    {
        type            zeroGradient;
    }
    frontAndBack
    {
        type            empty;
    }
}


// ************************************************************************* //
