2.80937e-05    56.1674
8.78022e-05    337.879
0.000154994    851.894
0.000230608    979.286
0.000315699    848.696
0.000411455    684.948
0.000519212    547.723
0.000640475    441.611
0.000776937    360.396
0.000930502    297.604
0.00110331    248.305
0.00129779    208.988
0.00151663    177.181
0.00176291    151.122
0.00204005     129.54
0.00235193    111.496
 0.0027029     96.288
0.00309785    83.3788
0.00354231    72.3538
0.00404248     62.887
0.00460533    54.7191
0.00523873    47.6415
0.00595151    41.4847
0.00675364    36.1098
 0.0076563    31.4017
0.00867209    27.2645
 0.0098152    23.6181
 0.0111016    20.3945
 0.0125492    17.5366
 0.0141782    14.9956
 0.0160115    12.7304
 0.0180745    10.7063
  0.020396    8.89502
 0.0230086    7.27474
 0.0259485    5.83126
  0.029257    4.56027
 0.0329801    3.47055
 0.0371699    2.58668
 0.0418848    1.94669
 0.0471906    1.59537
 0.0528094    1.59676
 0.0581152    1.95072
 0.0628301    2.59292
 0.0670199    3.47843
  0.070743    4.56925
 0.0740515    5.84093
 0.0769914    7.28482
  0.079604    8.90531
 0.0819255    10.7166
 0.0839885    12.7407
 0.0858218    15.0057
 0.0874508    17.5463
 0.0888984    20.4037
 0.0901848    23.6265
 0.0913279    27.2721
 0.0923437     31.408
 0.0932464    36.1146
 0.0940485    41.4877
 0.0947613    47.6422
 0.0953947     54.717
 0.0959575    62.8817
 0.0964577    72.3447
 0.0969021    83.3651
 0.0972971    96.2688
 0.0976481    111.471
   0.09796    129.507
 0.0982371     151.08
 0.0984834    177.128
 0.0987022    208.923
 0.0988967    248.225
 0.0990695    297.506
 0.0992231    360.275
 0.0993595    441.461
 0.0994808    547.535
 0.0995885    684.711
 0.0996843    848.388
 0.0997694    978.884
  0.099845    851.443
 0.0999122    337.673
 0.0999719    56.1351
