2.80937e-05    22623.8
8.78022e-05    19907.2
0.000154994    14212.3
0.000230608    8941.88
0.000315699    5800.91
0.000411455    4008.13
0.000519212    2925.23
0.000640475    2231.04
0.000776937    1759.87
0.000930502    1423.95
0.00110331    1174.58
0.00129779    983.339
0.00151663    832.806
0.00176291    711.814
0.00204005    612.917
0.00235193    530.971
 0.0027029    462.308
0.00309785    404.244
0.00354231    354.763
0.00404248     312.32
0.00460533     275.71
0.00523873    243.975
0.00595151    216.347
0.00675364    192.196
 0.0076563    171.005
0.00867209    152.341
 0.0098152    135.841
 0.0111016    121.193
 0.0125492    108.128
 0.0141782     96.409
 0.0160115    85.8192
 0.0180745    76.1562
  0.020396     67.218
 0.0230086     58.791
 0.0259485    50.6339
  0.029257    42.4663
 0.0329801    33.9849
 0.0371699    24.9506
 0.0418848    15.3252
 0.0471906    5.16618
 0.0528094    5.25408
 0.0581152    15.4076
 0.0628301    25.0212
 0.0670199    34.0401
  0.070743    42.5067
 0.0740515    50.6621
 0.0769914    58.8097
  0.079604    67.2291
 0.0819255     76.161
 0.0839885    85.8185
 0.0858218    96.4029
 0.0874508    108.117
 0.0888984    121.177
 0.0901848    135.819
 0.0913279    152.313
 0.0923437    170.969
 0.0932464    192.152
 0.0940485    216.295
 0.0947613    243.913
 0.0953947    275.637
 0.0959575    312.235
 0.0964577    354.664
 0.0969021     404.13
 0.0972971    462.178
 0.0976481    530.821
   0.09796    612.747
 0.0982371     711.62
 0.0984834    832.586
 0.0987022     983.09
 0.0988967     1174.3
 0.0990695    1423.63
 0.0992231    1759.51
 0.0993595    2230.64
 0.0994808    2924.79
 0.0995885    4007.63
 0.0996843    5800.34
 0.0997694    8941.12
  0.099845    14210.7
 0.0999122    19903.8
 0.0999719      22619
