2.80937e-05  0.0082391
8.78022e-05   0.157659
0.000154994   0.483366
0.000230608   0.669081
0.000315699   0.739445
0.000411455   0.763017
0.000519212   0.768198
0.000640475   0.766137
0.000776937   0.761239
0.000930502   0.755286
0.00110331   0.748994
0.00129779   0.742622
0.00151663   0.736228
0.00176291   0.729781
0.00204005   0.723204
0.00235193   0.716403
 0.0027029   0.709276
0.00309785   0.701713
0.00354231   0.693603
0.00404248   0.684832
0.00460533    0.67528
0.00523873   0.664822
0.00595151   0.653326
0.00675364    0.64065
 0.0076563   0.626644
0.00867209   0.611144
 0.0098152   0.593975
 0.0111016   0.574949
 0.0125492   0.553864
 0.0141782   0.530513
 0.0160115   0.504685
 0.0180745    0.47619
  0.020396   0.444883
 0.0230086   0.410735
 0.0259485    0.37395
  0.029257   0.335181
 0.0329801   0.295885
 0.0371699   0.258803
 0.0418848   0.228251
 0.0471906   0.209819
 0.0528094   0.209922
 0.0581152   0.228536
 0.0628301   0.259216
 0.0670199   0.296373
  0.070743     0.3357
 0.0740515   0.374475
 0.0769914    0.41125
  0.079604   0.445377
 0.0819255   0.476659
 0.0839885   0.505128
 0.0858218   0.530926
 0.0874508   0.554248
 0.0888984   0.575302
 0.0901848   0.594298
 0.0913279   0.611437
 0.0923437   0.626906
 0.0932464   0.640882
 0.0940485   0.653529
 0.0947613   0.664996
 0.0953947   0.675426
 0.0959575    0.68495
 0.0964577   0.693695
 0.0969021   0.701778
 0.0972971   0.709316
 0.0976481    0.71642
   0.09796   0.723198
 0.0982371   0.729753
 0.0984834    0.73618
 0.0987022   0.742555
 0.0988967   0.748909
 0.0990695   0.755185
 0.0992231   0.761123
 0.0993595   0.766007
 0.0994808   0.768055
 0.0995885   0.762863
 0.0996843    0.73928
 0.0997694   0.668907
  0.099845   0.483196
 0.0999122   0.157585
 0.0999719 0.00823513
