2.80937e-05 0.00549273
8.78022e-05   0.105106
0.000154994   0.322244
0.000230608   0.446054
0.000315699   0.492964
0.000411455   0.508678
0.000519212   0.512132
0.000640475   0.510758
0.000776937   0.507493
0.000930502   0.503524
0.00110331   0.499329
0.00129779   0.495081
0.00151663   0.490819
0.00176291    0.48652
0.00204005   0.482136
0.00235193   0.477602
 0.0027029    0.47285
0.00309785   0.467809
0.00354231   0.462402
0.00404248   0.456555
0.00460533   0.450187
0.00523873   0.443215
0.00595151   0.435551
0.00675364     0.4271
 0.0076563   0.417763
0.00867209    0.40743
 0.0098152   0.395984
 0.0111016   0.383299
 0.0125492   0.369243
 0.0141782   0.353675
 0.0160115   0.336457
 0.0180745    0.31746
  0.020396   0.296589
 0.0230086   0.273824
 0.0259485     0.2493
  0.029257   0.223454
 0.0329801   0.197257
 0.0371699   0.172535
 0.0418848   0.152167
 0.0471906   0.139879
 0.0528094   0.139948
 0.0581152   0.152357
 0.0628301   0.172811
 0.0670199   0.197582
  0.070743     0.2238
 0.0740515    0.24965
 0.0769914   0.274166
  0.079604   0.296918
 0.0819255   0.317773
 0.0839885   0.336752
 0.0858218   0.353951
 0.0874508   0.369498
 0.0888984   0.383535
 0.0901848   0.396199
 0.0913279   0.407624
 0.0923437   0.417937
 0.0932464   0.427255
 0.0940485   0.435686
 0.0947613   0.443331
 0.0953947   0.450284
 0.0959575   0.456634
 0.0964577   0.462463
 0.0969021   0.467852
 0.0972971   0.472878
 0.0976481   0.477613
   0.09796   0.482132
 0.0982371   0.486502
 0.0984834   0.490787
 0.0987022   0.495036
 0.0988967   0.499273
 0.0990695   0.503457
 0.0992231   0.507415
 0.0993595   0.510671
 0.0994808   0.512037
 0.0995885   0.508575
 0.0996843   0.492853
 0.0997694   0.445938
  0.099845   0.322131
 0.0999122   0.105056
 0.0999719 0.00549009
