2.80937e-05 -8.34822e-05
8.78022e-05 -0.00994989
0.000154994 -0.0849754
0.000230608  -0.145468
0.000315699  -0.175735
0.000411455  -0.192326
0.000519212  -0.201573
0.000640475  -0.207009
0.000776937  -0.210331
0.000930502  -0.212383
0.00110331  -0.213604
0.00129779  -0.214235
0.00151663  -0.214414
0.00176291  -0.214225
0.00204005  -0.213713
0.00235193  -0.212908
 0.0027029   -0.21182
0.00309785  -0.210452
0.00354231  -0.208794
0.00404248  -0.206833
0.00460533  -0.204547
0.00523873  -0.201907
0.00595151  -0.198881
0.00675364  -0.195426
 0.0076563  -0.191495
0.00867209  -0.187033
 0.0098152  -0.181977
 0.0111016  -0.176256
 0.0125492  -0.169786
 0.0141782  -0.162477
 0.0160115  -0.154223
 0.0180745  -0.144905
  0.020396  -0.134388
 0.0230086  -0.122519
 0.0259485  -0.109127
  0.029257 -0.0940308
 0.0329801 -0.0770584
 0.0371699 -0.0580749
 0.0418848 -0.0368707
 0.0471906 -0.0128166
 0.0528094  0.0130361
 0.0581152  0.0370849
 0.0628301   0.058285
 0.0670199  0.0772628
  0.070743  0.0942271
 0.0740515   0.109314
 0.0769914   0.122695
  0.079604   0.134554
 0.0819255    0.14506
 0.0839885   0.154368
 0.0858218   0.162612
 0.0874508    0.16991
 0.0888984   0.176369
 0.0901848   0.182081
 0.0913279   0.187126
 0.0923437   0.191578
 0.0932464   0.195499
 0.0940485   0.198944
 0.0947613   0.201961
 0.0953947   0.204591
 0.0959575   0.206868
 0.0964577    0.20882
 0.0969021   0.210469
 0.0972971    0.21183
 0.0976481    0.21291
   0.09796   0.213709
 0.0982371   0.214214
 0.0984834   0.214398
 0.0987022   0.214213
 0.0988967   0.213577
 0.0990695   0.212352
 0.0992231   0.210297
 0.0993595   0.206972
 0.0994808   0.201533
 0.0995885   0.192285
 0.0996843   0.175692
 0.0997694   0.145425
  0.099845  0.0849366
 0.0999122 0.00994259
 0.0999719 8.34318e-05
