2.80937e-05   0.074113
8.78022e-05   0.324201
0.000154994   0.567665
0.000230608   0.667873
0.000315699   0.702114
0.000411455   0.713217
0.000519212   0.715634
0.000640475   0.714673
0.000776937   0.712385
0.000930502   0.709594
0.00110331   0.706632
0.00129779    0.70362
0.00151663   0.700585
0.00176291    0.69751
0.00204005    0.69436
0.00235193   0.691088
 0.0027029   0.687641
0.00309785   0.683965
0.00354231   0.680002
0.00404248   0.675688
0.00460533    0.67096
0.00523873   0.665744
0.00595151   0.659963
0.00675364   0.653529
 0.0076563   0.646346
0.00867209   0.638302
 0.0098152   0.629272
 0.0111016   0.619112
 0.0125492   0.607654
 0.0141782   0.594706
 0.0160115   0.580049
 0.0180745   0.563436
  0.020396   0.544599
 0.0230086   0.523282
 0.0259485     0.4993
  0.029257   0.472709
 0.0329801   0.444136
 0.0371699   0.415374
 0.0418848   0.390087
 0.0471906   0.374005
 0.0528094   0.374097
 0.0581152    0.39033
 0.0628301   0.415705
 0.0670199   0.444502
  0.070743   0.473075
 0.0740515    0.49965
 0.0769914   0.523609
  0.079604   0.544902
 0.0819255   0.563714
 0.0839885   0.580303
 0.0858218   0.594938
 0.0874508   0.607864
 0.0888984   0.619302
 0.0901848   0.629443
 0.0913279   0.638455
 0.0923437   0.646481
 0.0932464   0.653647
 0.0940485   0.660065
 0.0947613   0.665831
 0.0953947   0.671032
 0.0959575   0.675747
 0.0964577   0.680046
 0.0969021   0.683997
 0.0972971   0.687661
 0.0976481   0.691096
   0.09796   0.694357
 0.0982371   0.697497
 0.0984834   0.700562
 0.0987022   0.703588
 0.0988967   0.706592
 0.0990695   0.709547
 0.0992231   0.712331
 0.0993595   0.714613
 0.0994808   0.715568
 0.0995885   0.713145
 0.0996843   0.702035
 0.0997694   0.667786
  0.099845   0.567566
 0.0999122   0.324124
 0.0999719  0.0740951
