/*--------------------------------*- C++ -*----------------------------------*\
  =========                 |
  \\      /  F ield         | OpenFOAM: The Open Source CFD Toolbox
   \\    /   O peration     | Website:  https://openfoam.org
    \\  /    A nd           | Version:  9
     \\/     M anipulation  |
\*---------------------------------------------------------------------------*/
FoamFile
{
    format      ascii;
    class       volScalarField;
    location    "46";
    object      ddt0(h);
}
// * * * * * * * * * * * * * * * * * * * * * * * * * * * * * * * * * * * * * //

dimensions      [0 1 -1 0 0 0 0];

internalField   nonuniform List<scalar> 
400
(
-1.0116e-07
-6.4313e-08
-5.61055e-08
-4.75103e-08
-3.6425e-08
-4.27579e-08
-6.66516e-08
-7.51652e-08
-6.28182e-08
-6.59799e-08
-5.52201e-08
-4.02805e-08
-3.06734e-10
2.72608e-08
3.40152e-08
3.02153e-08
9.84497e-09
-3.96994e-09
3.05989e-09
3.20399e-09
-8.13748e-08
-6.24877e-08
-5.62726e-08
-4.65723e-08
-4.02976e-08
-5.9779e-08
-6.34599e-08
-5.47022e-08
-3.31131e-08
-2.67769e-08
-3.73383e-08
-8.61649e-10
1.57699e-09
3.70404e-08
5.07588e-08
4.99847e-08
3.75864e-08
1.81004e-08
3.99216e-09
7.38063e-10
-5.64721e-08
-6.06133e-08
-5.71516e-08
-4.57219e-08
-6.01011e-08
-6.31649e-08
-4.5435e-08
7.61743e-09
-2.10423e-08
1.38232e-08
-2.93232e-08
-1.3365e-09
1.79221e-08
2.85775e-09
3.94595e-08
6.33784e-08
6.45954e-08
5.03015e-08
1.96555e-08
-7.62224e-10
-4.02189e-08
-5.54181e-08
-5.07617e-08
-5.23334e-08
-6.43726e-08
-4.35537e-08
1.70586e-08
1.11823e-08
-2.2144e-10
-5.04083e-08
3.79529e-08
-7.60903e-08
-4.85955e-09
-1.21589e-08
-1.64086e-08
2.98919e-08
6.25152e-08
6.05103e-08
2.489e-08
1.81092e-09
-4.11779e-08
-4.98548e-08
-4.29024e-08
-4.80357e-08
-4.91666e-08
3.01886e-09
3.67228e-08
-4.65184e-08
6.19425e-09
-5.10752e-08
-1.09236e-07
4.15722e-08
-7.77328e-08
-9.30747e-09
4.92004e-09
-4.30443e-10
3.31012e-08
4.71589e-08
2.15807e-08
9.43147e-10
-5.00512e-08
-5.30258e-08
-3.11408e-08
-3.26089e-08
-2.12058e-08
3.09238e-08
-2.42546e-08
3.38993e-09
-9.61016e-08
1.2081e-07
-1.18338e-07
-2.02015e-08
6.70601e-08
-2.96689e-08
-5.48159e-09
9.32335e-09
1.77144e-08
2.09311e-08
9.69586e-09
5.39395e-10
-5.98615e-08
-5.29873e-08
-2.345e-08
-1.86056e-08
-8.14869e-09
1.26024e-09
2.26099e-10
-6.49732e-08
1.2581e-07
-2.43652e-07
4.7415e-07
-2.26515e-07
-1.92362e-08
6.66502e-08
1.87289e-08
1.32436e-08
2.07519e-08
2.2595e-08
1.57387e-08
5.63232e-09
-6.48506e-08
-5.08172e-08
-1.91817e-08
-2.0213e-08
-2.27775e-08
4.55582e-09
-8.51936e-09
3.85886e-08
-6.90855e-09
-1.26547e-07
-2.02566e-06
2.30135e-07
-9.96189e-08
-2.55359e-08
2.06921e-08
2.24109e-08
3.72708e-08
3.67654e-08
2.92905e-08
1.3072e-08
-6.72427e-08
-4.70713e-08
-2.77774e-08
-2.7305e-08
-3.17013e-08
1.15527e-10
5.12536e-08
6.72875e-10
5.16379e-08
1.21774e-07
2.01184e-06
-2.57941e-07
8.7079e-08
3.59636e-09
-1.81678e-08
5.04163e-09
1.16195e-07
4.48756e-08
3.50271e-08
2.55627e-08
-6.66157e-08
-5.18989e-08
-4.11292e-08
-3.31069e-08
-1.65301e-08
2.77416e-09
2.85504e-08
7.73672e-08
-1.05023e-07
2.12163e-07
-4.35873e-07
2.17553e-07
1.4181e-08
-3.73512e-08
3.82657e-09
2.43936e-08
-5.68768e-08
1.94997e-08
2.13381e-08
-8.26911e-10
-6.73658e-08
-5.78187e-08
-5.59067e-08
-2.43648e-08
6.49959e-09
3.44597e-09
1.49424e-08
3.26746e-09
7.04261e-08
-1.61597e-07
1.47316e-07
1.11453e-07
-9.2171e-08
2.72721e-08
3.93264e-08
4.03344e-08
1.63792e-08
1.8654e-09
-7.08587e-10
2.83216e-10
-6.74188e-08
-5.85994e-08
-5.69035e-08
-2.37231e-08
2.74898e-08
1.22428e-08
-3.65088e-09
1.71034e-08
-9.00293e-08
2.24954e-07
1.48203e-06
1.84613e-07
1.27583e-07
2.1545e-08
2.81202e-08
3.30556e-08
3.65569e-09
-1.22278e-08
-6.2621e-09
1.29179e-10
-6.3557e-08
-5.32058e-08
-4.61315e-08
-2.26105e-08
1.0662e-08
2.46138e-08
-7.82105e-09
8.21058e-09
7.35132e-08
-2.33191e-07
-1.21268e-06
-2.09334e-07
-5.15269e-08
3.42677e-08
3.60717e-08
2.00353e-08
4.197e-09
1.72722e-09
1.10146e-08
9.18231e-09
-5.237e-08
-4.80684e-08
-3.54281e-08
-2.33758e-08
-1.15986e-08
-5.01663e-11
2.09989e-08
1.44104e-08
1.2439e-08
1.13219e-07
-2.88727e-07
-8.3288e-08
3.065e-08
1.53967e-08
1.3458e-08
1.75553e-08
3.01147e-08
2.82475e-08
2.63641e-08
1.39984e-08
-3.64958e-08
-5.01035e-08
-3.78135e-08
-1.87703e-08
-2.18734e-08
-3.02759e-08
1.00189e-08
1.74875e-08
4.72689e-08
7.94363e-09
2.93023e-08
1.01921e-08
6.64832e-09
1.74978e-08
8.15292e-09
3.41567e-08
5.36353e-08
3.99844e-08
1.92424e-08
6.4379e-09
-2.59863e-08
-5.32981e-08
-5.46351e-08
-2.20579e-08
-8.12038e-09
-3.16811e-08
-2.68115e-08
1.95983e-08
3.3598e-09
2.61162e-08
2.17595e-12
1.13383e-08
2.59726e-08
1.13409e-08
3.15741e-08
4.85361e-08
4.88414e-08
2.83085e-08
-1.29249e-09
-7.12399e-09
-2.87798e-08
-5.11093e-08
-6.88389e-08
-3.95488e-08
1.66683e-09
-4.91895e-09
-3.39763e-08
-2.4896e-08
-1.52947e-08
-5.7459e-09
1.00153e-09
1.5409e-08
7.04842e-09
2.76664e-08
4.53776e-08
3.34921e-08
2.10822e-08
1.3014e-08
-7.40278e-09
-1.08633e-08
-4.85512e-08
-4.28146e-08
-6.29463e-08
-5.48443e-08
-1.47043e-08
7.94252e-09
-1.52735e-08
-3.87873e-08
-3.763e-08
-3.20826e-08
-2.34267e-08
-1.1085e-08
-1.43588e-09
1.9981e-08
2.74784e-08
1.09129e-08
2.91539e-09
1.42432e-08
1.18067e-08
1.05339e-09
-7.40706e-08
-4.10383e-08
-3.9258e-08
-5.18469e-08
-4.26275e-08
-2.20492e-08
-1.90715e-08
-3.49869e-08
-4.21074e-08
-2.97043e-08
-1.47331e-08
-9.10199e-09
4.66829e-09
2.2532e-08
3.15713e-08
2.80468e-08
2.63408e-08
3.93109e-08
4.78755e-08
2.27495e-08
-8.77021e-08
-4.21082e-08
-1.92568e-08
-3.84908e-08
-5.69497e-08
-5.34325e-08
-3.69139e-08
-3.82178e-08
-3.94063e-08
-2.51779e-08
-7.70598e-09
2.3064e-09
1.95652e-08
3.80444e-08
4.76186e-08
5.49796e-08
5.3926e-08
5.67108e-08
6.72742e-08
3.65512e-08
)
;

boundaryField
{
    sides
    {
        type            calculated;
        value           nonuniform List<scalar> 
40
(
-8.77021e-08
-4.21082e-08
-1.92568e-08
-3.84908e-08
-5.69497e-08
-5.34325e-08
-3.69139e-08
-3.82178e-08
-3.94063e-08
-2.51779e-08
-7.70598e-09
2.3064e-09
1.95652e-08
3.80444e-08
4.76186e-08
5.49796e-08
5.3926e-08
5.67108e-08
6.72742e-08
3.65512e-08
-1.0116e-07
-6.4313e-08
-5.61055e-08
-4.75103e-08
-3.6425e-08
-4.27579e-08
-6.66516e-08
-7.51652e-08
-6.28182e-08
-6.59799e-08
-5.52201e-08
-4.02805e-08
-3.06734e-10
2.72608e-08
3.40152e-08
3.02153e-08
9.84497e-09
-3.96994e-09
3.05989e-09
3.20399e-09
)
;
    }
    inlet
    {
        type            calculated;
        value           nonuniform List<scalar> 
20
(
-1.0116e-07
-8.13748e-08
-5.64721e-08
-4.02189e-08
-4.11779e-08
-5.00512e-08
-5.98615e-08
-6.48506e-08
-6.72427e-08
-6.66157e-08
-6.73658e-08
-6.74188e-08
-6.3557e-08
-5.237e-08
-3.64958e-08
-2.59863e-08
-2.87798e-08
-4.85512e-08
-7.40706e-08
-8.77021e-08
)
;
    }
    outlet
    {
        type            calculated;
        value           uniform 0;
    }
    frontAndBack
    {
        type            empty;
    }
}


// ************************************************************************* //
