/*--------------------------------*- C++ -*----------------------------------*\
  =========                 |
  \\      /  F ield         | OpenFOAM: The Open Source CFD Toolbox
   \\    /   O peration     | Website:  https://openfoam.org
    \\  /    A nd           | Version:  9
     \\/     M anipulation  |
\*---------------------------------------------------------------------------*/
FoamFile
{
    format      ascii;
    class       surfaceScalarField;
    location    "46";
    object      ddtCorrDdt0(phi);
}
// * * * * * * * * * * * * * * * * * * * * * * * * * * * * * * * * * * * * * //

dimensions      [0 4 -2 0 0 0 0];

internalField   nonuniform List<scalar> 
760
(
-2.60199e-11
-1.62662e-11
-5.92302e-12
-5.4977e-11
1.44006e-11
-5.20919e-11
-2.96602e-11
-1.13929e-11
-7.45672e-11
1.57158e-11
-6.63684e-11
4.6165e-12
-2.26499e-11
-3.54161e-11
-3.5314e-12
-5.07339e-11
-2.40564e-11
-5.39273e-11
-5.18411e-11
-1.62077e-11
-4.76225e-11
-2.18738e-11
-3.01579e-11
-9.75442e-11
2.80865e-11
-1.08024e-10
6.90159e-11
-9.91364e-11
5.84573e-11
-4.72281e-11
2.67059e-11
-3.18077e-12
2.13473e-11
-4.78185e-12
6.50028e-11
-5.2821e-11
1.28823e-10
-3.96658e-11
5.52036e-12
-3.46202e-11
-3.66699e-11
-7.29829e-12
-1.09308e-10
5.6724e-12
-9.92048e-11
-3.15275e-11
-1.94765e-11
-6.0728e-11
4.37103e-11
-5.74357e-11
7.76319e-12
-2.62559e-11
-8.54284e-11
-2.47174e-11
-1.47396e-10
-6.53936e-12
-9.6427e-11
-5.25973e-11
-6.59152e-11
-2.64567e-11
-4.09922e-11
-1.85985e-11
-1.53041e-10
1.6724e-11
-1.74403e-10
7.92384e-11
-1.31956e-10
8.36588e-11
-6.92745e-11
6.70996e-11
-3.59477e-12
5.74198e-11
-5.41672e-12
8.02415e-11
-7.72663e-11
1.17278e-10
-5.91817e-11
1.76163e-11
-3.20856e-11
-4.59472e-11
-9.72221e-12
-1.45625e-10
-1.32495e-11
-1.38838e-10
-2.6322e-11
-2.11947e-11
-3.80646e-11
6.73797e-11
-5.39472e-11
-1.2476e-11
-6.08704e-11
-1.6697e-10
-3.87656e-11
-2.4252e-10
-2.21412e-11
-1.05764e-10
-1.62583e-12
-4.9584e-11
-6.18066e-11
-5.12352e-11
2.33198e-11
-1.00342e-10
2.33739e-11
-1.98344e-10
6.1896e-11
-9.4572e-11
1.06634e-10
1.50994e-12
9.6571e-11
4.4817e-11
7.48984e-11
9.96617e-12
1.07134e-10
-1.15222e-10
1.47238e-10
-8.78815e-11
1.35941e-11
-2.54258e-11
-4.8092e-11
-1.11329e-11
-1.63776e-10
-2.25162e-11
-1.58185e-10
-1.21919e-11
-1.34768e-11
-3.50425e-11
6.12898e-11
-6.92973e-11
-4.94391e-11
-1.08212e-10
-2.5953e-10
1.00753e-12
-1.97772e-10
-6.54884e-11
-1.30824e-10
2.62674e-11
7.7191e-11
-1.09329e-11
-5.63844e-11
-2.94412e-11
-9.94647e-11
7.43507e-11
-1.27766e-10
3.31359e-11
-1.12425e-10
5.91019e-11
4.17467e-11
1.12239e-10
1.13674e-10
1.30899e-10
5.21546e-11
1.28401e-10
-8.63672e-11
1.26317e-10
-7.47432e-11
2.49217e-11
-1.00202e-11
-4.40952e-11
-1.90203e-11
-1.6847e-10
-2.71445e-11
-1.55749e-10
-1.4621e-11
-2.08937e-11
-3.43846e-11
4.76518e-11
-1.21792e-10
-9.85214e-11
-5.12997e-11
-1.96698e-10
-6.66686e-11
-2.04913e-10
4.21787e-11
-2.8321e-11
-1.2326e-10
-6.82045e-11
8.24181e-11
1.8534e-10
2.56058e-11
-2.32229e-10
2.47065e-11
-1.87967e-10
8.72045e-11
-7.08938e-11
5.22183e-11
1.38751e-11
6.24741e-11
1.17702e-10
1.03515e-10
9.1606e-11
1.53488e-10
-7.48928e-11
1.5316e-10
-6.18109e-11
3.71124e-11
6.30261e-12
-3.03909e-11
-2.15596e-11
-1.5983e-10
-4.45624e-11
-1.55451e-10
-2.234e-11
-2.53839e-11
-7.08964e-11
2.41693e-11
-8.94224e-11
-5.10501e-11
-4.47686e-11
-1.68008e-10
-4.01704e-11
-1.56252e-10
-4.68839e-11
-7.0522e-11
1.21504e-10
-6.15145e-11
-1.33234e-10
-4.73532e-11
1.7266e-10
1.28214e-10
9.18121e-11
-3.01052e-10
3.55323e-11
-1.79734e-10
7.01819e-11
1.68043e-12
9.72177e-11
9.06839e-11
1.28772e-10
7.95329e-11
1.35824e-10
-5.21732e-11
1.06707e-10
-4.47646e-11
3.67174e-11
1.63224e-11
-1.43048e-11
-3.16759e-11
-1.41985e-10
-6.25941e-11
-1.40836e-10
-5.20146e-11
-3.15066e-11
-5.94821e-11
4.37299e-11
-7.02022e-11
-2.25074e-11
-3.89826e-11
-1.2408e-10
-1.01606e-11
-1.64003e-10
-1.75067e-10
-1.61214e-10
2.37307e-10
3.96644e-10
1.54214e-10
1.3133e-09
-1.56819e-10
-1.88962e-10
1.72926e-10
-2.21691e-11
1.33174e-10
-1.34792e-10
8.81066e-11
-4.85355e-11
1.20341e-10
4.62148e-11
1.50637e-10
2.27082e-10
1.45982e-10
-5.90913e-11
9.42829e-11
-5.33792e-11
2.7751e-11
1.22288e-11
-7.33934e-12
-4.34521e-11
-1.1068e-10
-8.41683e-11
-1.07562e-10
-5.78181e-11
-9.06054e-12
-5.15811e-11
4.04626e-11
-5.04755e-11
1.43988e-11
-4.69833e-11
-1.0942e-10
-1.37585e-10
-1.03641e-10
2.08277e-10
6.34571e-11
-6.74818e-10
-5.32009e-10
-2.49344e-10
-2.54114e-08
2.25962e-11
-2.29241e-10
-2.2656e-11
-2.39875e-10
1.01052e-10
-7.27542e-11
1.22823e-10
-1.93264e-11
1.45708e-10
3.73367e-11
1.89804e-10
6.64882e-12
1.63018e-10
-6.24945e-11
8.54471e-11
-5.00937e-11
1.29355e-11
2.33966e-12
-8.39721e-12
-5.40909e-11
-6.60138e-11
-9.10948e-11
-5.15554e-11
-6.92075e-11
1.04348e-11
-2.77395e-11
3.43577e-11
-6.03737e-11
-1.59513e-11
-7.20866e-11
-1.39777e-11
-3.74172e-12
-6.77375e-11
-2.70618e-10
-6.54387e-11
7.91907e-10
4.41541e-10
3.93702e-10
7.77234e-10
1.60219e-10
-5.74041e-11
1.8467e-10
1.49264e-10
7.56802e-11
5.04637e-12
1.00557e-10
-1.33855e-11
1.88043e-10
2.53009e-11
2.35151e-10
1.12404e-09
1.63055e-10
-2.61863e-11
8.61464e-11
-2.10123e-11
-6.10412e-11
-2.06799e-12
-7.34544e-12
-4.98852e-11
-1.00237e-11
-8.97003e-11
8.19173e-12
-7.92282e-11
2.38125e-11
-4.34269e-11
3.98788e-12
-2.90682e-11
-2.57163e-12
-8.98128e-11
1.28202e-11
-9.27332e-11
7.78024e-11
1.13326e-10
3.11956e-11
-1.40767e-10
7.15494e-11
8.236e-12
-1.6338e-10
3.30261e-10
2.40745e-10
-9.4142e-14
-1.05839e-10
5.32353e-11
-3.51503e-11
1.20673e-10
1.26138e-11
1.57677e-10
3.76499e-11
1.61026e-10
3.57074e-11
1.44479e-10
2.58532e-11
9.84495e-11
1.96456e-11
6.11856e-12
-1.95898e-12
2.90663e-13
-3.8821e-11
5.14161e-11
-7.8583e-11
5.55069e-11
-9.81595e-11
2.23229e-11
-5.67979e-11
-8.03549e-12
-2.40563e-11
1.11542e-11
-5.41407e-11
8.87634e-11
-7.45683e-11
7.0893e-11
1.04783e-10
1.77282e-10
-2.89528e-10
-2.43955e-10
4.94938e-10
-7.80621e-10
-3.35999e-11
-3.37301e-10
4.99614e-11
3.94712e-11
1.01473e-10
6.57087e-11
1.50245e-10
3.54153e-11
1.68153e-10
3.24324e-11
1.6007e-10
3.3649e-11
1.0823e-10
5.13794e-11
8.8176e-11
4.88538e-11
6.29253e-12
2.0964e-12
1.13732e-11
-3.21944e-11
1.0442e-10
-6.66891e-11
9.80099e-11
-1.01895e-10
8.86995e-12
-8.24877e-11
-1.21494e-11
-2.08158e-11
6.11855e-11
-5.73796e-11
1.23195e-10
-5.50284e-12
1.61282e-10
2.15146e-11
-6.48862e-11
-1.58342e-10
-5.86588e-11
9.93627e-10
4.14587e-08
3.14558e-10
4.86728e-10
1.02691e-10
-6.98216e-12
7.84876e-11
1.38794e-11
1.35995e-10
-6.25368e-12
1.35943e-10
-4.24105e-11
1.26703e-10
-2.18825e-11
9.25607e-11
6.04962e-11
8.97983e-11
7.84603e-11
6.39322e-12
9.6437e-12
1.5851e-11
-2.53026e-11
1.43313e-10
-6.4687e-11
1.33023e-10
-8.8081e-11
1.19812e-11
-7.2656e-11
-3.35655e-11
-3.19508e-11
8.85965e-11
-2.62576e-11
1.99373e-10
-8.12483e-11
1.79463e-10
-9.90841e-11
1.04688e-10
3.58336e-10
-1.90777e-10
-8.21967e-10
-4.00595e-10
-1.18581e-10
-2.45953e-10
1.05748e-10
1.18478e-10
1.40286e-10
7.92159e-11
1.14016e-10
-1.53401e-11
1.1446e-10
-7.29227e-11
1.17803e-10
-4.2914e-11
1.09279e-10
8.46037e-11
1.12747e-10
1.10305e-10
7.73451e-12
1.69283e-11
1.95646e-11
-1.9835e-11
1.60312e-10
-6.29902e-11
1.63404e-10
-7.98067e-11
2.67231e-11
-5.22026e-11
-3.88639e-11
-5.05302e-11
8.00472e-11
-3.97714e-11
2.47928e-10
-6.25886e-11
2.23478e-10
-9.93621e-11
1.02389e-10
2.28612e-10
9.93808e-11
-2.93588e-10
-2.49555e-10
1.32424e-10
1.67753e-10
1.15397e-10
1.34506e-10
1.18922e-10
9.18237e-11
1.04918e-10
-2.7642e-11
1.10354e-10
-9.41475e-11
1.20025e-10
-3.93838e-11
1.22495e-10
1.08268e-10
1.26144e-10
1.20964e-10
1.75609e-12
1.5345e-11
3.04803e-11
-4.33733e-12
1.61479e-10
-5.26107e-11
1.66076e-10
-7.56929e-11
4.51828e-11
-5.09525e-11
-2.91432e-11
-3.82612e-11
6.21139e-11
-6.95819e-11
2.23759e-10
-4.2486e-11
2.49251e-10
-4.64849e-11
1.25714e-10
-4.17775e-11
2.70937e-12
9.70274e-11
-3.10008e-10
6.69446e-11
1.18116e-10
9.91325e-11
2.05814e-10
9.15149e-11
1.20077e-10
1.00458e-10
-9.989e-12
1.11932e-10
-7.60205e-11
1.12324e-10
-2.18578e-11
1.2251e-10
1.1598e-10
1.35256e-10
1.11158e-10
-9.23762e-12
-1.06939e-12
4.70892e-11
8.39672e-12
1.53479e-10
-2.27386e-11
1.43334e-10
-6.82633e-11
3.52929e-11
-6.77865e-11
-1.43211e-11
-4.37411e-11
6.04587e-11
-6.1823e-11
1.77659e-10
-3.82709e-11
2.13861e-10
-2.5638e-11
9.79345e-11
1.31053e-11
3.0542e-11
2.76808e-12
6.73232e-11
5.5282e-11
1.60641e-10
6.25868e-11
2.05035e-10
7.88952e-11
1.35817e-10
1.07477e-10
2.58049e-11
9.00805e-11
-5.87117e-11
6.86965e-11
-2.41076e-11
9.81081e-11
1.04175e-10
1.44723e-10
9.91832e-11
-1.27721e-11
-2.90638e-11
5.46743e-11
5.465e-12
1.46217e-10
7.5642e-12
1.13428e-10
-4.23394e-11
2.59195e-12
-8.58831e-11
-2.78852e-11
-6.94714e-11
6.73549e-11
-4.61216e-11
1.63646e-10
-3.83034e-11
1.62712e-10
-7.79139e-12
8.23199e-11
-1.996e-11
-5.04846e-12
5.15799e-13
1.49623e-11
3.48927e-11
1.1553e-10
5.92529e-11
1.6255e-10
8.10212e-11
1.19707e-10
7.82774e-11
9.95443e-12
5.11654e-11
-7.625e-11
3.14442e-11
-3.90574e-11
7.51267e-11
9.87202e-11
1.53855e-10
1.07585e-10
1.00777e-12
-4.86342e-11
4.54481e-11
-1.27755e-11
1.23398e-10
2.17203e-11
8.73321e-11
-1.65333e-11
-2.25512e-11
-8.40533e-11
-5.23838e-11
-9.32294e-11
4.69753e-11
-4.75754e-11
1.47595e-10
-1.2272e-11
1.45958e-10
-6.20273e-12
7.06385e-11
-2.40239e-11
2.17424e-12
-1.71094e-11
2.23653e-11
3.0671e-12
7.50432e-11
3.58798e-11
1.04997e-10
4.97797e-11
5.29622e-11
4.35393e-11
-2.94023e-11
2.7096e-11
-7.95783e-11
2.47022e-11
-3.31354e-11
8.10536e-11
9.46166e-11
1.66946e-10
1.14328e-10
1.9713e-11
-4.59306e-11
2.62395e-11
-3.46286e-11
7.42436e-11
3.1671e-12
5.25132e-11
-1.02028e-11
-2.24047e-11
-6.25263e-11
-4.75313e-11
-8.68925e-11
1.53539e-11
-4.93774e-11
8.99742e-11
-8.1609e-12
9.85896e-11
-1.0643e-11
5.49345e-11
-4.12368e-11
2.11561e-11
-2.85417e-11
1.7814e-11
-7.10198e-13
4.27682e-11
3.14669e-11
5.04196e-11
4.10802e-11
1.96275e-11
3.22414e-11
-1.98953e-11
3.34788e-11
-4.11373e-11
5.9731e-11
-1.30702e-11
1.16527e-10
6.13176e-11
1.71481e-10
7.94725e-11
2.2067e-11
-3.78756e-11
-4.36742e-11
-1.52535e-11
-1.5116e-11
-4.92822e-11
-7.27361e-11
-4.39302e-11
-2.68488e-12
-5.73692e-13
-2.8161e-11
-3.81466e-11
-1.99222e-11
9.98536e-12
3.49387e-11
4.64871e-11
6.64549e-11
9.93607e-11
1.3635e-10
1.5434e-10
)
;

boundaryField
{
    sides
    {
        type            calculated;
        value           uniform 0;
    }
    inlet
    {
        type            calculated;
        value           uniform 0;
    }
    outlet
    {
        type            calculated;
        value           nonuniform List<scalar> 
20
(
1.48708e-10
1.23917e-10
1.60231e-10
1.15158e-10
1.33793e-10
8.55508e-11
6.04839e-11
5.46541e-11
7.20324e-11
8.75218e-11
1.0329e-10
1.1531e-10
1.33099e-10
1.36456e-10
1.41498e-10
1.61408e-10
1.84083e-10
1.97368e-10
1.82284e-10
1.47324e-10
)
;
    }
    frontAndBack
    {
        type            empty;
        value           nonuniform List<scalar> 0();
    }
}


// ************************************************************************* //
