/*--------------------------------*- C++ -*----------------------------------*\
  =========                 |
  \\      /  F ield         | OpenFOAM: The Open Source CFD Toolbox
   \\    /   O peration     | Website:  https://openfoam.org
    \\  /    A nd           | Version:  9
     \\/     M anipulation  |
\*---------------------------------------------------------------------------*/
FoamFile
{
    format      ascii;
    class       volVectorField;
    location    "46";
    object      ddtCorrDdt0(hU);
}
// * * * * * * * * * * * * * * * * * * * * * * * * * * * * * * * * * * * * * //

dimensions      [0 2 -2 0 0 0 0];

internalField   nonuniform List<vector> 
400
(
(-3.59831e-09 -1.19299e-09 0)
(-1.07861e-08 -6.88482e-09 0)
(2.96114e-09 -6.11658e-09 0)
(4.8418e-09 -5.84772e-10 0)
(-1.06498e-08 2.4076e-09 0)
(-1.74084e-08 -1.82229e-10 0)
(-1.06976e-08 -4.83653e-09 0)
(-1.49132e-09 -5.58612e-09 0)
(-5.81755e-11 -3.62075e-09 0)
(-7.58496e-09 6.89037e-10 0)
(-1.18873e-08 -3.07619e-09 0)
(-1.07115e-08 -8.1207e-09 0)
(-4.76713e-11 -1.01831e-08 0)
(1.24654e-08 -9.51499e-09 0)
(1.51189e-08 -4.23251e-09 0)
(1.00734e-08 -9.93066e-11 0)
(1.76448e-09 -3.47943e-10 0)
(4.77427e-09 -2.52284e-09 0)
(2.31307e-08 -2.10932e-09 0)
(2.75319e-08 -1.99509e-10 0)
(-2.8569e-09 -4.54075e-09 0)
(-1.18751e-08 -1.71533e-08 0)
(1.67631e-09 -1.61848e-08 0)
(3.5064e-09 -3.43209e-09 0)
(-9.28755e-09 5.9326e-09 0)
(-1.57567e-08 4.39181e-10 0)
(-9.8365e-09 -1.30628e-08 0)
(-3.87263e-09 -1.97091e-08 0)
(-5.18046e-10 -1.3441e-08 0)
(-5.04525e-09 -6.46791e-09 0)
(-1.12678e-08 -7.86342e-09 0)
(-5.24739e-09 -2.41884e-08 0)
(-9.97675e-10 -2.79626e-08 0)
(1.1467e-08 -2.24636e-08 0)
(1.84782e-08 -1.12988e-08 0)
(1.61024e-08 3.78304e-10 0)
(1.10929e-08 2.07745e-10 0)
(1.17849e-08 -1.46042e-08 0)
(2.10791e-08 -1.10815e-08 0)
(2.39154e-08 2.27087e-09 0)
(-5.74708e-10 -7.85708e-09 0)
(-1.16345e-08 -2.51808e-08 0)
(-1.28491e-09 -2.40641e-08 0)
(1.85544e-09 -4.43318e-09 0)
(-7.3209e-09 1.07801e-08 0)
(-1.26699e-08 -7.503e-10 0)
(-1.2868e-08 -2.53034e-08 0)
(-6.32273e-09 -3.81904e-08 0)
(-6.60502e-09 -1.97276e-08 0)
(-4.99685e-10 -1.16928e-08 0)
(-8.84133e-09 -1.01363e-08 0)
(-5.18968e-09 -2.71951e-08 0)
(5.34669e-09 -3.86407e-08 0)
(8.17373e-09 -2.26899e-08 0)
(1.85114e-08 -7.47906e-09 0)
(2.24401e-08 3.3178e-09 0)
(1.55091e-08 4.9401e-10 0)
(1.60176e-08 -1.74833e-08 0)
(2.8107e-08 -1.40669e-08 0)
(2.99406e-08 2.64992e-09 0)
(6.79665e-10 -9.2764e-09 0)
(-1.04993e-08 -3.14634e-08 0)
(-2.4428e-09 -2.99285e-08 0)
(1.02681e-09 -2.90777e-09 0)
(-6.25847e-09 1.35883e-08 0)
(-1.36348e-08 -6.03608e-09 0)
(-1.58758e-08 -4.2495e-08 0)
(-9.28644e-09 -4.40711e-08 0)
(-4.73799e-09 -2.37334e-08 0)
(-8.10431e-09 3.70709e-09 0)
(6.28327e-09 -1.27223e-08 0)
(-9.64078e-09 -2.25698e-08 0)
(6.0873e-09 -3.45079e-08 0)
(1.18545e-08 -2.16531e-08 0)
(8.36861e-09 4.38696e-09 0)
(1.74206e-08 1.57383e-08 0)
(2.54577e-08 4.91463e-09 0)
(2.70022e-08 -2.17762e-08 0)
(2.47032e-08 -1.65842e-08 0)
(2.34406e-08 4.77359e-09 0)
(1.0649e-09 -9.09418e-09 0)
(-8.21489e-09 -3.37323e-08 0)
(-4.29185e-09 -3.18025e-08 0)
(-1.45468e-09 -3.21219e-09 0)
(-6.64145e-09 1.16675e-08 0)
(-1.57232e-08 -1.40747e-08 0)
(-1.38493e-08 -4.63878e-08 0)
(-1.51787e-08 -4.07203e-08 0)
(5.55288e-10 -1.70894e-08 0)
(-7.61138e-09 3.22922e-09 0)
(-1.11758e-08 5.06574e-09 0)
(1.79283e-08 -3.21691e-08 0)
(4.05865e-10 -3.06654e-08 0)
(1.24186e-08 -1.90119e-08 0)
(1.53422e-08 5.15953e-09 0)
(1.13181e-08 2.32979e-08 0)
(1.61126e-08 1.375e-08 0)
(2.5499e-08 -1.96754e-08 0)
(3.25025e-08 -1.6494e-08 0)
(2.74992e-08 6.41081e-09 0)
(9.31678e-10 -7.27136e-09 0)
(-5.68407e-09 -3.34275e-08 0)
(-6.68751e-09 -3.16135e-08 0)
(-5.44825e-09 -4.22653e-09 0)
(-9.94462e-09 8.2123e-09 0)
(-1.32704e-08 -1.45227e-08 0)
(-1.47635e-08 -3.81402e-08 0)
(-5.10851e-09 -3.80252e-08 0)
(-1.7952e-08 -8.00669e-09 0)
(1.8175e-08 -9.27921e-09 0)
(-8.34705e-09 9.29549e-09 0)
(4.18425e-09 -1.67067e-08 0)
(3.14461e-08 -4.95499e-08 0)
(8.69197e-09 -2.38435e-08 0)
(1.02871e-08 2.94452e-09 0)
(1.71487e-08 2.14973e-08 0)
(2.40238e-08 1.73694e-08 0)
(2.79466e-08 -9.81656e-09 0)
(2.27824e-08 -9.91171e-09 0)
(1.89185e-08 6.58428e-09 0)
(1.69724e-10 -4.23395e-09 0)
(-4.34251e-09 -3.05335e-08 0)
(-1.00487e-08 -3.00266e-08 0)
(-1.10506e-08 -5.17415e-09 0)
(-1.03485e-08 7.45885e-09 0)
(-1.16695e-08 -7.59564e-09 0)
(-9.04952e-09 -2.97355e-08 0)
(-1.12868e-08 -3.26115e-08 0)
(-5.269e-09 -2.21121e-08 0)
(-2.32097e-08 2.29726e-08 0)
(7.75916e-08 -9.17097e-09 0)
(-2.31558e-08 7.39135e-10 0)
(2.92726e-09 -3.4349e-08 0)
(3.58003e-08 -3.22473e-08 0)
(2.00405e-08 -2.80651e-09 0)
(1.96687e-08 1.7494e-08 0)
(2.84908e-08 1.32481e-08 0)
(3.13147e-08 -1.32018e-08 0)
(2.30646e-08 -1.03279e-08 0)
(1.48609e-08 7.30688e-09 0)
(-1.25978e-09 -1.77874e-09 0)
(-4.81129e-09 -2.51223e-08 0)
(-1.35431e-08 -2.51727e-08 0)
(-1.45437e-08 -4.32063e-09 0)
(-1.08489e-08 8.29939e-09 0)
(-7.85383e-09 -1.4355e-09 0)
(-9.80171e-09 -2.24428e-08 0)
(-1.54846e-08 -2.87521e-08 0)
(5.22907e-09 -1.20526e-08 0)
(-3.65745e-09 -1.29406e-08 0)
(-1.93218e-07 -1.31754e-08 0)
(4.6876e-08 -5.1259e-08 0)
(-1.42167e-08 -2.86807e-08 0)
(6.68265e-09 -2.11187e-08 0)
(2.44381e-08 -7.88374e-09 0)
(2.65509e-08 8.15823e-09 0)
(3.50327e-08 7.91541e-09 0)
(3.74849e-08 -1.11043e-08 0)
(2.33216e-08 -1.01117e-08 0)
(1.3267e-08 3.61652e-09 0)
(-2.68334e-09 -1.48059e-09 0)
(-5.54488e-09 -1.76348e-08 0)
(-1.61767e-08 -1.61845e-08 0)
(-1.70831e-08 -5.20308e-10 0)
(-9.46837e-09 7.12588e-09 0)
(-7.54388e-09 -1.28143e-10 0)
(-9.10203e-09 -1.20054e-08 0)
(-1.11113e-08 -1.77863e-08 0)
(-2.88583e-08 -3.78965e-09 0)
(5.19561e-09 -8.21666e-09 0)
(2.23724e-07 -9.78117e-09 0)
(-1.0863e-08 -4.14077e-08 0)
(4.83851e-08 -1.63022e-08 0)
(2.24552e-08 -1.16422e-08 0)
(1.3827e-08 -4.82269e-09 0)
(2.6884e-08 3.65116e-09 0)
(4.95636e-08 5.75932e-09 0)
(4.05885e-08 -8.69546e-09 0)
(2.21213e-08 -8.34808e-09 0)
(1.54445e-08 1.63524e-09 0)
(-3.13436e-09 -1.7142e-09 0)
(-5.00524e-09 -7.82956e-09 0)
(-1.63083e-08 -4.60197e-09 0)
(-1.88113e-08 3.23157e-09 0)
(-1.10918e-08 4.13073e-09 0)
(-5.09736e-09 -1.32141e-09 0)
(-1.04519e-08 -1.02068e-09 0)
(-1.41339e-08 2.02149e-09 0)
(-1.1742e-08 -2.86566e-09 0)
(2.00997e-08 3.46613e-08 0)
(-4.80684e-08 -1.58392e-08 0)
(6.00959e-08 3.14211e-08 0)
(3.00454e-08 1.17301e-09 0)
(-3.96989e-10 -7.57923e-09 0)
(1.6646e-08 5.48568e-11 0)
(2.97568e-08 6.98944e-09 0)
(3.03459e-08 7.43636e-09 0)
(3.51691e-08 -8.65567e-10 0)
(2.25643e-08 -1.44204e-09 0)
(1.76047e-08 1.24256e-09 0)
(-3.00665e-09 -5.47324e-10 0)
(-3.76151e-09 4.25337e-09 0)
(-1.52135e-08 6.26859e-09 0)
(-1.93339e-08 4.47915e-09 0)
(-1.30659e-08 4.90042e-11 0)
(-5.86729e-09 4.78591e-10 0)
(-5.91026e-09 7.79581e-09 0)
(-1.56959e-08 1.21424e-08 0)
(8.78116e-09 1.73311e-08 0)
(-3.44411e-08 1.05176e-09 0)
(2.91026e-08 -4.39851e-08 0)
(5.68428e-08 2.72925e-09 0)
(-8.4785e-09 7.91886e-10 0)
(1.61451e-08 7.84902e-09 0)
(2.46573e-08 6.31932e-09 0)
(3.1612e-08 7.88093e-09 0)
(3.50456e-08 7.69064e-09 0)
(2.91954e-08 8.04325e-09 0)
(1.66769e-08 6.61558e-09 0)
(1.91517e-08 7.58435e-10 0)
(-2.34809e-09 1.01948e-09 0)
(-3.07791e-09 1.5581e-08 0)
(-1.34761e-08 1.56882e-08 0)
(-1.84618e-08 3.48514e-09 0)
(-1.46889e-08 -2.02509e-09 0)
(-8.71421e-09 7.08731e-09 0)
(-7.59046e-09 2.13127e-08 0)
(-3.86262e-09 2.44007e-08 0)
(-1.18531e-08 1.11798e-08 0)
(-3.70326e-08 -1.90532e-08 0)
(1.47904e-07 8.17201e-08 0)
(1.03267e-07 1.72046e-09 0)
(4.29077e-08 6.26394e-09 0)
(1.25931e-08 9.36398e-09 0)
(2.02769e-08 4.52887e-09 0)
(2.82003e-08 -2.69679e-09 0)
(2.75686e-08 -7.28004e-10 0)
(2.3754e-08 9.60808e-09 0)
(1.60906e-08 1.27825e-08 0)
(2.05593e-08 1.51812e-09 0)
(-1.21827e-09 2.33383e-09 0)
(-2.40995e-09 2.47941e-08 0)
(-1.15903e-08 2.37378e-08 0)
(-1.60668e-08 2.41824e-09 0)
(-1.42232e-08 -5.1416e-09 0)
(-7.9322e-09 1.52268e-08 0)
(-6.10521e-09 3.4785e-08 0)
(-1.15329e-08 3.63219e-08 0)
(-1.07282e-08 8.51115e-09 0)
(3.93508e-08 -1.96168e-08 0)
(-9.16828e-08 6.78708e-08 0)
(-7.26874e-08 6.34416e-09 0)
(-3.05202e-10 8.36757e-09 0)
(2.63309e-08 7.23197e-09 0)
(2.54395e-08 -2.36716e-09 0)
(2.23891e-08 -1.44293e-08 0)
(2.37634e-08 -6.69362e-09 0)
(2.42562e-08 1.62157e-08 0)
(2.12038e-08 1.99897e-08 0)
(2.42521e-08 1.63866e-09 0)
(8.40719e-10 3.37434e-09 0)
(-2.34638e-09 3.08051e-08 0)
(-9.89274e-09 3.01999e-08 0)
(-1.38844e-08 3.62593e-09 0)
(-1.22059e-08 -7.81856e-09 0)
(-9.81131e-09 1.66193e-08 0)
(-7.96355e-09 4.4807e-08 0)
(-1.07748e-08 4.12471e-08 0)
(-1.88324e-08 1.98238e-08 0)
(2.53761e-08 -4.98723e-10 0)
(-2.17309e-08 -7.44173e-08 0)
(-1.49499e-08 2.15964e-10 0)
(2.97268e-08 2.77801e-08 0)
(2.27684e-08 1.75872e-08 0)
(2.11727e-08 -5.71034e-09 0)
(2.07774e-08 -1.85134e-08 0)
(2.51435e-08 -7.15261e-09 0)
(2.53824e-08 2.15194e-08 0)
(2.34524e-08 2.40021e-08 0)
(2.61023e-08 9.14864e-10 0)
(2.9187e-09 4.91104e-09 0)
(-2.70834e-09 3.26894e-08 0)
(-6.97818e-09 3.3271e-08 0)
(-1.0513e-08 6.87723e-09 0)
(-1.20409e-08 -7.19258e-09 0)
(-1.07002e-08 1.42892e-08 0)
(-9.48291e-09 4.77096e-08 0)
(-1.12986e-08 4.81868e-08 0)
(-7.34592e-09 2.35365e-08 0)
(-1.06924e-08 7.86638e-09 0)
(5.99397e-09 -1.37868e-08 0)
(1.65661e-08 3.35861e-08 0)
(1.66776e-08 3.77695e-08 0)
(1.90477e-08 2.19325e-08 0)
(1.76291e-08 -3.38823e-09 0)
(2.16498e-08 -1.64495e-08 0)
(2.44731e-08 -6.52034e-09 0)
(2.37511e-08 2.15527e-08 0)
(2.47028e-08 2.31254e-08 0)
(2.76426e-08 -7.97537e-10 0)
(3.36133e-09 7.62825e-09 0)
(-4.47943e-09 3.20928e-08 0)
(-2.96884e-09 3.12994e-08 0)
(-5.68938e-09 7.30251e-09 0)
(-1.22119e-08 -5.09846e-09 0)
(-1.31812e-08 1.29294e-08 0)
(-1.18628e-08 4.13946e-08 0)
(-7.58679e-09 4.67819e-08 0)
(-7.33441e-09 2.21235e-08 0)
(-4.31236e-10 4.59896e-09 0)
(1.58465e-09 1.28549e-08 0)
(5.50462e-09 2.87728e-08 0)
(1.11812e-08 4.08185e-08 0)
(1.33046e-08 2.68136e-08 0)
(1.99515e-08 3.23227e-09 0)
(2.04942e-08 -1.32069e-08 0)
(1.57989e-08 -5.45821e-09 0)
(1.63272e-08 2.24103e-08 0)
(2.41861e-08 2.14995e-08 0)
(3.07332e-08 -2.5018e-09 0)
(1.41823e-09 9.99589e-09 0)
(-8.16328e-09 3.01732e-08 0)
(-6.83982e-11 2.60893e-08 0)
(-5.86713e-11 3.62166e-09 0)
(-1.12951e-08 -4.80263e-09 0)
(-1.66506e-08 1.27612e-08 0)
(-1.32415e-08 3.48081e-08 0)
(-7.92481e-09 3.83845e-08 0)
(-3.47825e-09 1.85732e-08 0)
(-1.97766e-09 2.3236e-09 0)
(-3.42302e-09 4.8733e-09 0)
(2.89822e-09 2.66604e-08 0)
(9.23476e-09 3.70346e-08 0)
(1.50475e-08 2.57414e-08 0)
(1.71552e-08 2.87358e-09 0)
(1.28586e-08 -1.44683e-08 0)
(7.69198e-09 -6.46571e-09 0)
(9.88035e-09 2.14999e-08 0)
(2.33268e-08 2.13729e-08 0)
(3.40058e-08 -1.35421e-09 0)
(-1.77509e-09 1.00212e-08 0)
(-1.21428e-08 2.77357e-08 0)
(1.04533e-09 2.07582e-08 0)
(4.21547e-09 -2.43996e-09 0)
(-9.9367e-09 -9.19305e-09 0)
(-1.88846e-08 1.08526e-08 0)
(-1.50327e-08 3.17483e-08 0)
(-5.55974e-09 3.19069e-08 0)
(-5.08733e-10 1.55461e-08 0)
(-2.87121e-09 -3.85219e-10 0)
(-4.69369e-09 2.89205e-09 0)
(-2.41851e-09 2.00524e-08 0)
(2.61406e-09 2.76521e-08 0)
(9.784e-09 1.70597e-08 0)
(1.18451e-08 -2.29744e-09 0)
(7.4261e-09 -1.5157e-08 0)
(2.93215e-09 -6.80784e-09 0)
(8.76769e-09 1.92936e-08 0)
(2.71422e-08 2.25135e-08 0)
(3.62558e-08 2.34813e-09 0)
(-3.38197e-09 6.95454e-09 0)
(-1.44003e-08 1.95358e-08 0)
(-1.16384e-09 1.43847e-08 0)
(3.7687e-09 -4.1369e-09 0)
(-8.41784e-09 -1.05088e-08 0)
(-1.73037e-08 4.99836e-09 0)
(-1.3966e-08 2.28769e-08 0)
(-4.8704e-09 2.45373e-08 0)
(-5.9484e-10 1.31232e-08 0)
(-4.46843e-09 3.3741e-09 0)
(-8.28606e-09 4.91782e-09 0)
(-5.12025e-09 1.30962e-08 0)
(3.14127e-09 1.69253e-08 0)
(9.29794e-09 9.07245e-09 0)
(9.33943e-09 -3.38575e-09 0)
(6.63987e-09 -1.08367e-08 0)
(6.33492e-09 -3.11333e-09 0)
(1.53079e-08 1.73507e-08 0)
(3.30842e-08 2.09681e-08 0)
(3.43718e-08 4.58275e-09 0)
(-3.93766e-09 2.3117e-09 0)
(-1.50963e-08 6.28149e-09 0)
(-2.45807e-09 5.15783e-09 0)
(2.4537e-09 -1.09141e-09 0)
(-8.26249e-09 -4.14346e-09 0)
(-1.58636e-08 5.59623e-10 0)
(-1.21611e-08 7.28971e-09 0)
(-3.24801e-09 9.08558e-09 0)
(1.23745e-09 6.49642e-09 0)
(-2.33331e-09 3.83362e-09 0)
(-7.6343e-09 5.02576e-09 0)
(-7.82361e-09 7.30947e-09 0)
(-1.40165e-09 6.91981e-09 0)
(6.23144e-09 2.69827e-09 0)
(1.00538e-08 -1.60901e-09 0)
(1.19812e-08 -3.38231e-09 0)
(1.40986e-08 -1.60295e-11 0)
(2.06869e-08 7.64144e-09 0)
(3.33763e-08 8.91464e-09 0)
(2.90365e-08 2.23612e-09 0)
)
;

boundaryField
{
    sides
    {
        type            calculated;
        value           nonuniform List<vector> 
40
(
(-3.93766e-09 0 0)
(-1.50963e-08 0 0)
(-2.45807e-09 0 0)
(2.4537e-09 0 0)
(-8.26249e-09 0 0)
(-1.58636e-08 0 0)
(-1.21611e-08 0 0)
(-3.24801e-09 0 0)
(1.23745e-09 0 0)
(-2.33331e-09 0 0)
(-7.6343e-09 0 0)
(-7.82361e-09 0 0)
(-1.40165e-09 0 0)
(6.23144e-09 0 0)
(1.00538e-08 0 0)
(1.19812e-08 0 0)
(1.40986e-08 0 0)
(2.06869e-08 0 0)
(3.33763e-08 0 0)
(2.90365e-08 0 0)
(-3.59831e-09 0 0)
(-1.07861e-08 0 0)
(2.96114e-09 0 0)
(4.8418e-09 0 0)
(-1.06498e-08 0 0)
(-1.74084e-08 0 0)
(-1.06976e-08 0 0)
(-1.49132e-09 0 0)
(-5.81755e-11 0 0)
(-7.58496e-09 0 0)
(-1.18873e-08 0 0)
(-1.07115e-08 0 0)
(-4.76713e-11 0 0)
(1.24654e-08 0 0)
(1.51189e-08 0 0)
(1.00734e-08 0 0)
(1.76448e-09 0 0)
(4.77427e-09 0 0)
(2.31307e-08 0 0)
(2.75319e-08 0 0)
)
;
    }
    inlet
    {
        type            calculated;
        value           uniform (0 0 0);
    }
    outlet
    {
        type            calculated;
        value           nonuniform List<vector> 
20
(
(2.75319e-08 -1.99509e-10 0)
(2.39154e-08 2.27087e-09 0)
(2.99406e-08 2.64992e-09 0)
(2.34406e-08 4.77359e-09 0)
(2.74992e-08 6.41081e-09 0)
(1.89185e-08 6.58428e-09 0)
(1.48609e-08 7.30688e-09 0)
(1.3267e-08 3.61652e-09 0)
(1.54445e-08 1.63524e-09 0)
(1.76047e-08 1.24256e-09 0)
(1.91517e-08 7.58435e-10 0)
(2.05593e-08 1.51812e-09 0)
(2.42521e-08 1.63866e-09 0)
(2.61023e-08 9.14864e-10 0)
(2.76426e-08 -7.97537e-10 0)
(3.07332e-08 -2.5018e-09 0)
(3.40058e-08 -1.35421e-09 0)
(3.62558e-08 2.34813e-09 0)
(3.43718e-08 4.58275e-09 0)
(2.90365e-08 2.23612e-09 0)
)
;
    }
    frontAndBack
    {
        type            empty;
    }
}


// ************************************************************************* //
