/*--------------------------------*- C++ -*----------------------------------*\
  =========                 |
  \\      /  F ield         | OpenFOAM: The Open Source CFD Toolbox
   \\    /   O peration     | Website:  https://openfoam.org
    \\  /    A nd           | Version:  9
     \\/     M anipulation  |
\*---------------------------------------------------------------------------*/
FoamFile
{
    format      ascii;
    class       volScalarField;
    location    "46";
    object      h_0;
}
// * * * * * * * * * * * * * * * * * * * * * * * * * * * * * * * * * * * * * //

dimensions      [0 1 0 0 0 0 0];

internalField   nonuniform List<scalar> 
400
(
0.0100004
0.0100004
0.0100003
0.0100001
0.00999997
0.00999976
0.00999953
0.00999929
0.00999907
0.0099989
0.00999881
0.00999882
0.00999893
0.00999915
0.00999942
0.00999969
0.0099999
0.01
0.0100001
0.01
0.0100004
0.0100003
0.0100002
0.0100001
0.00999989
0.00999966
0.00999941
0.00999914
0.00999889
0.00999869
0.00999858
0.0099986
0.00999875
0.00999901
0.00999931
0.0099996
0.00999982
0.00999994
0.00999998
0.00999999
0.0100004
0.0100003
0.0100002
0.0100001
0.0099999
0.00999965
0.00999936
0.00999906
0.00999876
0.00999852
0.00999838
0.00999839
0.00999856
0.0099989
0.0099993
0.00999968
0.00999996
0.0100001
0.0100001
0.01
0.0100005
0.0100004
0.0100003
0.0100001
0.00999994
0.00999966
0.00999932
0.00999893
0.00999852
0.00999815
0.00999793
0.00999795
0.00999825
0.00999877
0.00999935
0.00999978
0.00999999
0.01
0.00999998
0.00999997
0.0100006
0.0100005
0.0100004
0.0100003
0.01
0.00999973
0.00999932
0.0099988
0.00999822
0.00999764
0.00999725
0.00999725
0.00999775
0.00999863
0.00999957
0.0100002
0.0100004
0.0100003
0.0100001
0.01
0.0100007
0.0100007
0.0100006
0.0100005
0.0100003
0.00999992
0.00999941
0.00999869
0.00999782
0.00999699
0.00999639
0.00999636
0.00999712
0.00999847
0.00999978
0.0100005
0.0100005
0.0100002
0.00999995
0.00999992
0.0100009
0.0100008
0.0100008
0.0100008
0.0100006
0.0100003
0.00999975
0.00999875
0.00999724
0.00999548
0.00999425
0.00999461
0.00999677
0.00999955
0.0100014
0.0100016
0.0100008
0.0100001
0.00999975
0.00999987
0.010001
0.010001
0.0100011
0.0100011
0.0100011
0.0100009
0.0100004
0.00999937
0.00999749
0.00999438
0.00999058
0.00999031
0.00999457
0.0100003
0.0100034
0.0100031
0.0100013
0.00999987
0.0099995
0.00999983
0.0100011
0.0100012
0.0100014
0.0100016
0.0100019
0.010002
0.0100015
0.00999959
0.00999561
0.00998987
0.00998692
0.00998986
0.00999814
0.0100038
0.0100045
0.0100025
0.0100003
0.00999937
0.00999945
0.00999988
0.0100011
0.0100012
0.0100015
0.010002
0.0100027
0.0100041
0.010006
0.0100079
0.010005
0.00897858
0.00895253
0.00997596
0.0100089
0.0100179
0.0100105
0.0100024
0.00999889
0.00999893
0.0099998
0.0100002
0.010001
0.0100012
0.0100014
0.0100019
0.0100027
0.0100041
0.0100059
0.0100079
0.010005
0.00897854
0.00895253
0.00997589
0.0100089
0.0100178
0.0100105
0.0100023
0.00999889
0.00999892
0.00999977
0.0100001
0.0100009
0.010001
0.0100012
0.0100014
0.0100017
0.0100018
0.0100013
0.0099994
0.00999542
0.00998965
0.00998677
0.00998968
0.009998
0.0100036
0.0100044
0.0100023
0.0100002
0.00999935
0.00999947
0.0099999
0.0100007
0.0100007
0.0100007
0.0100008
0.0100008
0.0100006
0.0100001
0.00999907
0.00999721
0.00999415
0.00999028
0.00999007
0.00999432
0.01
0.0100031
0.0100029
0.0100012
0.0099998
0.00999949
0.00999983
0.0100004
0.0100004
0.0100003
0.0100003
0.0100001
0.00999985
0.00999929
0.0099983
0.00999681
0.00999505
0.00999383
0.00999425
0.00999642
0.00999925
0.0100011
0.0100014
0.0100007
0.00999993
0.00999966
0.00999984
0.0100001
0.01
0.00999997
0.00999986
0.00999966
0.00999933
0.00999882
0.00999812
0.00999728
0.00999648
0.00999593
0.00999591
0.00999672
0.00999811
0.00999945
0.0100002
0.0100003
0.01
0.00999984
0.00999989
0.0099998
0.00999975
0.00999966
0.00999952
0.00999931
0.00999901
0.0099986
0.0099981
0.00999754
0.00999699
0.00999661
0.00999666
0.00999719
0.00999811
0.0099991
0.00999979
0.0100001
0.01
0.00999993
0.00999994
0.00999955
0.00999951
0.0099994
0.00999926
0.00999906
0.0099988
0.00999847
0.0099981
0.00999771
0.00999738
0.00999721
0.00999727
0.0099976
0.00999817
0.00999882
0.00999935
0.00999967
0.0099998
0.00999986
0.00999993
0.00999935
0.0099993
0.0099992
0.00999906
0.00999887
0.00999864
0.00999837
0.00999808
0.0099978
0.00999757
0.00999745
0.00999752
0.00999776
0.00999816
0.00999863
0.00999908
0.00999943
0.00999966
0.00999981
0.00999993
0.00999919
0.00999914
0.00999905
0.00999892
0.00999875
0.00999854
0.00999831
0.00999808
0.00999787
0.00999771
0.00999764
0.00999769
0.00999788
0.00999819
0.00999859
0.00999899
0.00999933
0.00999958
0.00999978
0.00999992
0.00999905
0.009999
0.00999891
0.00999878
0.00999861
0.00999841
0.00999819
0.00999797
0.00999778
0.00999764
0.00999759
0.00999766
0.00999784
0.00999812
0.00999846
0.00999882
0.00999915
0.00999943
0.00999966
0.00999987
)
;

boundaryField
{
    sides
    {
        type            zeroGradient;
    }
    inlet
    {
        type            zeroGradient;
    }
    outlet
    {
        type            fixedValue;
        value           uniform 0.01;
    }
    frontAndBack
    {
        type            empty;
    }
}


// ************************************************************************* //
