/*--------------------------------*- C++ -*----------------------------------*\
  =========                 |
  \\      /  F ield         | OpenFOAM: The Open Source CFD Toolbox
   \\    /   O peration     | Website:  https://openfoam.org
    \\  /    A nd           | Version:  9
     \\/     M anipulation  |
\*---------------------------------------------------------------------------*/
FoamFile
{
    format      ascii;
    class       volVectorField;
    location    "46";
    object      hU;
}
// * * * * * * * * * * * * * * * * * * * * * * * * * * * * * * * * * * * * * //

dimensions      [0 2 -1 0 0 0 0];

internalField   nonuniform List<vector> 
400
(
(0.000999998 -2.48652e-08 0)
(0.00100005 -7.03287e-08 0)
(0.00100013 -1.1045e-07 0)
(0.00100024 -1.49041e-07 0)
(0.00100039 -1.86451e-07 0)
(0.00100058 -2.18216e-07 0)
(0.00100079 -2.37518e-07 0)
(0.001001 -2.43187e-07 0)
(0.00100119 -2.32956e-07 0)
(0.00100133 -2.09627e-07 0)
(0.00100141 -1.7018e-07 0)
(0.00100141 -1.30863e-07 0)
(0.00100131 -1.00029e-07 0)
(0.00100113 -9.22419e-08 0)
(0.00100088 -9.81575e-08 0)
(0.00100065 -1.35362e-07 0)
(0.00100044 -1.57785e-07 0)
(0.00100035 -2.02387e-07 0)
(0.00100027 -1.89059e-07 0)
(0.00100034 -2.67837e-07 0)
(0.000999999 -2.85141e-08 0)
(0.00100005 -7.90348e-08 0)
(0.00100014 -1.22341e-07 0)
(0.00100026 -1.66113e-07 0)
(0.00100042 -2.10805e-07 0)
(0.00100062 -2.43561e-07 0)
(0.00100085 -2.47747e-07 0)
(0.00100109 -2.16195e-07 0)
(0.00100131 -1.47575e-07 0)
(0.00100148 -4.46162e-08 0)
(0.00100157 9.04229e-08 0)
(0.00100156 2.41182e-07 0)
(0.00100143 3.87162e-07 0)
(0.00100121 4.79628e-07 0)
(0.00100094 5.09283e-07 0)
(0.00100068 4.5334e-07 0)
(0.00100049 3.73616e-07 0)
(0.00100037 2.52399e-07 0)
(0.00100034 2.09033e-07 0)
(0.00100029 8.38898e-08 0)
(0.000999999 -5.57671e-08 0)
(0.00100005 -1.59999e-07 0)
(0.00100014 -2.58592e-07 0)
(0.00100026 -3.61977e-07 0)
(0.00100043 -4.69461e-07 0)
(0.00100065 -5.60183e-07 0)
(0.00100091 -6.07141e-07 0)
(0.00100118 -5.93056e-07 0)
(0.00100144 -5.08963e-07 0)
(0.00100165 -3.48596e-07 0)
(0.00100177 -1.15539e-07 0)
(0.00100177 1.52972e-07 0)
(0.00100161 3.98407e-07 0)
(0.00100132 5.25402e-07 0)
(0.00100096 5.06552e-07 0)
(0.00100063 3.55944e-07 0)
(0.00100038 1.96299e-07 0)
(0.00100027 3.90754e-08 0)
(0.00100023 5.17392e-10 0)
(0.0010003 -1.13259e-07 0)
(0.000999999 -7.80879e-08 0)
(0.00100005 -2.23538e-07 0)
(0.00100014 -3.63872e-07 0)
(0.00100027 -5.14956e-07 0)
(0.00100045 -6.75164e-07 0)
(0.0010007 -8.16315e-07 0)
(0.00100101 -8.94916e-07 0)
(0.00100135 -8.80744e-07 0)
(0.00100172 -7.44682e-07 0)
(0.00100204 -4.70716e-07 0)
(0.00100223 -3.22387e-08 0)
(0.0010022 4.80969e-07 0)
(0.00100194 9.33548e-07 0)
(0.00100148 1.14748e-06 0)
(0.00100099 1.06526e-06 0)
(0.0010006 7.46493e-07 0)
(0.00100042 4.14308e-07 0)
(0.00100036 1.60114e-07 0)
(0.00100041 1.06273e-07 0)
(0.00100035 5.00569e-09 0)
(0.001 -9.63196e-08 0)
(0.00100004 -2.79511e-07 0)
(0.00100013 -4.64778e-07 0)
(0.00100026 -6.76604e-07 0)
(0.00100045 -9.14634e-07 0)
(0.00100073 -1.14694e-06 0)
(0.0010011 -1.30609e-06 0)
(0.00100156 -1.33189e-06 0)
(0.00100208 -1.16349e-06 0)
(0.00100258 -7.73792e-07 0)
(0.00100291 -1.77692e-07 0)
(0.0010029 5.66287e-07 0)
(0.00100246 1.22752e-06 0)
(0.00100169 1.5199e-06 0)
(0.00100088 1.38645e-06 0)
(0.00100032 9.69045e-07 0)
(0.00100014 5.7123e-07 0)
(0.00100023 3.03267e-07 0)
(0.00100038 2.67983e-07 0)
(0.00100044 1.73147e-07 0)
(0.001 -1.08854e-07 0)
(0.00100003 -3.20149e-07 0)
(0.00100009 -5.49712e-07 0)
(0.0010002 -8.272e-07 0)
(0.00100039 -1.16703e-06 0)
(0.00100069 -1.5333e-06 0)
(0.00100116 -1.86617e-06 0)
(0.0010018 -2.04814e-06 0)
(0.00100255 -1.89879e-06 0)
(0.00100328 -1.19551e-06 0)
(0.00100378 7.75263e-08 0)
(0.00100379 1.5315e-06 0)
(0.00100311 2.43167e-06 0)
(0.00100193 2.31572e-06 0)
(0.00100083 1.44319e-06 0)
(0.00100021 4.97777e-07 0)
(0.00100019 4.80485e-09 0)
(0.00100038 -9.52122e-08 0)
(0.00100065 6.43783e-08 0)
(0.00100055 5.43296e-08 0)
(0.000999999 -1.07604e-07 0)
(0.00100001 -3.35055e-07 0)
(0.00100003 -5.90632e-07 0)
(0.00100009 -9.4616e-07 0)
(0.00100022 -1.38732e-06 0)
(0.00100049 -1.95335e-06 0)
(0.00100101 -2.49494e-06 0)
(0.00100189 -3.07906e-06 0)
(0.00100322 -3.22371e-06 0)
(0.00100474 -2.87474e-06 0)
(0.00100576 -6.80712e-07 0)
(0.00100537 2.54524e-06 0)
(0.00100351 4.82524e-06 0)
(0.00100114 4.74562e-06 0)
(0.000999623 3.04165e-06 0)
(0.000999387 1.27059e-06 0)
(0.00100002 4.23474e-07 0)
(0.00100057 3.17748e-07 0)
(0.00100093 5.6733e-07 0)
(0.00100067 5.37758e-07 0)
(0.000999995 -9.65449e-08 0)
(0.00099997 -2.90104e-07 0)
(0.000999914 -5.68099e-07 0)
(0.000999886 -9.4395e-07 0)
(0.000999891 -1.57272e-06 0)
(0.00100011 -2.34949e-06 0)
(0.00100051 -3.40597e-06 0)
(0.00100153 -4.11988e-06 0)
(0.0010031 -4.36422e-06 0)
(0.00100603 -2.54823e-06 0)
(0.00100913 7.49314e-07 0)
(0.00100916 4.25601e-06 0)
(0.00100552 4.71678e-06 0)
(0.00100075 2.78898e-06 0)
(0.000998169 7.44939e-07 0)
(0.000998291 -2.68713e-07 0)
(0.000999813 -2.90687e-07 0)
(0.00100089 -1.65015e-08 0)
(0.00100134 2.14997e-07 0)
(0.00100086 1.04838e-07 0)
(0.000999995 -5.1861e-08 0)
(0.000999916 -2.04451e-07 0)
(0.000999762 -3.80122e-07 0)
(0.000999543 -7.25551e-07 0)
(0.000999302 -1.33407e-06 0)
(0.000999224 -2.4834e-06 0)
(0.000999717 -4.68915e-06 0)
(0.0010014 -8.06535e-06 0)
(0.00100493 -1.328e-05 0)
(0.0010096 -1.49124e-05 0)
(0.0010119 3.83897e-06 0)
(0.00100894 1.87223e-05 0)
(0.00100223 1.57818e-05 0)
(0.00099758 5.74885e-06 0)
(0.000996903 -3.09302e-07 0)
(0.00099848 -1.259e-06 0)
(0.00100029 -9.68894e-08 0)
(0.00100101 6.30653e-07 0)
(0.00100108 6.52852e-07 0)
(0.00100055 2.42894e-07 0)
(0.000999804 -2.06845e-08 0)
(0.00100017 -6.61103e-08 0)
(0.000999221 -1.47416e-07 0)
(0.000999916 -2.42807e-07 0)
(0.000997536 -5.88017e-07 0)
(0.000998857 -1.1305e-06 0)
(0.000993357 -2.88364e-06 0)
(0.000997541 -5.59261e-06 0)
(0.00099168 -1.15432e-05 0)
(0.000915851 -1.27044e-05 0)
(0.000951483 2.69397e-07 0)
(0.00101024 1.46404e-05 0)
(0.000990963 1.30864e-05 0)
(0.000983987 5.14645e-06 0)
(0.000989602 2.00442e-07 0)
(0.0009963 -7.75999e-07 0)
(0.000999254 -1.09874e-07 0)
(0.000999422 2.48499e-07 0)
(0.000998655 1.74064e-07 0)
(0.000998515 -1.88183e-07 0)
(0.000999804 1.43511e-08 0)
(0.00100017 4.78251e-08 0)
(0.000999221 1.18546e-07 0)
(0.000999915 2.0163e-07 0)
(0.000997534 5.33109e-07 0)
(0.000998851 1.05598e-06 0)
(0.000993348 2.78912e-06 0)
(0.000997529 5.4729e-06 0)
(0.000991665 1.13956e-05 0)
(0.000915826 1.25471e-05 0)
(0.00095145 -4.69534e-07 0)
(0.00101022 -1.49039e-05 0)
(0.000990956 -1.34045e-05 0)
(0.000983979 -5.53174e-06 0)
(0.000989583 -6.43428e-07 0)
(0.000996261 2.54164e-07 0)
(0.000999211 -4.67155e-07 0)
(0.000999375 -9.98795e-07 0)
(0.000998641 -9.90239e-07 0)
(0.000998466 -8.93512e-07 0)
(0.000999995 4.60324e-08 0)
(0.000999916 1.87271e-07 0)
(0.000999761 3.51961e-07 0)
(0.000999542 6.84616e-07 0)
(0.000999299 1.27928e-06 0)
(0.000999223 2.40947e-06 0)
(0.000999713 4.59441e-06 0)
(0.0010014 7.94019e-06 0)
(0.00100491 1.31241e-05 0)
(0.0010096 1.47109e-05 0)
(0.0010119 -4.06736e-06 0)
(0.00100891 -1.90028e-05 0)
(0.00100215 -1.60936e-05 0)
(0.000997489 -6.12249e-06 0)
(0.00099683 -8.36478e-08 0)
(0.000998418 7.79649e-07 0)
(0.00100018 -4.19554e-07 0)
(0.00100086 -1.29786e-06 0)
(0.00100089 -1.38128e-06 0)
(0.00100038 -1.2572e-06 0)
(0.000999995 9.13375e-08 0)
(0.000999969 2.74448e-07 0)
(0.000999912 5.40878e-07 0)
(0.000999882 9.03534e-07 0)
(0.000999883 1.51535e-06 0)
(0.00100009 2.27218e-06 0)
(0.00100049 3.30131e-06 0)
(0.0010015 3.98733e-06 0)
(0.00100304 4.20035e-06 0)
(0.00100596 2.35607e-06 0)
(0.00100904 -9.8035e-07 0)
(0.00100908 -4.53461e-06 0)
(0.00100544 -5.01712e-06 0)
(0.00100068 -3.13115e-06 0)
(0.000998073 -1.13366e-06 0)
(0.00099815 -2.47242e-07 0)
(0.000999636 -3.09949e-07 0)
(0.00100065 -7.2995e-07 0)
(0.00100107 -9.70191e-07 0)
(0.00100056 -1.08181e-06 0)
(0.000999999 1.02859e-07 0)
(0.00100001 3.2032e-07 0)
(0.00100003 5.65243e-07 0)
(0.00100008 9.07796e-07 0)
(0.00100021 1.33446e-06 0)
(0.00100048 1.88308e-06 0)
(0.00100098 2.40823e-06 0)
(0.00100186 2.97136e-06 0)
(0.00100319 3.10052e-06 0)
(0.0010047 2.72625e-06 0)
(0.00100569 5.14785e-07 0)
(0.00100529 -2.74182e-06 0)
(0.0010034 -5.07099e-06 0)
(0.00100098 -5.07298e-06 0)
(0.000999424 -3.45371e-06 0)
(0.000999137 -1.79036e-06 0)
(0.000999758 -1.00594e-06 0)
(0.00100026 -1.04542e-06 0)
(0.00100062 -1.31118e-06 0)
(0.00100025 -1.52469e-06 0)
(0.001 1.0454e-07 0)
(0.00100003 3.07046e-07 0)
(0.00100009 5.27537e-07 0)
(0.00100019 7.94284e-07 0)
(0.00100037 1.12181e-06 0)
(0.00100067 1.47179e-06 0)
(0.00100113 1.78772e-06 0)
(0.00100175 1.94568e-06 0)
(0.00100249 1.76876e-06 0)
(0.00100319 1.02879e-06 0)
(0.00100367 -2.71323e-07 0)
(0.00100365 -1.76651e-06 0)
(0.00100294 -2.70329e-06 0)
(0.00100172 -2.63448e-06 0)
(0.00100059 -1.78354e-06 0)
(0.000999919 -8.92195e-07 0)
(0.000999871 -4.12809e-07 0)
(0.000999992 -4.34015e-07 0)
(0.00100023 -6.21099e-07 0)
(0.00100001 -8.58278e-07 0)
(0.001 9.25413e-08 0)
(0.00100004 2.68205e-07 0)
(0.00100012 4.45478e-07 0)
(0.00100025 6.49347e-07 0)
(0.00100043 8.77784e-07 0)
(0.00100071 1.09653e-06 0)
(0.00100107 1.23834e-06 0)
(0.00100151 1.24684e-06 0)
(0.00100201 1.05971e-06 0)
(0.0010025 6.50396e-07 0)
(0.00100281 2.57638e-08 0)
(0.00100276 -7.56384e-07 0)
(0.00100229 -1.44243e-06 0)
(0.00100148 -1.77652e-06 0)
(0.00100064 -1.67296e-06 0)
(0.00100002 -1.34576e-06 0)
(0.000999805 -1.01529e-06 0)
(0.000999777 -9.23689e-07 0)
(0.000999896 -9.51055e-07 0)
(0.000999777 -1.11826e-06 0)
(0.000999999 7.49499e-08 0)
(0.00100005 2.1336e-07 0)
(0.00100013 3.46076e-07 0)
(0.00100026 4.89761e-07 0)
(0.00100044 6.4341e-07 0)
(0.00100067 7.76273e-07 0)
(0.00100097 8.44834e-07 0)
(0.0010013 8.20178e-07 0)
(0.00100164 6.78349e-07 0)
(0.00100192 3.9945e-07 0)
(0.00100207 -4.17265e-08 0)
(0.00100201 -5.64522e-07 0)
(0.00100172 -1.02987e-06 0)
(0.00100121 -1.28449e-06 0)
(0.00100066 -1.23461e-06 0)
(0.00100017 -9.92169e-07 0)
(0.000999924 -6.89265e-07 0)
(0.000999751 -5.45087e-07 0)
(0.000999764 -4.92407e-07 0)
(0.000999569 -6.06785e-07 0)
(0.000999999 5.48393e-08 0)
(0.00100005 1.52618e-07 0)
(0.00100013 2.40017e-07 0)
(0.00100025 3.28659e-07 0)
(0.00100042 4.20076e-07 0)
(0.00100063 4.91159e-07 0)
(0.00100087 5.14121e-07 0)
(0.00100113 4.68212e-07 0)
(0.00100138 3.50634e-07 0)
(0.00100158 1.50169e-07 0)
(0.00100168 -1.11993e-07 0)
(0.00100162 -4.12138e-07 0)
(0.00100141 -6.77679e-07 0)
(0.00100105 -8.45211e-07 0)
(0.00100065 -8.54229e-07 0)
(0.00100023 -7.6932e-07 0)
(0.000999958 -6.28309e-07 0)
(0.000999701 -5.87177e-07 0)
(0.000999641 -5.64194e-07 0)
(0.000999396 -6.90458e-07 0)
(0.000999998 3.7267e-08 0)
(0.00100004 1.06747e-07 0)
(0.00100012 1.70836e-07 0)
(0.00100023 2.35359e-07 0)
(0.00100038 3.00471e-07 0)
(0.00100057 3.53885e-07 0)
(0.00100078 3.78669e-07 0)
(0.00100099 3.66019e-07 0)
(0.00100117 3.13668e-07 0)
(0.00100131 2.21135e-07 0)
(0.00100137 8.91223e-08 0)
(0.00100133 -6.45762e-08 0)
(0.00100117 -2.02938e-07 0)
(0.00100088 -2.98628e-07 0)
(0.00100055 -3.1493e-07 0)
(0.00100017 -2.80909e-07 0)
(0.000999909 -1.9614e-07 0)
(0.000999627 -1.62086e-07 0)
(0.000999531 -1.1992e-07 0)
(0.000999256 -2.01903e-07 0)
(0.000999998 -3.28971e-09 0)
(0.00100005 -8.92773e-09 0)
(0.00100013 -1.3425e-08 0)
(0.00100024 -1.64661e-08 0)
(0.00100039 -1.79667e-08 0)
(0.00100057 -2.198e-08 0)
(0.00100076 -3.26427e-08 0)
(0.00100096 -5.36621e-08 0)
(0.00100113 -8.2986e-08 0)
(0.00100124 -1.22653e-07 0)
(0.00100129 -1.68301e-07 0)
(0.00100123 -2.29155e-07 0)
(0.00100108 -2.8975e-07 0)
(0.00100082 -3.41934e-07 0)
(0.00100054 -3.60403e-07 0)
(0.00100019 -3.67401e-07 0)
(0.000999954 -3.39918e-07 0)
(0.000999622 -3.50427e-07 0)
(0.000999535 -3.2831e-07 0)
(0.000999136 -4.11641e-07 0)
)
;

boundaryField
{
    sides
    {
        type            slip;
    }
    inlet
    {
        type            fixedValue;
        value           uniform (0.001 0 0);
    }
    outlet
    {
        type            zeroGradient;
    }
    frontAndBack
    {
        type            empty;
    }
}


// ************************************************************************* //
