/*--------------------------------*- C++ -*----------------------------------*\
  =========                 |
  \\      /  F ield         | OpenFOAM: The Open Source CFD Toolbox
   \\    /   O peration     | Website:  https://openfoam.org
    \\  /    A nd           | Version:  9
     \\/     M anipulation  |
\*---------------------------------------------------------------------------*/
FoamFile
{
    format      ascii;
    class       volVectorField;
    location    "46";
    object      hU_0;
}
// * * * * * * * * * * * * * * * * * * * * * * * * * * * * * * * * * * * * * //

dimensions      [0 2 -1 0 0 0 0];

internalField   nonuniform List<vector> 
400
(
(0.000999998 -2.46885e-08 0)
(0.00100005 -6.96595e-08 0)
(0.00100013 -1.09805e-07 0)
(0.00100024 -1.48938e-07 0)
(0.00100039 -1.86727e-07 0)
(0.00100059 -2.18298e-07 0)
(0.0010008 -2.37031e-07 0)
(0.001001 -2.42477e-07 0)
(0.00100119 -2.32454e-07 0)
(0.00100133 -2.09488e-07 0)
(0.00100141 -1.69822e-07 0)
(0.00100141 -1.29981e-07 0)
(0.00100131 -9.90139e-08 0)
(0.00100113 -9.12998e-08 0)
(0.00100088 -9.76682e-08 0)
(0.00100065 -1.35267e-07 0)
(0.00100044 -1.57646e-07 0)
(0.00100035 -2.02054e-07 0)
(0.00100027 -1.88821e-07 0)
(0.00100034 -2.67807e-07 0)
(0.000999999 -2.79735e-08 0)
(0.00100005 -7.73734e-08 0)
(0.00100014 -1.20653e-07 0)
(0.00100026 -1.65675e-07 0)
(0.00100042 -2.11493e-07 0)
(0.00100063 -2.43749e-07 0)
(0.00100086 -2.46367e-07 0)
(0.00100109 -2.13857e-07 0)
(0.00100131 -1.45977e-07 0)
(0.00100148 -4.36834e-08 0)
(0.00100157 9.13096e-08 0)
(0.00100156 2.43478e-07 0)
(0.00100143 3.89974e-07 0)
(0.00100121 4.8176e-07 0)
(0.00100094 5.10381e-07 0)
(0.00100067 4.53415e-07 0)
(0.00100049 3.73743e-07 0)
(0.00100037 2.54012e-07 0)
(0.00100034 2.10332e-07 0)
(0.00100029 8.37488e-08 0)
(0.000999999 -5.49863e-08 0)
(0.00100005 -1.57561e-07 0)
(0.00100014 -2.56073e-07 0)
(0.00100026 -3.61409e-07 0)
(0.00100043 -4.70566e-07 0)
(0.00100065 -5.60146e-07 0)
(0.00100091 -6.04395e-07 0)
(0.00100118 -5.89106e-07 0)
(0.00100144 -5.06657e-07 0)
(0.00100165 -3.47622e-07 0)
(0.00100178 -1.14391e-07 0)
(0.00100177 1.55285e-07 0)
(0.00100161 4.02029e-07 0)
(0.00100132 5.27659e-07 0)
(0.00100096 5.07111e-07 0)
(0.00100063 3.55452e-07 0)
(0.00100037 1.96165e-07 0)
(0.00100027 4.08605e-08 0)
(0.00100023 2.12858e-09 0)
(0.0010003 -1.13397e-07 0)
(0.000999999 -7.73117e-08 0)
(0.00100005 -2.20489e-07 0)
(0.00100014 -3.60718e-07 0)
(0.00100027 -5.14427e-07 0)
(0.00100045 -6.764e-07 0)
(0.0010007 -8.1563e-07 0)
(0.00100101 -8.9073e-07 0)
(0.00100136 -8.76464e-07 0)
(0.00100172 -7.42158e-07 0)
(0.00100204 -4.70971e-07 0)
(0.00100223 -3.16801e-08 0)
(0.0010022 4.83329e-07 0)
(0.00100194 9.36707e-07 0)
(0.00100148 1.14973e-06 0)
(0.00100098 1.06501e-06 0)
(0.00100059 7.44721e-07 0)
(0.00100042 4.13415e-07 0)
(0.00100036 1.62036e-07 0)
(0.00100041 1.08054e-07 0)
(0.00100035 4.67269e-09 0)
(0.000999999 -9.56838e-08 0)
(0.00100004 -2.76284e-07 0)
(0.00100013 -4.61383e-07 0)
(0.00100026 -6.75923e-07 0)
(0.00100045 -9.15576e-07 0)
(0.00100073 -1.1456e-06 0)
(0.00100111 -1.30192e-06 0)
(0.00100157 -1.32772e-06 0)
(0.00100208 -1.16183e-06 0)
(0.00100258 -7.73509e-07 0)
(0.00100291 -1.78444e-07 0)
(0.0010029 5.69009e-07 0)
(0.00100246 1.23105e-06 0)
(0.00100169 1.52206e-06 0)
(0.00100087 1.38626e-06 0)
(0.00100032 9.66804e-07 0)
(0.00100014 5.69497e-07 0)
(0.00100023 3.04844e-07 0)
(0.00100037 2.69703e-07 0)
(0.00100043 1.7265e-07 0)
(0.000999999 -1.08419e-07 0)
(0.00100003 -3.16989e-07 0)
(0.00100009 -5.46329e-07 0)
(0.0010002 -8.26397e-07 0)
(0.00100039 -1.16772e-06 0)
(0.00100069 -1.5322e-06 0)
(0.00100116 -1.86265e-06 0)
(0.0010018 -2.04429e-06 0)
(0.00100255 -1.89711e-06 0)
(0.00100327 -1.1957e-06 0)
(0.00100378 7.8664e-08 0)
(0.00100379 1.53263e-06 0)
(0.00100311 2.43628e-06 0)
(0.00100193 2.31867e-06 0)
(0.00100083 1.44327e-06 0)
(0.0010002 4.95817e-07 0)
(0.00100018 2.93133e-09 0)
(0.00100038 -9.44568e-08 0)
(0.00100064 6.54837e-08 0)
(0.00100055 5.38225e-08 0)
(0.000999999 -1.07396e-07 0)
(0.00100001 -3.32175e-07 0)
(0.00100003 -5.8748e-07 0)
(0.00100009 -9.45385e-07 0)
(0.00100022 -1.38811e-06 0)
(0.0010005 -1.95291e-06 0)
(0.00100101 -2.49204e-06 0)
(0.00100189 -3.07555e-06 0)
(0.00100322 -3.22129e-06 0)
(0.00100475 -2.87684e-06 0)
(0.00100575 -6.75339e-07 0)
(0.00100537 2.5472e-06 0)
(0.00100351 4.82818e-06 0)
(0.00100114 4.74874e-06 0)
(0.000999621 3.04225e-06 0)
(0.000999385 1.26901e-06 0)
(0.00100002 4.22087e-07 0)
(0.00100057 3.19017e-07 0)
(0.00100093 5.68607e-07 0)
(0.00100066 5.37212e-07 0)
(0.000999995 -9.64889e-08 0)
(0.000999971 -2.87747e-07 0)
(0.000999915 -5.65541e-07 0)
(0.000999888 -9.43393e-07 0)
(0.000999892 -1.57362e-06 0)
(0.00100011 -2.34947e-06 0)
(0.00100051 -3.40366e-06 0)
(0.00100153 -4.11676e-06 0)
(0.0010031 -4.36303e-06 0)
(0.00100603 -2.54608e-06 0)
(0.00100912 7.44364e-07 0)
(0.00100915 4.25922e-06 0)
(0.00100551 4.72011e-06 0)
(0.00100075 2.79103e-06 0)
(0.000998167 7.45627e-07 0)
(0.000998289 -2.69536e-07 0)
(0.00099981 -2.916e-07 0)
(0.00100088 -1.54387e-08 0)
(0.00100134 2.16153e-07 0)
(0.00100086 1.0458e-07 0)
(0.000999995 -5.1787e-08 0)
(0.000999917 -2.02828e-07 0)
(0.000999763 -3.78547e-07 0)
(0.000999544 -7.25404e-07 0)
(0.000999303 -1.33475e-06 0)
(0.000999225 -2.48347e-06 0)
(0.000999718 -4.68787e-06 0)
(0.00100141 -8.06349e-06 0)
(0.00100493 -1.32798e-05 0)
(0.0010096 -1.49109e-05 0)
(0.00101191 3.83386e-06 0)
(0.00100895 1.87248e-05 0)
(0.00100223 1.5784e-05 0)
(0.000997578 5.75017e-06 0)
(0.000996901 -3.08834e-07 0)
(0.000998477 -1.25935e-06 0)
(0.00100028 -9.75355e-08 0)
(0.00100101 6.31322e-07 0)
(0.00100108 6.5363e-07 0)
(0.00100055 2.42742e-07 0)
(0.000999804 -2.0562e-08 0)
(0.00100017 -6.54338e-08 0)
(0.000999223 -1.47018e-07 0)
(0.000999918 -2.43018e-07 0)
(0.000997538 -5.88279e-07 0)
(0.000998858 -1.13045e-06 0)
(0.000993358 -2.88365e-06 0)
(0.000997542 -5.59275e-06 0)
(0.000991682 -1.15432e-05 0)
(0.000915849 -1.27074e-05 0)
(0.000951485 2.74486e-07 0)
(0.00101024 1.46402e-05 0)
(0.000990959 1.30859e-05 0)
(0.000983986 5.14718e-06 0)
(0.000989601 2.00719e-07 0)
(0.000996298 -7.76458e-07 0)
(0.00099925 -1.10613e-07 0)
(0.000999419 2.4837e-07 0)
(0.000998653 1.74005e-07 0)
(0.000998513 -1.88392e-07 0)
(0.000999804 1.44055e-08 0)
(0.00100017 4.74001e-08 0)
(0.000999222 1.17867e-07 0)
(0.000999917 2.01245e-07 0)
(0.000997535 5.33264e-07 0)
(0.000998852 1.05596e-06 0)
(0.000993349 2.78824e-06 0)
(0.00099753 5.47151e-06 0)
(0.000991665 1.13942e-05 0)
(0.000915827 1.25468e-05 0)
(0.000951451 -4.71065e-07 0)
(0.00101021 -1.49047e-05 0)
(0.000990955 -1.34045e-05 0)
(0.000983978 -5.5322e-06 0)
(0.000989581 -6.43872e-07 0)
(0.000996258 2.53556e-07 0)
(0.000999207 -4.67964e-07 0)
(0.000999372 -9.99709e-07 0)
(0.000998639 -9.91084e-07 0)
(0.000998464 -8.93704e-07 0)
(0.000999995 4.60119e-08 0)
(0.000999917 1.85851e-07 0)
(0.000999763 3.50394e-07 0)
(0.000999544 6.84179e-07 0)
(0.000999301 1.27953e-06 0)
(0.000999224 2.40895e-06 0)
(0.000999714 4.59228e-06 0)
(0.0010014 7.93772e-06 0)
(0.00100492 1.3123e-05 0)
(0.0010096 1.47117e-05 0)
(0.00101191 -4.06595e-06 0)
(0.00100891 -1.90036e-05 0)
(0.00100215 -1.60942e-05 0)
(0.000997488 -6.12339e-06 0)
(0.000996828 -8.40871e-08 0)
(0.000998415 7.79849e-07 0)
(0.00100018 -4.19467e-07 0)
(0.00100086 -1.29876e-06 0)
(0.00100088 -1.38257e-06 0)
(0.00100038 -1.25739e-06 0)
(0.000999995 9.12797e-08 0)
(0.00099997 2.72202e-07 0)
(0.000999913 5.3852e-07 0)
(0.000999884 9.03089e-07 0)
(0.000999885 1.51574e-06 0)
(0.00100009 2.27089e-06 0)
(0.00100049 3.29803e-06 0)
(0.0010015 3.98369e-06 0)
(0.00100305 4.19949e-06 0)
(0.00100596 2.35703e-06 0)
(0.00100902 -9.78858e-07 0)
(0.00100907 -4.53554e-06 0)
(0.00100544 -5.01848e-06 0)
(0.00100068 -3.13207e-06 0)
(0.000998071 -1.13358e-06 0)
(0.000998147 -2.45945e-07 0)
(0.000999633 -3.09079e-07 0)
(0.00100065 -7.31272e-07 0)
(0.00100107 -9.72099e-07 0)
(0.00100056 -1.08201e-06 0)
(0.000999999 1.02774e-07 0)
(0.00100001 3.17473e-07 0)
(0.00100003 5.62178e-07 0)
(0.00100008 9.07208e-07 0)
(0.00100021 1.3351e-06 0)
(0.00100048 1.88153e-06 0)
(0.00100098 2.40407e-06 0)
(0.00100187 2.96713e-06 0)
(0.00100319 3.09833e-06 0)
(0.0010047 2.72725e-06 0)
(0.00100569 5.13039e-07 0)
(0.00100529 -2.74209e-06 0)
(0.0010034 -5.07337e-06 0)
(0.00100098 -5.0749e-06 0)
(0.000999422 -3.45349e-06 0)
(0.000999135 -1.78854e-06 0)
(0.000999755 -1.00485e-06 0)
(0.00100026 -1.0472e-06 0)
(0.00100062 -1.3136e-06 0)
(0.00100024 -1.5249e-06 0)
(0.000999999 1.04328e-07 0)
(0.00100003 3.03949e-07 0)
(0.00100009 5.24051e-07 0)
(0.00100019 7.93392e-07 0)
(0.00100037 1.12255e-06 0)
(0.00100067 1.47051e-06 0)
(0.00100113 1.78307e-06 0)
(0.00100175 1.94078e-06 0)
(0.00100249 1.7661e-06 0)
(0.00100319 1.02799e-06 0)
(0.00100367 -2.69831e-07 0)
(0.00100365 -1.76877e-06 0)
(0.00100293 -2.70698e-06 0)
(0.00100172 -2.63688e-06 0)
(0.00100059 -1.78341e-06 0)
(0.000999917 -8.90492e-07 0)
(0.000999869 -4.1186e-07 0)
(0.000999989 -4.35952e-07 0)
(0.00100022 -6.23634e-07 0)
(0.00100001 -8.58438e-07 0)
(0.000999999 9.20292e-08 0)
(0.00100004 2.6513e-07 0)
(0.00100012 4.42094e-07 0)
(0.00100025 6.48356e-07 0)
(0.00100043 8.78446e-07 0)
(0.00100071 1.09557e-06 0)
(0.00100107 1.23421e-06 0)
(0.00100151 1.24194e-06 0)
(0.00100201 1.057e-06 0)
(0.0010025 6.49742e-07 0)
(0.00100281 2.48141e-08 0)
(0.00100276 -7.59015e-07 0)
(0.00100229 -1.44638e-06 0)
(0.00100148 -1.77931e-06 0)
(0.00100063 -1.67333e-06 0)
(0.00100002 -1.34445e-06 0)
(0.000999803 -1.01465e-06 0)
(0.000999775 -9.25869e-07 0)
(0.000999894 -9.53503e-07 0)
(0.000999774 -1.11827e-06 0)
(0.000999999 7.41056e-08 0)
(0.00100005 2.10496e-07 0)
(0.00100013 3.43262e-07 0)
(0.00100026 4.89067e-07 0)
(0.00100044 6.43948e-07 0)
(0.00100067 7.75412e-07 0)
(0.00100097 8.41501e-07 0)
(0.0010013 8.16017e-07 0)
(0.00100164 6.76061e-07 0)
(0.00100192 3.98914e-07 0)
(0.00100207 -4.22002e-08 0)
(0.00100201 -5.67013e-07 0)
(0.00100172 -1.03362e-06 0)
(0.00100121 -1.28715e-06 0)
(0.00100066 -1.23504e-06 0)
(0.00100017 -9.90921e-07 0)
(0.000999923 -6.88651e-07 0)
(0.00099975 -5.47144e-07 0)
(0.000999762 -4.94644e-07 0)
(0.000999566 -6.06777e-07 0)
(0.000999999 5.38669e-08 0)
(0.00100005 1.50015e-07 0)
(0.00100013 2.37901e-07 0)
(0.00100025 3.28612e-07 0)
(0.00100042 4.20829e-07 0)
(0.00100063 4.90266e-07 0)
(0.00100087 5.11157e-07 0)
(0.00100113 4.64878e-07 0)
(0.00100138 3.48799e-07 0)
(0.00100158 1.49981e-07 0)
(0.00100168 -1.12286e-07 0)
(0.00100162 -4.14093e-07 0)
(0.00100141 -6.80452e-07 0)
(0.00100105 -8.47059e-07 0)
(0.00100065 -8.54235e-07 0)
(0.00100023 -7.67943e-07 0)
(0.000999958 -6.27513e-07 0)
(0.0009997 -5.88798e-07 0)
(0.000999639 -5.66216e-07 0)
(0.000999392 -6.9063e-07 0)
(0.000999998 3.65406e-08 0)
(0.00100004 1.04923e-07 0)
(0.00100012 1.69499e-07 0)
(0.00100023 2.35633e-07 0)
(0.00100038 3.01278e-07 0)
(0.00100057 3.53294e-07 0)
(0.00100078 3.76462e-07 0)
(0.00100099 3.63577e-07 0)
(0.00100117 3.12269e-07 0)
(0.00100131 2.20793e-07 0)
(0.00100137 8.87733e-08 0)
(0.00100133 -6.57429e-08 0)
(0.00100117 -2.04545e-07 0)
(0.00100088 -2.99595e-07 0)
(0.00100054 -3.14677e-07 0)
(0.00100017 -2.79735e-07 0)
(0.000999909 -1.95518e-07 0)
(0.000999626 -1.63417e-07 0)
(0.000999528 -1.21683e-07 0)
(0.000999253 -2.02225e-07 0)
(0.000999999 -3.53796e-09 0)
(0.00100005 -9.50778e-09 0)
(0.00100013 -1.38659e-08 0)
(0.00100024 -1.6377e-08 0)
(0.00100039 -1.76619e-08 0)
(0.00100057 -2.21292e-08 0)
(0.00100077 -3.33743e-08 0)
(0.00100096 -5.45482e-08 0)
(0.00100112 -8.36253e-08 0)
(0.00100124 -1.23e-07 0)
(0.00100129 -1.68722e-07 0)
(0.00100123 -2.29803e-07 0)
(0.00100108 -2.90395e-07 0)
(0.00100082 -3.42203e-07 0)
(0.00100054 -3.60235e-07 0)
(0.00100019 -3.66971e-07 0)
(0.000999953 -3.39747e-07 0)
(0.000999621 -3.51013e-07 0)
(0.000999532 -3.29062e-07 0)
(0.000999133 -4.11802e-07 0)
)
;

boundaryField
{
    sides
    {
        type            slip;
    }
    inlet
    {
        type            fixedValue;
        value           uniform (0.001 0 0);
    }
    outlet
    {
        type            zeroGradient;
    }
    frontAndBack
    {
        type            empty;
    }
}


// ************************************************************************* //
