/*--------------------------------*- C++ -*----------------------------------*\
  =========                 |
  \\      /  F ield         | OpenFOAM: The Open Source CFD Toolbox
   \\    /   O peration     | Website:  https://openfoam.org
    \\  /    A nd           | Version:  9
     \\/     M anipulation  |
\*---------------------------------------------------------------------------*/
FoamFile
{
    format      ascii;
    class       surfaceScalarField;
    location    "46";
    object      phi;
}
// * * * * * * * * * * * * * * * * * * * * * * * * * * * * * * * * * * * * * //

dimensions      [0 4 -1 0 0 0 0];

internalField   nonuniform List<scalar> 
760
(
5.00012e-06
-9.87155e-11
5.00044e-06
-3.07059e-10
5.00094e-06
-4.93527e-10
5.00163e-06
-6.79562e-10
5.0025e-06
-8.67357e-10
5.00353e-06
-1.01461e-09
5.00461e-06
-1.06474e-09
5.00562e-06
-9.97402e-10
5.00644e-06
-8.082e-10
5.00696e-06
-5.13645e-10
5.00711e-06
-1.35642e-10
5.00674e-06
3.72188e-10
5.00589e-06
8.44651e-10
5.00477e-06
1.11163e-09
5.00357e-06
1.18583e-09
5.0026e-06
9.55823e-10
5.0019e-06
6.96719e-10
5.00167e-06
2.25562e-10
5.00155e-06
1.18742e-10
-3.8334e-10
5.00014e-06
-2.26878e-10
5.00049e-06
-6.36188e-10
5.00101e-06
-1.00929e-09
5.00173e-06
-1.39478e-09
5.00267e-06
-1.79089e-09
5.00378e-06
-2.11364e-09
5.00499e-06
-2.25776e-09
5.00616e-06
-2.16779e-09
5.00717e-06
-1.8122e-09
5.00781e-06
-1.15475e-09
5.00781e-06
-1.24792e-10
5.00734e-06
8.4193e-10
5.00636e-06
1.82334e-09
5.00503e-06
2.43065e-09
5.00374e-06
2.4689e-09
5.00282e-06
1.86373e-09
5.00229e-06
1.21455e-09
5.00196e-06
5.49538e-10
5.0017e-06
3.79596e-10
-1.29251e-10
5.00013e-06
-3.41439e-10
5.00046e-06
-9.57262e-10
5.00099e-06
-1.52845e-09
5.00174e-06
-2.13809e-09
5.00275e-06
-2.78099e-09
5.00399e-06
-3.34139e-09
5.00537e-06
-3.64534e-09
5.00678e-06
-3.57117e-09
5.00798e-06
-3.01139e-09
5.00877e-06
-1.9473e-09
5.009e-06
-3.46646e-10
5.00834e-06
1.51115e-09
5.00696e-06
3.20187e-09
5.00523e-06
4.16096e-09
5.00357e-06
4.13258e-09
5.00236e-06
3.06615e-09
5.00172e-06
1.84159e-09
5.00153e-06
7.19198e-10
5.00149e-06
4.21662e-10
-2.03052e-10
5.00011e-06
-4.46618e-10
5.00044e-06
-1.26827e-09
5.00097e-06
-2.05455e-09
5.00178e-06
-2.9262e-09
5.00289e-06
-3.88249e-09
5.00433e-06
-4.7826e-09
5.00606e-06
-5.38668e-09
5.008e-06
-5.50352e-09
5.00989e-06
-4.89623e-09
5.01113e-06
-3.17214e-09
5.01127e-06
-4.76279e-10
5.01007e-06
2.71208e-09
5.00774e-06
5.55361e-09
5.00522e-06
6.67715e-09
5.00354e-06
5.81675e-09
5.00276e-06
3.8477e-09
5.00253e-06
2.06375e-09
5.00235e-06
8.87484e-10
5.00204e-06
7.28945e-10
3.60975e-10
5.00009e-06
-5.30915e-10
5.00037e-06
-1.52846e-09
5.00087e-06
-2.54398e-09
5.00167e-06
-3.72312e-09
5.0029e-06
-5.10349e-09
5.00462e-06
-6.50659e-09
5.00685e-06
-7.61131e-09
5.00947e-06
-8.12187e-09
5.01245e-06
-7.85536e-09
5.01484e-06
-5.56882e-09
5.0149e-06
-5.1011e-10
5.01293e-06
4.68426e-09
5.00875e-06
9.73217e-09
5.00467e-06
1.07666e-08
5.0023e-06
8.18252e-09
5.0018e-06
4.35054e-09
5.0021e-06
1.75762e-09
5.00231e-06
6.72309e-10
5.00206e-06
9.83289e-10
6.5392e-10
5.00005e-06
-5.71357e-10
5.00022e-06
-1.68481e-09
5.00057e-06
-2.88748e-09
5.00126e-06
-4.39943e-09
5.00246e-06
-6.30663e-09
5.00457e-06
-8.61542e-09
5.00765e-06
-1.06839e-08
5.01173e-06
-1.21896e-08
5.01559e-06
-1.17174e-08
5.01909e-06
-9.05379e-09
5.02027e-06
-1.71078e-09
5.0161e-06
8.89977e-09
5.00958e-06
1.62381e-08
5.00429e-06
1.60503e-08
5.00225e-06
1.02221e-08
5.00257e-06
4.03005e-09
5.00333e-06
9.95034e-10
5.00344e-06
5.56116e-10
5.00284e-06
1.57632e-09
1.44524e-09
4.99999e-06
-5.47357e-10
4.99996e-06
-1.64187e-09
5.00007e-06
-2.98839e-09
5.00041e-06
-4.7413e-09
5.00128e-06
-7.16788e-09
5.00297e-06
-1.03058e-08
5.00685e-06
-1.45565e-08
5.01398e-06
-1.93135e-08
5.02381e-06
-2.15624e-08
5.03102e-06
-1.62068e-08
5.02882e-06
4.58382e-10
5.0168e-06
2.08864e-08
5.00426e-06
2.88107e-08
4.99881e-06
2.15037e-08
5.00065e-06
8.371e-09
5.00292e-06
1.75629e-09
5.00378e-06
1.32515e-10
5.00371e-06
6.18086e-10
5.00309e-06
2.18849e-09
1.69712e-09
4.99988e-06
-4.07181e-10
4.99957e-06
-1.32572e-09
4.99916e-06
-2.57264e-09
4.99891e-06
-4.48593e-09
4.9994e-06
-7.64384e-09
5.00041e-06
-1.13191e-08
5.00369e-06
-1.78369e-08
5.00987e-06
-2.54957e-08
5.02497e-06
-3.66281e-08
5.0562e-06
-4.75037e-08
5.05018e-06
5.59239e-09
5.02324e-06
4.77514e-08
4.99824e-06
5.37979e-08
4.99358e-06
2.61774e-08
4.99955e-06
2.40326e-09
5.00416e-06
-2.85409e-09
5.00497e-06
-6.84703e-10
5.00377e-06
1.80934e-09
5.00355e-06
2.3949e-09
9.74178e-10
4.99978e-06
-1.67564e-10
4.99917e-06
-7.05868e-10
4.99796e-06
-1.35358e-09
4.99617e-06
-2.6921e-09
4.99409e-06
-5.55381e-09
4.9938e-06
-1.10309e-08
4.9995e-06
-2.35363e-08
5.0172e-06
-4.31907e-08
5.05577e-06
-7.52241e-08
5.06693e-06
-5.8576e-08
5.04975e-06
2.3655e-08
4.99657e-06
1.01018e-07
4.98938e-06
6.10226e-08
4.99599e-06
1.9566e-08
5.00028e-06
-1.87974e-09
5.00302e-06
-5.59187e-09
5.00259e-06
-2.35579e-10
5.00188e-06
2.50589e-09
5.00259e-06
1.67918e-09
7.27913e-11
4.99986e-06
-1.59269e-11
4.99922e-06
-4.6011e-11
4.99795e-06
-7.34607e-11
4.99538e-06
-1.07316e-10
4.98997e-06
-1.47728e-10
4.97915e-06
-2.04839e-10
4.95587e-06
-2.63482e-10
4.91301e-06
-3.32068e-10
4.83822e-06
-4.1229e-10
4.78006e-06
-4.53135e-10
4.80436e-06
-6.05103e-10
4.90612e-06
-7.04277e-10
4.96784e-06
-7.33908e-10
4.98829e-06
-8.79031e-10
4.98755e-06
-1.12861e-09
4.98335e-06
-1.39544e-09
4.98463e-06
-1.53846e-09
4.98895e-06
-1.81714e-09
4.99252e-06
-1.89898e-09
-2.60438e-09
4.99986e-06
1.37189e-10
4.99922e-06
6.14609e-10
4.99795e-06
1.21052e-09
4.99537e-06
2.4806e-09
4.98995e-06
5.26851e-09
4.97911e-06
1.06347e-08
4.95582e-06
2.30325e-08
4.91295e-06
4.25305e-08
4.83812e-06
7.44374e-08
4.77982e-06
5.7814e-08
4.80435e-06
-2.50627e-08
4.90605e-06
-1.02467e-07
4.96782e-06
-6.25002e-08
4.98814e-06
-2.11884e-08
4.98745e-06
-4.38042e-10
4.98302e-06
3.02656e-09
4.98449e-06
-3.01441e-09
4.98893e-06
-6.2586e-09
4.99239e-06
-5.36728e-09
-5.01239e-09
4.99978e-06
3.7949e-10
4.99916e-06
1.24187e-09
4.99796e-06
2.42866e-09
4.99617e-06
4.27254e-09
4.99409e-06
7.34584e-09
4.9938e-06
1.09341e-08
4.99948e-06
1.73479e-08
5.01714e-06
2.48832e-08
5.0557e-06
3.58627e-08
5.06718e-06
4.63229e-08
5.04951e-06
-6.30416e-09
4.99617e-06
-4.90568e-08
4.9889e-06
-5.52543e-08
4.99576e-06
-2.8051e-08
5.00019e-06
-4.8707e-09
5.0024e-06
8.04646e-10
5.00171e-06
-2.33698e-09
5.00094e-06
-5.4904e-09
5.00173e-06
-6.15293e-09
-5.9884e-09
4.99987e-06
5.21957e-10
4.99957e-06
1.56386e-09
4.99915e-06
2.85322e-09
4.99889e-06
4.5371e-09
4.99934e-06
6.8944e-09
5.00032e-06
9.95208e-09
5.00353e-06
1.41521e-08
5.00966e-06
1.87499e-08
5.02466e-06
2.08612e-08
5.05565e-06
1.53675e-08
5.04987e-06
-1.63367e-09
5.02289e-06
-2.21384e-08
4.99794e-06
-3.02868e-08
4.99323e-06
-2.3347e-08
4.99872e-06
-1.03625e-08
5.00352e-06
-4.00424e-09
5.00379e-06
-2.61136e-09
5.0024e-06
-4.10064e-09
5.00221e-06
-5.96414e-09
-6.57875e-09
4.99999e-06
5.47933e-10
4.99995e-06
1.61386e-09
5.00004e-06
2.7675e-09
5.00036e-06
4.22297e-09
5.00119e-06
6.06687e-09
5.00285e-06
8.29452e-09
5.00674e-06
1.02671e-08
5.01384e-06
1.16445e-08
5.02363e-06
1.10658e-08
5.03078e-06
8.2513e-09
5.02844e-06
6.49908e-10
5.01633e-06
-9.9662e-09
5.00357e-06
-1.75258e-08
4.99785e-06
-1.76224e-08
4.99949e-06
-1.20083e-08
5.00168e-06
-6.20309e-09
5.00246e-06
-3.39563e-09
5.00218e-06
-3.82331e-09
5.00124e-06
-5.0339e-09
-6.02599e-09
5.00005e-06
5.10436e-10
5.00021e-06
1.46718e-09
5.00054e-06
2.44035e-09
5.0012e-06
3.57204e-09
5.00237e-06
4.89631e-09
5.00445e-06
6.22043e-09
5.00747e-06
7.24322e-09
5.01145e-06
7.66258e-09
5.01519e-06
7.31977e-09
5.01859e-06
4.849e-09
5.01963e-06
-3.70432e-10
5.0153e-06
-5.6294e-09
5.00861e-06
-1.08309e-08
5.00318e-06
-1.21918e-08
5.00095e-06
-9.77879e-09
5.00107e-06
-6.33411e-09
5.00161e-06
-3.93707e-09
5.00136e-06
-3.5862e-09
5.0004e-06
-4.07603e-09
-5.02797e-09
5.00009e-06
4.29604e-10
5.00035e-06
1.21861e-09
5.00083e-06
1.96906e-09
5.0016e-06
2.79956e-09
5.00279e-06
3.71326e-09
5.00446e-06
4.55711e-09
5.00662e-06
5.0896e-09
5.00915e-06
5.12179e-09
5.01209e-06
4.38214e-09
5.01446e-06
2.47225e-09
5.0142e-06
-9.99901e-11
5.01215e-06
-3.57628e-09
5.00782e-06
-6.50771e-09
5.00356e-06
-7.9276e-09
5.00099e-06
-7.21424e-09
5.00018e-06
-5.53996e-09
5.00016e-06
-3.92022e-09
4.99993e-06
-3.36201e-09
4.99922e-06
-3.36883e-09
-4.21873e-09
5.00011e-06
3.25499e-10
5.00043e-06
9.18728e-10
5.00094e-06
1.46386e-09
5.00171e-06
2.03785e-09
5.00277e-06
2.64701e-09
5.00417e-06
3.16281e-09
5.00585e-06
3.41616e-09
5.00769e-06
3.28314e-09
5.00938e-06
2.69363e-09
5.01031e-06
1.53948e-09
5.01049e-06
-2.80826e-10
5.0091e-06
-2.18532e-09
5.00657e-06
-3.9847e-09
5.00373e-06
-5.09501e-09
5.00159e-06
-5.08479e-09
5.00039e-06
-4.34793e-09
4.99975e-06
-3.2882e-09
4.99922e-06
-2.83248e-09
4.9985e-06
-2.64449e-09
-3.25183e-09
5.00012e-06
2.14687e-10
5.00044e-06
6.0699e-10
5.00096e-06
9.6021e-10
5.00169e-06
1.31741e-09
5.00264e-06
1.68645e-09
5.00382e-06
1.98174e-09
5.00515e-06
2.09092e-09
5.00651e-06
1.93888e-09
5.00769e-06
1.51586e-09
5.00843e-06
8.07747e-10
5.00826e-06
-1.06143e-10
5.0074e-06
-1.32203e-09
5.00577e-06
-2.36019e-09
5.00374e-06
-3.07743e-09
5.00184e-06
-3.1867e-09
5.00037e-06
-2.89008e-09
4.99936e-06
-2.28065e-09
4.99858e-06
-2.04946e-09
4.99778e-06
-1.84111e-09
-2.3013e-09
5.0001e-06
1.22881e-10
5.00041e-06
3.11675e-10
5.0009e-06
4.81304e-10
5.00157e-06
6.52388e-10
5.00244e-06
8.26475e-10
5.00346e-06
9.62471e-10
5.00454e-06
1.007e-09
5.00556e-06
9.26458e-10
5.00637e-06
7.15827e-10
5.00683e-06
3.52371e-10
5.00686e-06
-1.31046e-10
5.00615e-06
-6.06852e-10
5.00486e-06
-1.07913e-09
5.00321e-06
-1.43108e-09
5.00152e-06
-1.50736e-09
5.00006e-06
-1.43264e-09
4.99894e-06
-1.16312e-09
4.99799e-06
-1.10905e-09
4.99712e-06
-9.76432e-10
-1.43501e-09
5.00014e-06
5.00045e-06
5.00094e-06
5.0016e-06
5.00244e-06
5.00341e-06
5.00442e-06
5.00535e-06
5.00607e-06
5.00643e-06
5.0063e-06
5.00569e-06
5.0046e-06
5.00316e-06
5.00165e-06
5.00021e-06
4.99903e-06
4.99791e-06
4.99692e-06
)
;

boundaryField
{
    sides
    {
        type            calculated;
        value           uniform 0;
    }
    inlet
    {
        type            calculated;
        value           nonuniform List<scalar> 
20
(
-5e-06
-5e-06
-5e-06
-5e-06
-5e-06
-5e-06
-5e-06
-5e-06
-5e-06
-5e-06
-5e-06
-5e-06
-5e-06
-5e-06
-5e-06
-5e-06
-5e-06
-5e-06
-5e-06
-5e-06
)
;
    }
    outlet
    {
        type            calculated;
        value           nonuniform List<scalar> 
20
(
5.00194e-06
5.00144e-06
5.00156e-06
5.00148e-06
5.00176e-06
5.00205e-06
5.00283e-06
5.00426e-06
5.00348e-06
4.99519e-06
4.9948e-06
5.00271e-06
5.0028e-06
5.00069e-06
4.9994e-06
4.99841e-06
4.99754e-06
4.99683e-06
4.99625e-06
4.99547e-06
)
;
    }
    frontAndBack
    {
        type            empty;
        value           nonuniform List<scalar> 0();
    }
}


// ************************************************************************* //
