/*--------------------------------*- C++ -*----------------------------------*\
  =========                 |
  \\      /  F ield         | OpenFOAM: The Open Source CFD Toolbox
   \\    /   O peration     | Website:  https://openfoam.org
    \\  /    A nd           | Version:  9
     \\/     M anipulation  |
\*---------------------------------------------------------------------------*/
FoamFile
{
    format      ascii;
    class       surfaceScalarField;
    location    "46";
    object      phi_0;
}
// * * * * * * * * * * * * * * * * * * * * * * * * * * * * * * * * * * * * * //

dimensions      [0 4 -1 0 0 0 0];

internalField   nonuniform List<scalar> 
760
(
5.00012e-06
-9.67399e-11
5.00044e-06
-3.01773e-10
5.00094e-06
-4.88096e-10
5.00163e-06
-6.78111e-10
5.00251e-06
-8.69378e-10
5.00354e-06
-1.01597e-09
5.00461e-06
-1.06097e-09
5.00562e-06
-9.9059e-10
5.00644e-06
-8.01868e-10
5.00697e-06
-5.10012e-10
5.00712e-06
-1.33023e-10
5.00674e-06
3.82477e-10
5.00589e-06
8.55261e-10
5.00476e-06
1.12117e-09
5.00356e-06
1.191e-09
5.0026e-06
9.56859e-10
5.0019e-06
6.97974e-10
5.00166e-06
2.31504e-10
5.00154e-06
1.23471e-10
-3.83651e-10
5.00015e-06
-2.23e-10
5.00049e-06
-6.25651e-10
5.00101e-06
-9.98893e-10
5.00174e-06
-1.39229e-09
5.00267e-06
-1.79593e-09
5.00379e-06
-2.11485e-09
5.00499e-06
-2.2483e-09
5.00616e-06
-2.15068e-09
5.00717e-06
-1.80152e-09
5.00782e-06
-1.1478e-09
5.00781e-06
-1.19047e-10
5.00734e-06
8.54254e-10
5.00635e-06
1.84061e-09
5.00502e-06
2.44261e-09
5.00373e-06
2.47471e-09
5.00281e-06
1.86402e-09
5.00228e-06
1.21543e-09
5.00195e-06
5.57753e-10
5.00169e-06
3.86376e-10
-1.30384e-10
5.00013e-06
-3.37165e-10
5.00046e-06
-9.43141e-10
5.00099e-06
-1.51389e-09
5.00174e-06
-2.13533e-09
5.00275e-06
-2.78735e-09
5.00399e-06
-3.33993e-09
5.00538e-06
-3.62703e-09
5.00678e-06
-3.54812e-09
5.00798e-06
-2.99882e-09
5.00877e-06
-1.94534e-09
5.009e-06
-3.40614e-10
5.00834e-06
1.51908e-09
5.00696e-06
3.21916e-09
5.00523e-06
4.1712e-09
5.00356e-06
4.13167e-09
5.00235e-06
3.05983e-09
5.00171e-06
1.83895e-09
5.00152e-06
7.30029e-10
5.00147e-06
4.31415e-10
-2.03816e-10
5.00012e-06
-4.4298e-10
5.00044e-06
-1.2524e-09
5.00098e-06
-2.0379e-09
5.00178e-06
-2.92324e-09
5.00289e-06
-3.8877e-09
5.00434e-06
-4.77679e-09
5.00607e-06
-5.3631e-09
5.00801e-06
-5.4842e-09
5.00989e-06
-4.88401e-09
5.01113e-06
-3.17598e-09
5.01126e-06
-4.79109e-10
5.01008e-06
2.72536e-09
5.00773e-06
5.56616e-09
5.00522e-06
6.68858e-09
5.00354e-06
5.81534e-09
5.00275e-06
3.83666e-09
5.00252e-06
2.05648e-09
5.00234e-06
8.94398e-10
5.00203e-06
7.36711e-10
3.59118e-10
5.0001e-06
-5.28077e-10
5.00037e-06
-1.51255e-09
5.00087e-06
-2.52712e-09
5.00168e-06
-3.71909e-09
5.00291e-06
-5.10685e-09
5.00463e-06
-6.49845e-09
5.00685e-06
-7.59424e-09
5.00948e-06
-8.10012e-09
5.01244e-06
-7.85206e-09
5.01484e-06
-5.56025e-09
5.0149e-06
-5.14804e-10
5.01292e-06
4.69751e-09
5.00875e-06
9.75583e-09
5.00467e-06
1.0777e-08
5.0023e-06
8.18172e-09
5.00179e-06
4.3397e-09
5.0021e-06
1.74762e-09
5.0023e-06
6.7829e-10
5.00204e-06
9.89934e-10
6.50977e-10
5.00005e-06
-5.69681e-10
5.00022e-06
-1.66967e-09
5.00058e-06
-2.87101e-09
5.00126e-06
-4.39504e-09
5.00247e-06
-6.30917e-09
5.00457e-06
-8.61242e-09
5.00765e-06
-1.06674e-08
5.01173e-06
-1.21747e-08
5.0156e-06
-1.17012e-08
5.01907e-06
-9.06448e-09
5.02028e-06
-1.69018e-09
5.01609e-06
8.89278e-09
5.00957e-06
1.62583e-08
5.00428e-06
1.60702e-08
5.00224e-06
1.02248e-08
5.00256e-06
4.02186e-09
5.00331e-06
9.8678e-10
5.00343e-06
5.60881e-10
5.00283e-06
1.58195e-09
1.44252e-09
4.99999e-06
-5.46688e-10
4.99996e-06
-1.62848e-09
5.00007e-06
-2.97376e-09
5.00042e-06
-4.73751e-09
5.00129e-06
-7.17262e-09
5.00298e-06
-1.03046e-08
5.00685e-06
-1.45443e-08
5.01399e-06
-1.92935e-08
5.02381e-06
-2.15553e-08
5.03103e-06
-1.62195e-08
5.02878e-06
4.35187e-10
5.01681e-06
2.09208e-08
5.00426e-06
2.88198e-08
4.9988e-06
2.15139e-08
5.00064e-06
8.3753e-09
5.00291e-06
1.75168e-09
5.00376e-06
1.2717e-10
5.00369e-06
6.23837e-10
5.00308e-06
2.195e-09
1.69517e-09
4.99988e-06
-4.06863e-10
4.99958e-06
-1.31531e-09
4.99917e-06
-2.56205e-09
4.99892e-06
-4.48449e-09
4.9994e-06
-7.64829e-09
5.00042e-06
-1.13203e-08
5.0037e-06
-1.78255e-08
5.00988e-06
-2.54872e-08
5.02495e-06
-3.66219e-08
5.05623e-06
-4.74664e-08
5.05009e-06
7.07899e-09
5.02322e-06
4.77359e-08
4.99824e-06
5.38222e-08
4.99358e-06
2.61879e-08
4.99954e-06
2.4062e-09
5.00414e-06
-2.85788e-09
5.00495e-06
-6.87864e-10
5.00375e-06
1.81486e-09
5.00354e-06
2.40018e-09
9.73074e-10
4.99978e-06
-1.67017e-10
4.99917e-06
-6.9999e-10
4.99797e-06
-1.34872e-09
4.99618e-06
-2.69268e-09
4.9941e-06
-5.55635e-09
4.99381e-06
-1.10305e-08
4.9995e-06
-2.35345e-08
5.0172e-06
-4.31825e-08
5.05579e-06
-7.52276e-08
5.06689e-06
-5.85917e-08
5.04982e-06
2.36428e-08
4.99658e-06
1.01042e-07
4.98936e-06
6.10182e-08
4.99598e-06
1.95674e-08
5.00027e-06
-1.87742e-09
5.003e-06
-5.5935e-09
5.00257e-06
-2.81743e-10
5.00186e-06
2.50695e-09
5.00258e-06
1.68034e-09
6.61093e-11
4.99987e-06
-1.53725e-11
4.99922e-06
-4.53908e-11
4.99796e-06
-7.46227e-11
4.99538e-06
-1.08926e-10
4.98998e-06
-1.47431e-10
4.97915e-06
-2.04761e-10
4.95588e-06
-2.65878e-10
4.91302e-06
-3.40244e-10
4.83822e-06
-4.1053e-10
4.78005e-06
-4.70165e-10
4.80438e-06
-5.79597e-10
4.90609e-06
-7.17978e-10
4.96783e-06
-7.32349e-10
4.98829e-06
-8.74682e-10
4.98754e-06
-1.12807e-09
4.98333e-06
-1.39781e-09
4.98461e-06
-1.54237e-09
4.98893e-06
-1.82032e-09
4.99251e-06
-1.90198e-09
-2.60568e-09
4.99986e-06
1.37294e-10
4.99922e-06
6.09832e-10
4.99796e-06
1.20482e-09
4.99538e-06
2.47836e-09
4.98996e-06
5.27016e-09
4.97912e-06
1.06336e-08
4.95582e-06
2.30237e-08
4.91296e-06
4.25216e-08
4.83811e-06
7.44205e-08
4.77984e-06
5.78412e-08
4.80433e-06
-2.51001e-08
4.90604e-06
-1.02455e-07
4.96782e-06
-6.24938e-08
4.98813e-06
-2.11905e-08
4.98743e-06
-4.4068e-10
4.983e-06
3.02424e-09
4.98447e-06
-3.01718e-09
4.98891e-06
-6.264e-09
4.99238e-06
-5.37269e-09
-5.01339e-09
4.99978e-06
3.79038e-10
4.99917e-06
1.23245e-09
4.99797e-06
2.41899e-09
4.99618e-06
4.27072e-09
4.9941e-06
7.34675e-09
4.9938e-06
1.09296e-08
4.99949e-06
1.73354e-08
5.01714e-06
2.48685e-08
5.05571e-06
3.58669e-08
5.06719e-06
4.63112e-08
5.04957e-06
-7.85744e-09
4.99615e-06
-4.90827e-08
4.98889e-06
-5.52624e-08
4.99575e-06
-2.80544e-08
5.00017e-06
-4.87061e-09
5.00238e-06
8.08319e-10
5.0017e-06
-2.3347e-09
5.00093e-06
-5.49565e-09
5.00172e-06
-6.16042e-09
-5.98911e-09
4.99987e-06
5.21489e-10
4.99957e-06
1.55085e-09
4.99916e-06
2.83991e-09
4.9989e-06
4.53471e-09
4.99935e-06
6.89673e-09
5.00033e-06
9.94415e-09
5.00353e-06
1.41341e-08
5.00967e-06
1.87311e-08
5.02466e-06
2.08499e-08
5.05564e-06
1.53917e-08
5.04978e-06
-1.69627e-09
5.02288e-06
-2.21306e-08
4.99793e-06
-3.02943e-08
4.99322e-06
-2.33553e-08
4.9987e-06
-1.03627e-08
5.00351e-06
-3.99744e-09
5.00378e-06
-2.60599e-09
5.00239e-06
-4.1072e-09
5.0022e-06
-5.97469e-09
-6.57977e-09
4.99999e-06
5.47353e-10
4.99995e-06
1.59878e-09
5.00005e-06
2.75078e-09
5.00037e-06
4.2193e-09
5.0012e-06
6.07026e-09
5.00286e-06
8.28674e-09
5.00674e-06
1.02437e-08
5.01385e-06
1.16217e-08
5.02364e-06
1.10551e-08
5.03076e-06
8.24431e-09
5.02846e-06
6.73336e-10
5.01632e-06
-9.97248e-09
5.00356e-06
-1.754e-08
4.99784e-06
-1.76325e-08
4.99948e-06
-1.20073e-08
5.00167e-06
-6.19376e-09
5.00245e-06
-3.38989e-09
5.00216e-06
-3.83253e-09
5.00123e-06
-5.0466e-09
-6.02709e-09
5.00005e-06
5.08763e-10
5.00021e-06
1.45168e-09
5.00054e-06
2.42258e-09
5.0012e-06
3.5666e-09
5.00238e-06
4.8999e-09
5.00446e-06
6.21525e-09
5.00748e-06
7.22067e-09
5.01146e-06
7.63758e-09
5.0152e-06
7.30473e-09
5.01859e-06
4.84722e-09
5.01963e-06
-3.71489e-10
5.01529e-06
-5.64063e-09
5.0086e-06
-1.085e-08
5.00317e-06
-1.2205e-08
5.00094e-06
-9.77843e-09
5.00106e-06
-6.32597e-09
5.00159e-06
-3.93364e-09
5.00135e-06
-3.59724e-09
5.00039e-06
-4.08881e-09
-5.02849e-09
5.00009e-06
4.26019e-10
5.00035e-06
1.20387e-09
5.00083e-06
1.95333e-09
5.00161e-06
2.7945e-09
5.0028e-06
3.71571e-09
5.00447e-06
4.55331e-09
5.00662e-06
5.07188e-09
5.00916e-06
5.09849e-09
5.01209e-06
4.36994e-09
5.01446e-06
2.4682e-09
5.0142e-06
-1.05218e-10
5.01214e-06
-3.59037e-09
5.00782e-06
-6.52832e-09
5.00355e-06
-7.94123e-09
5.00098e-06
-7.21674e-09
5.00018e-06
-5.53453e-09
5.00015e-06
-3.91789e-09
4.99992e-06
-3.37237e-09
4.99921e-06
-3.3801e-09
-4.21859e-09
5.00011e-06
3.20475e-10
5.00042e-06
9.05047e-10
5.00094e-06
1.45182e-09
5.00171e-06
2.03583e-09
5.00278e-06
2.64951e-09
5.00417e-06
3.15808e-09
5.00585e-06
3.40111e-09
5.00769e-06
3.26541e-09
5.00938e-06
2.68342e-09
5.01031e-06
1.53787e-09
5.01049e-06
-2.8339e-10
5.0091e-06
-2.19694e-09
5.00657e-06
-4.00115e-09
5.00373e-06
-5.10754e-09
5.00158e-06
-5.08716e-09
5.00038e-06
-4.3417e-09
4.99974e-06
-3.28452e-09
4.99921e-06
-2.84151e-09
4.99849e-06
-2.65491e-09
-3.25208e-09
5.00012e-06
2.09992e-10
5.00044e-06
5.95604e-10
5.00096e-06
9.5194e-10
5.00169e-06
1.31846e-09
5.00265e-06
1.69015e-09
5.00383e-06
1.97701e-09
5.00516e-06
2.07721e-09
5.00651e-06
1.92449e-09
5.00769e-06
1.50804e-09
5.00843e-06
8.07079e-10
5.00826e-06
-1.07926e-10
5.0074e-06
-1.3292e-09
5.00577e-06
-2.37061e-09
5.00374e-06
-3.08362e-09
5.00183e-06
-3.18488e-09
5.00037e-06
-2.8823e-09
4.99936e-06
-2.27611e-09
4.99857e-06
-2.05675e-09
4.99776e-06
-1.85057e-09
-2.30249e-09
5.00011e-06
1.20066e-10
5.00041e-06
3.04833e-10
5.00089e-06
4.76759e-10
5.00157e-06
6.5419e-10
5.00244e-06
8.29909e-10
5.00347e-06
9.59976e-10
5.00455e-06
9.9816e-10
5.00557e-06
9.17003e-10
5.00637e-06
7.10451e-10
5.00684e-06
3.50614e-10
5.00687e-06
-1.32168e-10
5.00615e-06
-6.10296e-10
5.00486e-06
-1.08369e-09
5.0032e-06
-1.43314e-09
5.00152e-06
-1.50549e-09
5.00006e-06
-1.42781e-09
4.99893e-06
-1.16029e-09
4.99798e-06
-1.11329e-09
4.9971e-06
-9.8259e-10
-1.43645e-09
5.00014e-06
5.00046e-06
5.00094e-06
5.0016e-06
5.00245e-06
5.00342e-06
5.00443e-06
5.00535e-06
5.00607e-06
5.00643e-06
5.0063e-06
5.00569e-06
5.0046e-06
5.00316e-06
5.00164e-06
5.0002e-06
4.99903e-06
4.9979e-06
4.9969e-06
)
;

boundaryField
{
    sides
    {
        type            calculated;
        value           uniform 0;
    }
    inlet
    {
        type            calculated;
        value           nonuniform List<scalar> 
20
(
-5e-06
-5e-06
-5e-06
-5e-06
-5e-06
-5e-06
-5e-06
-5e-06
-5e-06
-5e-06
-5e-06
-5e-06
-5e-06
-5e-06
-5e-06
-5e-06
-5e-06
-5e-06
-5e-06
-5e-06
)
;
    }
    outlet
    {
        type            calculated;
        value           nonuniform List<scalar> 
20
(
5.00192e-06
5.00143e-06
5.00155e-06
5.00146e-06
5.00175e-06
5.00204e-06
5.00282e-06
5.00426e-06
5.00348e-06
4.99518e-06
4.99479e-06
5.0027e-06
5.00279e-06
5.00067e-06
4.99939e-06
4.9984e-06
4.99752e-06
4.99681e-06
4.99623e-06
4.99545e-06
)
;
    }
    frontAndBack
    {
        type            empty;
        value           nonuniform List<scalar> 0();
    }
}


// ************************************************************************* //
