# vtk DataFile Version 2.0
track0
ASCII
DATASET POLYDATA
POINTS 1720 float
-1.001 -0.05 0.0011
-1.0008 -0.05 0.0011
-1.0006 -0.05 0.0011
-1.0004 -0.05 0.0011
-1.0002 -0.05 0.0011
-1 -0.05 0.0011
-0.8 -0.05 0.0011
-0.6 -0.05 0.0011
-0.4 -0.05 0.0011
-0.2 -0.05 0.0011
0 -0.05 0.0011
0.2 -0.05 0.0011
0.4 -0.05 0.0011
0.6 -0.05 0.0011
0.8 -0.05 0.0011
1 -0.05 0.0011
1.2 -0.05 0.0011
1.4 -0.05 0.0011
1.6 -0.05 0.0011
1.8 -0.05 0.0011
2 -0.05 0.0011
2.2 -0.05 0.0011
2.4 -0.05 0.0011
2.6 -0.05 0.0011
2.8 -0.05 0.0011
3 -0.05 0.0011
3.2 -0.05 0.0011
3.4 -0.05 0.0011
3.6 -0.05 0.0011
3.8 -0.05 0.0011
4 -0.05 0.0011
4.2 -0.05 0.0011
4.4 -0.05 0.0011
4.6 -0.05 0.0011
4.8 -0.05 0.0011
5 -0.05 0.0011
5.2 -0.05 0.0011
5.4 -0.05 0.0011
5.6 -0.05 0.0011
5.8 -0.05 0.0011
6 -0.05 0.0011
6.2 -0.05 0.0011
6.4 -0.05 0.0011
6.6 -0.05 0.0011
6.8 -0.05 0.0011
7 -0.05 0.0011
7.2 -0.05 0.0011
7.4 -0.05 0.0011
7.6 -0.05 0.0011
7.8 -0.05 0.0011
8 -0.05 0.0011
8.2 -0.05 0.0011
8.4 -0.05 0.0011
8.6 -0.05 0.0011
8.8 -0.05 0.0011
9 -0.05 0.0011
9.2 -0.05 0.0011
9.4 -0.05 0.0011
9.6 -0.05 0.0011
9.8 -0.05 0.0011
10 -0.05 0.0011
10.2 -0.05 0.0011
10.4 -0.05 0.0011
10.6 -0.05 0.0011
10.8 -0.05 0.0011
11 -0.05 0.0011
11.2 -0.05 0.0011
11.4 -0.05 0.0011
11.6 -0.05 0.0011
11.8 -0.05 0.0011
12 -0.05 0.0011
12.2 -0.05 0.0011
12.4 -0.05 0.0011
12.6 -0.05 0.0011
12.8 -0.05 0.0011
13 -0.05 0.0011
13.2 -0.05 0.0011
13.4 -0.05 0.0011
13.6 -0.05 0.0011
13.8 -0.05 0.0011
14 -0.05 0.0011
14.2 -0.05 0.0011
14.4 -0.05 0.0011
14.6 -0.05 0.0011
14.8 -0.05 0.0011
15 -0.05 0.0011
-1.001 -0.05 0.0537316
-1.0008 -0.05 0.0537316
-1.0006 -0.05 0.0537316
-1.0004 -0.05 0.0537316
-1.0002 -0.05 0.0537316
-1 -0.05 0.0537316
-0.8 -0.05 0.0537316
-0.6 -0.05 0.0537316
-0.4 -0.05 0.0537316
-0.2 -0.05 0.0537316
0 -0.05 0.0537316
0.2 -0.05 0.0537316
0.4 -0.05 0.0537316
0.6 -0.05 0.0537316
0.8 -0.05 0.0537316
1 -0.05 0.0537316
1.2 -0.05 0.0537316
1.4 -0.05 0.0537316
1.6 -0.05 0.0537316
1.8 -0.05 0.0537316
2 -0.05 0.0537316
2.2 -0.05 0.0537316
2.4 -0.05 0.0537316
2.6 -0.05 0.0537316
2.8 -0.05 0.0537316
3 -0.05 0.0537316
3.2 -0.05 0.0537316
3.4 -0.05 0.0537316
3.6 -0.05 0.0537316
3.8 -0.05 0.0537316
4 -0.05 0.0537316
4.2 -0.05 0.0537316
4.4 -0.05 0.0537316
4.6 -0.05 0.0537316
4.8 -0.05 0.0537316
5 -0.05 0.0537316
5.2 -0.05 0.0537316
5.4 -0.05 0.0537316
5.6 -0.05 0.0537316
5.8 -0.05 0.0537316
6 -0.05 0.0537316
6.2 -0.05 0.0537316
6.4 -0.05 0.0537316
6.6 -0.05 0.0537316
6.8 -0.05 0.0537316
7 -0.05 0.0537316
7.2 -0.05 0.0537316
7.4 -0.05 0.0537316
7.6 -0.05 0.0537316
7.8 -0.05 0.0537316
8 -0.05 0.0537316
8.2 -0.05 0.0537316
8.4 -0.05 0.0537316
8.6 -0.05 0.0537316
8.8 -0.05 0.0537316
9 -0.05 0.0537316
9.2 -0.05 0.0537316
9.4 -0.05 0.0537316
9.6 -0.05 0.0537316
9.8 -0.05 0.0537316
10 -0.05 0.0537316
10.2 -0.05 0.0537316
10.4 -0.05 0.0537316
10.6 -0.05 0.0537316
10.8 -0.05 0.0537316
11 -0.05 0.0537316
11.2 -0.05 0.0537316
11.4 -0.05 0.0537316
11.6 -0.05 0.0537316
11.8 -0.05 0.0537316
12 -0.05 0.0537316
12.2 -0.05 0.0537316
12.4 -0.05 0.0537316
12.6 -0.05 0.0537316
12.8 -0.05 0.0537316
13 -0.05 0.0537316
13.2 -0.05 0.0537316
13.4 -0.05 0.0537316
13.6 -0.05 0.0537316
13.8 -0.05 0.0537316
14 -0.05 0.0537316
14.2 -0.05 0.0537316
14.4 -0.05 0.0537316
14.6 -0.05 0.0537316
14.8 -0.05 0.0537316
15 -0.05 0.0537316
-1.001 -0.05 0.106363
-1.0008 -0.05 0.106363
-1.0006 -0.05 0.106363
-1.0004 -0.05 0.106363
-1.0002 -0.05 0.106363
-1 -0.05 0.106363
-0.8 -0.05 0.106363
-0.6 -0.05 0.106363
-0.4 -0.05 0.106363
-0.2 -0.05 0.106363
0 -0.05 0.106363
0.2 -0.05 0.106363
0.4 -0.05 0.106363
0.6 -0.05 0.106363
0.8 -0.05 0.106363
1 -0.05 0.106363
1.2 -0.05 0.106363
1.4 -0.05 0.106363
1.6 -0.05 0.106363
1.8 -0.05 0.106363
2 -0.05 0.106363
2.2 -0.05 0.106363
2.4 -0.05 0.106363
2.6 -0.05 0.106363
2.8 -0.05 0.106363
3 -0.05 0.106363
3.2 -0.05 0.106363
3.4 -0.05 0.106363
3.6 -0.05 0.106363
3.8 -0.05 0.106363
4 -0.05 0.106363
4.2 -0.05 0.106363
4.4 -0.05 0.106363
4.6 -0.05 0.106363
4.8 -0.05 0.106363
5 -0.05 0.106363
5.2 -0.05 0.106363
5.4 -0.05 0.106363
5.6 -0.05 0.106363
5.8 -0.05 0.106363
6 -0.05 0.106363
6.2 -0.05 0.106363
6.4 -0.05 0.106363
6.6 -0.05 0.106363
6.8 -0.05 0.106363
7 -0.05 0.106363
7.2 -0.05 0.106363
7.4 -0.05 0.106363
7.6 -0.05 0.106363
7.8 -0.05 0.106363
8 -0.05 0.106363
8.2 -0.05 0.106363
8.4 -0.05 0.106363
8.6 -0.05 0.106363
8.8 -0.05 0.106363
9 -0.05 0.106363
9.2 -0.05 0.106363
9.4 -0.05 0.106363
9.6 -0.05 0.106363
9.8 -0.05 0.106363
10 -0.05 0.106363
10.2 -0.05 0.106363
10.4 -0.05 0.106363
10.6 -0.05 0.106363
10.8 -0.05 0.106363
11 -0.05 0.106363
11.2 -0.05 0.106363
11.4 -0.05 0.106363
11.6 -0.05 0.106363
11.8 -0.05 0.106363
12 -0.05 0.106363
12.2 -0.05 0.106363
12.4 -0.05 0.106363
12.6 -0.05 0.106363
12.8 -0.05 0.106363
13 -0.05 0.106363
13.2 -0.05 0.106363
13.4 -0.05 0.106363
13.6 -0.05 0.106363
13.8 -0.05 0.106363
14 -0.05 0.106363
14.2 -0.05 0.106363
14.4 -0.05 0.106363
14.6 -0.05 0.106363
14.8 -0.05 0.106363
15 -0.05 0.106363
-1.001 -0.05 0.158995
-1.0008 -0.05 0.158995
-1.0006 -0.05 0.158995
-1.0004 -0.05 0.158995
-1.0002 -0.05 0.158995
-1 -0.05 0.158995
-0.8 -0.05 0.158995
-0.6 -0.05 0.158995
-0.4 -0.05 0.158995
-0.2 -0.05 0.158995
0 -0.05 0.158995
0.2 -0.05 0.158995
0.4 -0.05 0.158995
0.6 -0.05 0.158995
0.8 -0.05 0.158995
1 -0.05 0.158995
1.2 -0.05 0.158995
1.4 -0.05 0.158995
1.6 -0.05 0.158995
1.8 -0.05 0.158995
2 -0.05 0.158995
2.2 -0.05 0.158995
2.4 -0.05 0.158995
2.6 -0.05 0.158995
2.8 -0.05 0.158995
3 -0.05 0.158995
3.2 -0.05 0.158995
3.4 -0.05 0.158995
3.6 -0.05 0.158995
3.8 -0.05 0.158995
4 -0.05 0.158995
4.2 -0.05 0.158995
4.4 -0.05 0.158995
4.6 -0.05 0.158995
4.8 -0.05 0.158995
5 -0.05 0.158995
5.2 -0.05 0.158995
5.4 -0.05 0.158995
5.6 -0.05 0.158995
5.8 -0.05 0.158995
6 -0.05 0.158995
6.2 -0.05 0.158995
6.4 -0.05 0.158995
6.6 -0.05 0.158995
6.8 -0.05 0.158995
7 -0.05 0.158995
7.2 -0.05 0.158995
7.4 -0.05 0.158995
7.6 -0.05 0.158995
7.8 -0.05 0.158995
8 -0.05 0.158995
8.2 -0.05 0.158995
8.4 -0.05 0.158995
8.6 -0.05 0.158995
8.8 -0.05 0.158995
9 -0.05 0.158995
9.2 -0.05 0.158995
9.4 -0.05 0.158995
9.6 -0.05 0.158995
9.8 -0.05 0.158995
10 -0.05 0.158995
10.2 -0.05 0.158995
10.4 -0.05 0.158995
10.6 -0.05 0.158995
10.8 -0.05 0.158995
11 -0.05 0.158995
11.2 -0.05 0.158995
11.4 -0.05 0.158995
11.6 -0.05 0.158995
11.8 -0.05 0.158995
12 -0.05 0.158995
12.2 -0.05 0.158995
12.4 -0.05 0.158995
12.6 -0.05 0.158995
12.8 -0.05 0.158995
13 -0.05 0.158995
13.2 -0.05 0.158995
13.4 -0.05 0.158995
13.6 -0.05 0.158995
13.8 -0.05 0.158995
14 -0.05 0.158995
14.2 -0.05 0.158995
14.4 -0.05 0.158995
14.6 -0.05 0.158995
14.8 -0.05 0.158995
15 -0.05 0.158995
-1.001 -0.05 0.211626
-1.0008 -0.05 0.211626
-1.0006 -0.05 0.211626
-1.0004 -0.05 0.211626
-1.0002 -0.05 0.211626
-1 -0.05 0.211626
-0.8 -0.05 0.211626
-0.6 -0.05 0.211626
-0.4 -0.05 0.211626
-0.2 -0.05 0.211626
0 -0.05 0.211626
0.2 -0.05 0.211626
0.4 -0.05 0.211626
0.6 -0.05 0.211626
0.8 -0.05 0.211626
1 -0.05 0.211626
1.2 -0.05 0.211626
1.4 -0.05 0.211626
1.6 -0.05 0.211626
1.8 -0.05 0.211626
2 -0.05 0.211626
2.2 -0.05 0.211626
2.4 -0.05 0.211626
2.6 -0.05 0.211626
2.8 -0.05 0.211626
3 -0.05 0.211626
3.2 -0.05 0.211626
3.4 -0.05 0.211626
3.6 -0.05 0.211626
3.8 -0.05 0.211626
4 -0.05 0.211626
4.2 -0.05 0.211626
4.4 -0.05 0.211626
4.6 -0.05 0.211626
4.8 -0.05 0.211626
5 -0.05 0.211626
5.2 -0.05 0.211626
5.4 -0.05 0.211626
5.6 -0.05 0.211626
5.8 -0.05 0.211626
6 -0.05 0.211626
6.2 -0.05 0.211626
6.4 -0.05 0.211626
6.6 -0.05 0.211626
6.8 -0.05 0.211626
7 -0.05 0.211626
7.2 -0.05 0.211626
7.4 -0.05 0.211626
7.6 -0.05 0.211626
7.8 -0.05 0.211626
8 -0.05 0.211626
8.2 -0.05 0.211626
8.4 -0.05 0.211626
8.6 -0.05 0.211626
8.8 -0.05 0.211626
9 -0.05 0.211626
9.2 -0.05 0.211626
9.4 -0.05 0.211626
9.6 -0.05 0.211626
9.8 -0.05 0.211626
10 -0.05 0.211626
10.2 -0.05 0.211626
10.4 -0.05 0.211626
10.6 -0.05 0.211626
10.8 -0.05 0.211626
11 -0.05 0.211626
11.2 -0.05 0.211626
11.4 -0.05 0.211626
11.6 -0.05 0.211626
11.8 -0.05 0.211626
12 -0.05 0.211626
12.2 -0.05 0.211626
12.4 -0.05 0.211626
12.6 -0.05 0.211626
12.8 -0.05 0.211626
13 -0.05 0.211626
13.2 -0.05 0.211626
13.4 -0.05 0.211626
13.6 -0.05 0.211626
13.8 -0.05 0.211626
14 -0.05 0.211626
14.2 -0.05 0.211626
14.4 -0.05 0.211626
14.6 -0.05 0.211626
14.8 -0.05 0.211626
15 -0.05 0.211626
-1.001 -0.05 0.264258
-1.0008 -0.05 0.264258
-1.0006 -0.05 0.264258
-1.0004 -0.05 0.264258
-1.0002 -0.05 0.264258
-1 -0.05 0.264258
-0.8 -0.05 0.264258
-0.6 -0.05 0.264258
-0.4 -0.05 0.264258
-0.2 -0.05 0.264258
0 -0.05 0.264258
0.2 -0.05 0.264258
0.4 -0.05 0.264258
0.6 -0.05 0.264258
0.8 -0.05 0.264258
1 -0.05 0.264258
1.2 -0.05 0.264258
1.4 -0.05 0.264258
1.6 -0.05 0.264258
1.8 -0.05 0.264258
2 -0.05 0.264258
2.2 -0.05 0.264258
2.4 -0.05 0.264258
2.6 -0.05 0.264258
2.8 -0.05 0.264258
3 -0.05 0.264258
3.2 -0.05 0.264258
3.4 -0.05 0.264258
3.6 -0.05 0.264258
3.8 -0.05 0.264258
4 -0.05 0.264258
4.2 -0.05 0.264258
4.4 -0.05 0.264258
4.6 -0.05 0.264258
4.8 -0.05 0.264258
5 -0.05 0.264258
5.2 -0.05 0.264258
5.4 -0.05 0.264258
5.6 -0.05 0.264258
5.8 -0.05 0.264258
6 -0.05 0.264258
6.2 -0.05 0.264258
6.4 -0.05 0.264258
6.6 -0.05 0.264258
6.8 -0.05 0.264258
7 -0.05 0.264258
7.2 -0.05 0.264258
7.4 -0.05 0.264258
7.6 -0.05 0.264258
7.8 -0.05 0.264258
8 -0.05 0.264258
8.2 -0.05 0.264258
8.4 -0.05 0.264258
8.6 -0.05 0.264258
8.8 -0.05 0.264258
9 -0.05 0.264258
9.2 -0.05 0.264258
9.4 -0.05 0.264258
9.6 -0.05 0.264258
9.8 -0.05 0.264258
10 -0.05 0.264258
10.2 -0.05 0.264258
10.4 -0.05 0.264258
10.6 -0.05 0.264258
10.8 -0.05 0.264258
11 -0.05 0.264258
11.2 -0.05 0.264258
11.4 -0.05 0.264258
11.6 -0.05 0.264258
11.8 -0.05 0.264258
12 -0.05 0.264258
12.2 -0.05 0.264258
12.4 -0.05 0.264258
12.6 -0.05 0.264258
12.8 -0.05 0.264258
13 -0.05 0.264258
13.2 -0.05 0.264258
13.4 -0.05 0.264258
13.6 -0.05 0.264258
13.8 -0.05 0.264258
14 -0.05 0.264258
14.2 -0.05 0.264258
14.4 -0.05 0.264258
14.6 -0.05 0.264258
14.8 -0.05 0.264258
15 -0.05 0.264258
-1.001 -0.05 0.316889
-1.0008 -0.05 0.316889
-1.0006 -0.05 0.316889
-1.0004 -0.05 0.316889
[...]
POINT_DATA 1720
 FIELD attributes 1
U 3 1720 float
20 	-1.36961e-18 	-2.58705e-18 20 	-1.25173e-18 	-2.21421e-18 20 	-1.13385e-18 	-1.84137e-18 20 	-1.01597e-18 	-1.46853e-18 20 	-8.98096e-19 	-1.0957e-18 20 	-7.80218e-19 	-7.22856e-19 20 	-1.05616e-18 	-7.46491e-19 20 	-1.05616e-18 	-7.46491e-19 20 	-1.05616e-18 	-7.46491e-19 20 	-1.05616e-18 	-7.46491e-19 20 	-4.13603e-19 	-1.62457e-19 20 	2.25496e-19 	-5.15401e-19 20 	2.25496e-19 	-5.15401e-19 20 	2.25496e-19 	-5.15401e-19 20 	2.25496e-19 	-5.15401e-19 20 	-7.91372e-20 	-7.32487e-19 20 	-6.42978e-19 	-3.38602e-18 20 	-6.42978e-19 	-3.38602e-18 20 	-6.42978e-19 	-3.38602e-18 20 	-6.42978e-19 	-3.38602e-18 20 	-3.86516e-19 	-1.68203e-18 20 	-1.39263e-18 	-5.0906e-18 20 	-1.39263e-18 	-5.0906e-18 20 	-1.39263e-18 	-5.0906e-18 20 	-1.39263e-18 	-5.0906e-18 20 	-5.89902e-19 	-1.74128e-18 20 	-2.53313e-18 	-3.4079e-18 20 	-2.53313e-18 	-3.4079e-18 20 	-2.53313e-18 	-3.4079e-18 20 	-2.53313e-18 	-3.4079e-18 20 	-3.17609e-19 	-1.05263e-18 20 	-2.26535e-18 	-2.18867e-18 20 	-2.26535e-18 	-2.18867e-18 20 	-2.26535e-18 	-2.18867e-18 20 	-2.26535e-18 	-2.18867e-18 20 	-1.48059e-19 	-1.97133e-19 20 	-1.85286e-18 	-2.2618e-19 20 	-1.85286e-18 	-2.2618e-19 20 	-1.85286e-18 	-2.2618e-19 20 	-1.85286e-18 	-2.2618e-19 20 	5.52363e-20 	4.53365e-19 20 	-8.20903e-19 	1.86011e-19 20 	-8.20903e-19 	1.86011e-19 20 	-8.20903e-19 	1.86011e-19 20 	-8.20903e-19 	1.86011e-19 20 	7.93491e-19 	2.18977e-19 20 	3.29223e-18 	-2.69807e-19 20 	3.29223e-18 	-2.69807e-19 20 	3.29223e-18 	-2.69807e-19 20 	3.29223e-18 	-2.69807e-19 20 	1.4521e-18 	-3.30299e-19 20 	4.13992e-18 	-3.9609e-19 20 	4.13992e-18 	-3.9609e-19 20 	4.13992e-18 	-3.9609e-19 20 	4.13992e-18 	-3.9609e-19 20 	1.23401e-18 	-3.89479e-19 20 	1.30721e-18 	-2.2181e-18 20 	1.30721e-18 	-2.2181e-18 20 	1.30721e-18 	-2.2181e-18 20 	1.30721e-18 	-2.2181e-18 20 	5.61451e-19 	1.65224e-19 20 	6.48347e-19 	1.9908e-19 20 	6.48347e-19 	1.9908e-19 20 	6.48347e-19 	1.9908e-19 20 	6.48347e-19 	1.9908e-19 20 	1.86262e-20 	5.26717e-19 20 	-8.82141e-19 	7.78609e-19 20 	-8.82141e-19 	7.78609e-19 20 	-8.82141e-19 	7.78609e-19 20 	-8.82141e-19 	7.78609e-19 20 	-7.89264e-19 	8.42699e-19 20 	-4.00975e-18 	2.58085e-18 20 	-4.00975e-18 	2.58085e-18 20 	-4.00975e-18 	2.58085e-18 20 	-4.00975e-18 	2.58085e-18 20 	-6.88476e-19 	1.42024e-18 20 	1.00217e-18 	3.09633e-18 20 	1.00217e-18 	3.09633e-18 20 	1.00217e-18 	3.09633e-18 20 	1.00217e-18 	3.09633e-18 20 	7.01325e-20 	1.17684e-18 20 	3.45916e-17 	1.69646e-17 20 	6.87771e-17 	3.29388e-17 20 	1.02963e-16 	4.8913e-17 20 	1.37148e-16 	6.48872e-17 20 	1.67315e-16 	8.39075e-17
20 	-3.87006e-17 	-3.71735e-17 20 	-3.85827e-17 	-3.68006e-17 20 	-3.84649e-17 	-3.64278e-17 20 	-3.8347e-17 	-3.6055e-17 20 	-3.82291e-17 	-3.56821e-17 20 	-3.81112e-17 	-3.53093e-17 20 	-4.94104e-17 	-3.44825e-17 20 	-4.94104e-17 	-3.44825e-17 20 	-4.94104e-17 	-3.44825e-17 20 	-4.94104e-17 	-3.44825e-17 20 	-2.02032e-17 	-7.93551e-18 20 	9.98134e-18 	-2.59122e-17 20 	9.98134e-18 	-2.59122e-17 20 	9.98134e-18 	-2.59122e-17 20 	9.98134e-18 	-2.59122e-17 20 	-3.86561e-18 	-3.57797e-17 20 	-3.05375e-17 	-1.59616e-16 20 	-3.05375e-17 	-1.59616e-16 20 	-3.05375e-17 	-1.59616e-16 20 	-3.05375e-17 	-1.59616e-16 20 	-1.88801e-17 	-8.21618e-17 20 	-6.53024e-17 	-2.37298e-16 20 	-6.53024e-17 	-2.37298e-16 20 	-6.53024e-17 	-2.37298e-16 20 	-6.53024e-17 	-2.37298e-16 20 	-2.88149e-17 	-8.50561e-17 20 	-1.1622e-16 	-1.58476e-16 20 	-1.1622e-16 	-1.58476e-16 20 	-1.1622e-16 	-1.58476e-16 20 	-1.1622e-16 	-1.58476e-16 20 	-1.55142e-17 	-5.14175e-17 20 	-1.03473e-16 	-1.00154e-16 20 	-1.03473e-16 	-1.00154e-16 20 	-1.03473e-16 	-1.00154e-16 20 	-1.03473e-16 	-1.00154e-16 20 	-7.23222e-18 	-9.62932e-18 20 	-8.40334e-17 	-8.74293e-18 20 	-8.40334e-17 	-8.74293e-18 20 	-8.40334e-17 	-8.74293e-18 20 	-8.40334e-17 	-8.74293e-18 20 	2.69812e-18 	2.21455e-17 20 	-3.4622e-17 	9.19788e-18 20 	-3.4622e-17 	9.19788e-18 20 	-3.4622e-17 	9.19788e-18 20 	-3.4622e-17 	9.19788e-18 20 	3.87596e-17 	1.06964e-17 20 	1.54573e-16 	-1.33844e-17 20 	1.54573e-16 	-1.33844e-17 20 	1.54573e-16 	-1.33844e-17 20 	1.54573e-16 	-1.33844e-17 20 	7.09303e-17 	-1.61341e-17 20 	1.92364e-16 	-1.93253e-17 20 	1.92364e-16 	-1.93253e-17 20 	1.92364e-16 	-1.93253e-17 20 	1.92364e-16 	-1.93253e-17 20 	6.02776e-17 	-1.90248e-17 20 	6.13235e-17 	-1.00262e-16 20 	6.13235e-17 	-1.00262e-16 20 	6.13235e-17 	-1.00262e-16 20 	6.13235e-17 	-1.00262e-16 20 	2.74252e-17 	8.07066e-18 20 	2.95335e-17 	1.08359e-17 20 	2.95335e-17 	1.08359e-17 20 	2.95335e-17 	1.08359e-17 20 	2.95335e-17 	1.08359e-17 20 	9.09833e-19 	2.57285e-17 20 	-4.27748e-17 	3.82501e-17 20 	-4.27748e-17 	3.82501e-17 20 	-4.27748e-17 	3.82501e-17 20 	-4.27748e-17 	3.82501e-17 20 	-3.85531e-17 	4.11632e-17 20 	-1.84597e-16 	1.22129e-16 20 	-1.84597e-16 	1.22129e-16 20 	-1.84597e-16 	1.22129e-16 20 	-1.84597e-16 	1.22129e-16 20 	-3.36299e-17 	6.93745e-17 20 	4.57911e-17 	1.44735e-16 20 	4.57911e-17 	1.44735e-16 20 	4.57911e-17 	1.44735e-16 20 	4.57911e-17 	1.44735e-16 20 	3.42575e-18 	5.74851e-17 20 	5.25384e-17 	6.33826e-17 20 	8.67239e-17 	7.93568e-17 20 	1.20909e-16 	9.5331e-17 20 	1.55095e-16 	1.11305e-16 20 	1.65776e-16 	1.17599e-16
20 	-7.60316e-17 	-7.17599e-17 20 	-7.59137e-17 	-7.13871e-17 20 	-7.57959e-17 	-7.10142e-17 20 	-7.5678e-17 	-7.06414e-17 20 	-7.55601e-17 	-7.02685e-17 20 	-7.54422e-17 	-6.98957e-17 20 	-6.92001e-17 	-4.22556e-17 20 	-6.92001e-17 	-4.22556e-17 20 	-6.92001e-17 	-4.22556e-17 20 	-6.92001e-17 	-4.22556e-17 20 	-3.99929e-17 	-1.57086e-17 20 	6.19487e-18 	-6.09594e-17 20 	6.19487e-18 	-6.09594e-17 20 	6.19487e-18 	-6.09594e-17 20 	6.19487e-18 	-6.09594e-17 20 	-7.65208e-18 	-7.08269e-17 20 	-4.90311e-17 	-2.40096e-16 20 	-4.90311e-17 	-2.40096e-16 20 	-4.90311e-17 	-2.40096e-16 20 	-4.90311e-17 	-2.40096e-16 20 	-3.73737e-17 	-1.62642e-16 20 	-9.35273e-17 	-3.20613e-16 20 	-9.35273e-17 	-3.20613e-16 20 	-9.35273e-17 	-3.20613e-16 20 	-9.35273e-17 	-3.20613e-16 20 	-5.70398e-17 	-1.68371e-16 20 	-1.31416e-16 	-2.0884e-16 20 	-1.31416e-16 	-2.0884e-16 20 	-1.31416e-16 	-2.0884e-16 20 	-1.31416e-16 	-2.0884e-16 20 	-3.07108e-17 	-1.01782e-16 20 	-1.10557e-16 	-1.09586e-16 20 	-1.10557e-16 	-1.09586e-16 20 	-1.10557e-16 	-1.09586e-16 20 	-1.10557e-16 	-1.09586e-16 20 	-1.43164e-17 	-1.90615e-17 20 	-8.13905e-17 	1.29492e-17 20 	-8.13905e-17 	1.29492e-17 20 	-8.13905e-17 	1.29492e-17 20 	-8.13905e-17 	1.29492e-17 20 	5.34101e-18 	4.38376e-17 20 	3.34412e-18 	1.96753e-17 20 	3.34412e-18 	1.96753e-17 20 	3.34412e-18 	1.96753e-17 20 	3.34412e-18 	1.96753e-17 20 	7.67257e-17 	2.11738e-17 20 	2.24051e-16 	-2.91882e-17 20 	2.24051e-16 	-2.91882e-17 20 	2.24051e-16 	-2.91882e-17 20 	2.24051e-16 	-2.91882e-17 20 	1.40409e-16 	-3.19378e-17 20 	2.51408e-16 	-3.79607e-17 20 	2.51408e-16 	-3.79607e-17 20 	2.51408e-16 	-3.79607e-17 20 	2.51408e-16 	-3.79607e-17 20 	1.19321e-16 	-3.76602e-17 20 	8.81872e-17 	-9.23568e-17 20 	8.81872e-17 	-9.23568e-17 20 	8.81872e-17 	-9.23568e-17 20 	8.81872e-17 	-9.23568e-17 20 	5.42888e-17 	1.59761e-17 20 	3.04247e-17 	3.60377e-17 20 	3.04247e-17 	3.60377e-17 20 	3.04247e-17 	3.60377e-17 20 	3.04247e-17 	3.60377e-17 20 	1.80104e-18 	5.09302e-17 20 	-8.05386e-17 	7.85706e-17 20 	-8.05386e-17 	7.85706e-17 20 	-8.05386e-17 	7.85706e-17 20 	-8.05386e-17 	7.85706e-17 20 	-7.6317e-17 	8.14837e-17 20 	-2.17538e-16 	1.90084e-16 20 	-2.17538e-16 	1.90084e-16 20 	-2.17538e-16 	1.90084e-16 20 	-2.17538e-16 	1.90084e-16 20 	-6.65714e-17 	1.37329e-16 20 	4.91467e-17 	2.01043e-16 20 	4.91467e-17 	2.01043e-16 20 	4.91467e-17 	2.01043e-16 20 	4.91467e-17 	2.01043e-16 20 	6.78138e-18 	1.13793e-16 20 	5.09996e-17 	9.70741e-17 20 	8.5185e-17 	1.13048e-16 20 	1.1937e-16 	1.29022e-16 20 	1.53556e-16 	1.44997e-16 20 	1.64237e-16 	1.5129e-16
20 	-1.13363e-16 	-1.06346e-16 20 	-1.13245e-16 	-1.05973e-16 20 	-1.13127e-16 	-1.05601e-16 20 	-1.13009e-16 	-1.05228e-16 20 	-1.12891e-16 	-1.04855e-16 20 	-1.12773e-16 	-1.04482e-16 20 	-8.89897e-17 	-5.00286e-17 20 	-8.89897e-17 	-5.00286e-17 20 	-8.89897e-17 	-5.00286e-17 20 	-8.89897e-17 	-5.00286e-17 20 	-5.97825e-17 	-2.34816e-17 20 	2.4084e-18 	-9.60066e-17 20 	2.4084e-18 	-9.60066e-17 20 	2.4084e-18 	-9.60066e-17 20 	2.4084e-18 	-9.60066e-17 20 	-1.14386e-17 	-1.05874e-16 20 	-6.75247e-17 	-3.20576e-16 20 	-6.75247e-17 	-3.20576e-16 20 	-6.75247e-17 	-3.20576e-16 20 	-6.75247e-17 	-3.20576e-16 20 	-5.58673e-17 	-2.43121e-16 20 	-1.21752e-16 	-4.03928e-16 20 	-1.21752e-16 	-4.03928e-16 20 	-1.21752e-16 	-4.03928e-16 20 	-1.21752e-16 	-4.03928e-16 20 	-8.52648e-17 	-2.51686e-16 20 	-1.46613e-16 	-2.59205e-16 20 	-1.46613e-16 	-2.59205e-16 20 	-1.46613e-16 	-2.59205e-16 20 	-1.46613e-16 	-2.59205e-16 20 	-4.59074e-17 	-1.52147e-16 20 	-1.17641e-16 	-1.19018e-16 20 	-1.17641e-16 	-1.19018e-16 20 	-1.17641e-16 	-1.19018e-16 20 	-1.17641e-16 	-1.19018e-16 20 	-2.14005e-17 	-2.84937e-17 20 	-7.87476e-17 	3.46413e-17 20 	-7.87476e-17 	3.46413e-17 20 	-7.87476e-17 	3.46413e-17 20 	-7.87476e-17 	3.46413e-17 20 	7.9839e-18 	6.55297e-17 20 	4.13102e-17 	3.01527e-17 20 	4.13102e-17 	3.01527e-17 20 	4.13102e-17 	3.01527e-17 20 	4.13102e-17 	3.01527e-17 20 	1.14692e-16 	3.16511e-17 20 	2.93529e-16 	-4.4992e-17 20 	2.93529e-16 	-4.4992e-17 20 	2.93529e-16 	-4.4992e-17 20 	2.93529e-16 	-4.4992e-17 20 	2.09887e-16 	-4.77416e-17 20 	3.10451e-16 	-5.65961e-17 20 	3.10451e-16 	-5.65961e-17 20 	3.10451e-16 	-5.65961e-17 20 	3.10451e-16 	-5.65961e-17 20 	1.78365e-16 	-5.62956e-17 20 	1.15051e-16 	-8.44514e-17 20 	1.15051e-16 	-8.44514e-17 20 	1.15051e-16 	-8.44514e-17 20 	1.15051e-16 	-8.44514e-17 20 	8.11525e-17 	2.38815e-17 20 	3.13159e-17 	6.12394e-17 20 	3.13159e-17 	6.12394e-17 20 	3.13159e-17 	6.12394e-17 20 	3.13159e-17 	6.12394e-17 20 	2.69225e-18 	7.6132e-17 20 	-1.18302e-16 	1.18891e-16 20 	-1.18302e-16 	1.18891e-16 20 	-1.18302e-16 	1.18891e-16 20 	-1.18302e-16 	1.18891e-16 20 	-1.14081e-16 	1.21804e-16 20 	-2.5048e-16 	2.58038e-16 20 	-2.5048e-16 	2.58038e-16 20 	-2.5048e-16 	2.58038e-16 20 	-2.5048e-16 	2.58038e-16 20 	-9.95128e-17 	2.05283e-16 20 	5.25023e-17 	2.57351e-16 20 	5.25023e-17 	2.57351e-16 20 	5.25023e-17 	2.57351e-16 20 	5.25023e-17 	2.57351e-16 20 	1.0137e-17 	1.70102e-16 20 	4.94607e-17 	1.30766e-16 20 	8.36462e-17 	1.4674e-16 20 	1.17832e-16 	1.62714e-16 20 	1.52017e-16 	1.78688e-16 20 	1.62699e-16 	1.84982e-16
20 	-1.50694e-16 	-1.40933e-16 20 	-1.50576e-16 	-1.4056e-16 20 	-1.50458e-16 	-1.40187e-16 20 	-1.5034e-16 	-1.39814e-16 20 	-1.50222e-16 	-1.39441e-16 20 	-1.50104e-16 	-1.39069e-16 20 	-1.12654e-16 	-6.37248e-17 20 	-1.08779e-16 	-5.78017e-17 20 	-1.08779e-16 	-5.78017e-17 20 	-1.08779e-16 	-5.78017e-17 20 	-7.95721e-17 	-3.12547e-17 20 	-4.91317e-18 	-1.25029e-16 20 	-1.37807e-18 	-1.31054e-16 20 	-1.37807e-18 	-1.31054e-16 20 	-1.37807e-18 	-1.31054e-16 20 	-1.5225e-17 	-1.40921e-16 20 	-8.27695e-17 	-3.91019e-16 20 	-8.60183e-17 	-4.01055e-16 20 	-8.60183e-17 	-4.01055e-16 20 	-8.60183e-17 	-4.01055e-16 20 	-7.4361e-17 	-3.23601e-16 20 	-1.47828e-16 	-4.86616e-16 20 	-1.49977e-16 	-4.87242e-16 20 	-1.49977e-16 	-4.87242e-16 20 	-1.49977e-16 	-4.87242e-16 20 	-1.1349e-16 	-3.35001e-16 20 	-1.64688e-16 	-3.16849e-16 20 	-1.6181e-16 	-3.0957e-16 20 	-1.6181e-16 	-3.0957e-16 20 	-1.6181e-16 	-3.0957e-16 20 	-6.1104e-17 	-2.02512e-16 20 	-1.26517e-16 	-1.37492e-16 20 	-1.24725e-16 	-1.2845e-16 20 	-1.24725e-16 	-1.2845e-16 20 	-1.24725e-16 	-1.2845e-16 20 	-2.84847e-17 	-3.79259e-17 20 	-7.82534e-17 	4.94581e-17 20 	-7.61047e-17 	5.63334e-17 20 	-7.61047e-17 	5.63334e-17 20 	-7.61047e-17 	5.63334e-17 20 	1.06268e-17 	8.72218e-17 20 	7.14734e-17 	4.31074e-17 20 	7.92763e-17 	4.063e-17 20 	7.92763e-17 	4.063e-17 20 	7.92763e-17 	4.063e-17 20 	1.52658e-16 	4.21285e-17 20 	3.56047e-16 	-5.49902e-17 20 	3.63008e-16 	-6.07957e-17 20 	3.63008e-16 	-6.07957e-17 20 	3.63008e-16 	-6.07957e-17 20 	2.79365e-16 	-6.35454e-17 20 	3.718e-16 	-7.46059e-17 20 	3.69495e-16 	-7.52314e-17 20 	3.69495e-16 	-7.52314e-17 20 	3.69495e-16 	-7.52314e-17 20 	2.37408e-16 	-7.4931e-17 20 	1.49023e-16 	-8.24088e-17 20 	1.41915e-16 	-7.65459e-17 20 	1.41915e-16 	-7.65459e-17 20 	1.41915e-16 	-7.65459e-17 20 	1.08016e-16 	3.1787e-17 20 	3.79444e-17 	8.26204e-17 20 	3.22071e-17 	8.64412e-17 20 	3.22071e-17 	8.64412e-17 20 	3.22071e-17 	8.64412e-17 20 	3.58345e-18 	1.01334e-16 20 	-1.47527e-16 	1.55872e-16 20 	-1.56066e-16 	1.59212e-16 20 	-1.56066e-16 	1.59212e-16 20 	-1.56066e-16 	1.59212e-16 20 	-1.51845e-16 	1.62125e-16 20 	-2.84486e-16 	3.19888e-16 20 	-2.83421e-16 	3.25992e-16 20 	-2.83421e-16 	3.25992e-16 20 	-2.83421e-16 	3.25992e-16 20 	-1.32454e-16 	2.73237e-16 20 	4.78399e-17 	3.16232e-16 20 	5.5858e-17 	3.13659e-16 20 	5.5858e-17 	3.13659e-16 20 	5.5858e-17 	3.13659e-16 20 	1.34926e-17 	2.2641e-16 20 	4.90031e-17 	1.69453e-16 20 	8.21074e-17 	1.80431e-16 20 	1.16293e-16 	1.96405e-16 20 	1.50478e-16 	2.1238e-16 20 	1.6116e-16 	2.18673e-16
20 	-1.88025e-16 	-1.75519e-16 20 	-1.87907e-16 	-1.75146e-16 20 	-1.87789e-16 	-1.74773e-16 20 	-1.87671e-16 	-1.74401e-16 20 	-1.87553e-16 	-1.74028e-16 20 	-1.87435e-16 	-1.73655e-16 20 	-1.49985e-16 	-9.83112e-17 20 	-1.28569e-16 	-6.55747e-17 20 	-1.28569e-16 	-6.55747e-17 20 	-1.28569e-16 	-6.55747e-17 20 	-9.93618e-17 	-3.90277e-17 20 	-2.47028e-17 	-1.32802e-16 20 	-5.16454e-18 	-1.66101e-16 20 	-5.16454e-18 	-1.66101e-16 20 	-5.16454e-18 	-1.66101e-16 20 	-1.90115e-17 	-1.75969e-16 20 	-8.6556e-17 	-4.26067e-16 20 	-1.04512e-16 	-4.81535e-16 20 	-1.04512e-16 	-4.81535e-16 20 	-1.04512e-16 	-4.81535e-16 20 	-9.28546e-17 	-4.04081e-16 20 	-1.66321e-16 	-5.67096e-16 20 	-1.78202e-16 	-5.70557e-16 20 	-1.78202e-16 	-5.70557e-16 20 	-1.78202e-16 	-5.70557e-16 20 	-1.41715e-16 	-4.18315e-16 20 	-1.92913e-16 	-4.00164e-16 20 	-1.77006e-16 	-3.59935e-16 20 	-1.77006e-16 	-3.59935e-16 20 	-1.77006e-16 	-3.59935e-16 20 	-7.63005e-17 	-2.52877e-16 20 	-1.41714e-16 	-1.87857e-16 20 	-1.31809e-16 	-1.37882e-16 20 	-1.31809e-16 	-1.37882e-16 20 	-1.31809e-16 	-1.37882e-16 20 	-3.55689e-17 	-4.7358e-17 20 	-8.53376e-17 	4.00259e-17 20 	-7.34618e-17 	7.80255e-17 20 	-7.34618e-17 	7.80255e-17 20 	-7.34618e-17 	7.80255e-17 20 	1.32697e-17 	1.08914e-16 20 	7.41163e-17 	6.47995e-17 20 	1.17242e-16 	5.11074e-17 20 	1.17242e-16 	5.11074e-17 20 	1.17242e-16 	5.11074e-17 20 	1.90624e-16 	5.26059e-17 20 	3.94013e-16 	-4.45128e-17 20 	4.32486e-16 	-7.65995e-17 20 	4.32486e-16 	-7.65995e-17 20 	4.32486e-16 	-7.65995e-17 20 	3.48843e-16 	-7.93491e-17 20 	4.41278e-16 	-9.04097e-17 20 	4.28539e-16 	-9.38668e-17 20 	4.28539e-16 	-9.38668e-17 20 	4.28539e-16 	-9.38668e-17 20 	2.96452e-16 	-9.35663e-17 20 	2.08067e-16 	-1.01044e-16 20 	1.68778e-16 	-6.86405e-17 20 	1.68778e-16 	-6.86405e-17 20 	1.68778e-16 	-6.86405e-17 20 	1.3488e-16 	3.96924e-17 20 	6.48081e-17 	9.05258e-17 20 	3.30983e-17 	1.11643e-16 20 	3.30983e-17 	1.11643e-16 20 	3.30983e-17 	1.11643e-16 20 	4.47466e-18 	1.26535e-16 20 	-1.46636e-16 	1.81074e-16 20 	-1.9383e-16 	1.99532e-16 20 	-1.9383e-16 	1.99532e-16 20 	-1.9383e-16 	1.99532e-16 20 	-1.89608e-16 	2.02445e-16 20 	-3.2225e-16 	3.60208e-16 20 	-3.16363e-16 	3.93946e-16 20 	-3.16363e-16 	3.93946e-16 20 	-3.16363e-16 	3.93946e-16 20 	-1.65396e-16 	3.41191e-16 20 	1.48985e-17 	3.84186e-16 20 	5.92136e-17 	3.69968e-16 20 	5.92136e-17 	3.69968e-16 20 	5.92136e-17 	3.69968e-16 20 	1.68482e-17 	2.82718e-16 20 	5.23587e-17 	2.25761e-16 20 	8.05685e-17 	2.14123e-16 20 	1.14754e-16 	2.30097e-16 20 	1.48939e-16 	2.46071e-16 20 	1.59621e-16 	2.52365e-16
20 	-2.25356e-16 	-2.10106e-16 20 	-2.25238e-16 	-2.09733e-16 20 	-2.2512e-16 	-2.0936e-16 20 	-2.25002e-16 	-2.08987e-16 20 	-2.24884e-16 	-2.08614e-16 20 	-2.24766e-16 	-2.08241e-16 20 	-1.87316e-16 	-1.32898e-16 20 	-1.48359e-16 	-7.33478e-17 20 	-1.48359e-16 	-7.33478e-17 20 	-1.48359e-16 	-7.33478e-17 20 	-1.19151e-16 	-4.68008e-17 20 	-4.44924e-17 	-1.40575e-16 20 	-8.95101e-18 	-2.01148e-16 20 	-8.95101e-18 	-2.01148e-16 20 	-8.95101e-18 	-2.01148e-16 20 	-2.2798e-17 	-2.11016e-16 20 	-9.03424e-17 	-4.61114e-16 20 	-1.23006e-16 	-5.62015e-16 20 	-1.23006e-16 	-5.62015e-16 20 	-1.23006e-16 	-5.62015e-16 20 	-1.11348e-16 	-4.84561e-16 20 	-1.84815e-16 	-6.47576e-16 20 	-2.06427e-16 	-6.53872e-16 20 	-2.06427e-16 	-6.53872e-16 20 	-2.06427e-16 	-6.53872e-16 20 	-1.6994e-16 	-5.0163e-16 20 	-2.21138e-16 	-4.83478e-16 20 	-1.92203e-16 	-4.103e-16 20 	-1.92203e-16 	-4.103e-16 20 	-1.92203e-16 	-4.103e-16 20 	-9.14971e-17 	-3.03242e-16 20 	-1.5691e-16 	-2.38222e-16 20 	-1.38893e-16 	-1.47315e-16 20 	-1.38893e-16 	-1.47315e-16 20 	-1.38893e-16 	-1.47315e-16 20 	-4.2653e-17 	-5.67902e-17 20 	-9.24217e-17 	3.05937e-17 20 	-7.08189e-17 	9.97177e-17 20 	-7.08189e-17 	9.97177e-17 20 	-7.08189e-17 	9.97177e-17 20 	1.59126e-17 	1.30606e-16 20 	7.67592e-17 	8.64916e-17 20 	1.55208e-16 	6.15848e-17 20 	1.55208e-16 	6.15848e-17 20 	1.55208e-16 	6.15848e-17 20 	2.2859e-16 	6.30833e-17 20 	4.31979e-16 	-3.40354e-17 20 	5.01964e-16 	-9.24033e-17 20 	5.01964e-16 	-9.24033e-17 20 	5.01964e-16 	-9.24033e-17 20 	4.18322e-16 	-9.51529e-17 20 	5.10756e-16 	-1.06213e-16 20 	4.87582e-16 	-1.12502e-16 20 	4.87582e-16 	-1.12502e-16 20 	4.87582e-16 	-1.12502e-16 20 	3.55495e-16 	-1.12202e-16 20 	2.6711e-16 	-1.1968e-16 20 	1.95642e-16 	-6.07351e-17 20 	1.95642e-16 	-6.07351e-17 20 	1.95642e-16 	-6.07351e-17 20 	1.61744e-16 	4.75978e-17 20 	9.16718e-17 	9.84313e-17 20 	3.39895e-17 	1.36845e-16 20 	3.39895e-17 	1.36845e-16 20 	3.39895e-17 	1.36845e-16 20 	5.36587e-18 	1.51737e-16 20 	-1.45745e-16 	2.06275e-16 20 	-2.31594e-16 	2.39853e-16 20 	-2.31594e-16 	2.39853e-16 20 	-2.31594e-16 	2.39853e-16 20 	-2.27372e-16 	2.42766e-16 20 	-3.60014e-16 	4.00529e-16 20 	-3.49304e-16 	4.619e-16 20 	-3.49304e-16 	4.619e-16 20 	-3.49304e-16 	4.619e-16 20 	-1.98337e-16 	4.09146e-16 20 	-1.8043e-17 	4.52141e-16 20 	6.25692e-17 	4.26276e-16 20 	6.25692e-17 	4.26276e-16 20 	6.25692e-17 	4.26276e-16 20 	2.02039e-17 	3.39027e-16 20 	5.57143e-17 	2.8207e-16 20 	7.90297e-17 	2.47814e-16 20 	1.13215e-16 	2.63788e-16 20 	1.47401e-16 	2.79763e-16 20 	1.58082e-16 	2.86056e-16