/*--------------------------------*- C++ -*----------------------------------*\
  =========                 |
  \\      /  F ield         | OpenFOAM: The Open Source CFD Toolbox
   \\    /   O peration     | Website:  https://openfoam.org
    \\  /    A nd           | Version:  9
     \\/     M anipulation  |
\*---------------------------------------------------------------------------*/
FoamFile
{
    format      ascii;
    class       volVectorField;
    location    "21";
    object      ddtCorrDdt0(hU);
}
// * * * * * * * * * * * * * * * * * * * * * * * * * * * * * * * * * * * * * //

dimensions      [0 2 -2 0 0 0 0];

internalField   nonuniform List<vector> 
400
(
(-7.48421e-08 -4.02794e-08 0)
(-5.08355e-07 -9.94031e-08 0)
(-4.7177e-07 -1.05686e-07 0)
(-3.6694e-07 -5.14349e-08 0)
(-3.13431e-07 2.90352e-08 0)
(-2.43752e-07 6.99489e-08 0)
(-1.49828e-07 7.71831e-08 0)
(-2.12291e-08 6.63973e-08 0)
(1.91982e-07 6.28052e-08 0)
(4.16909e-07 7.27895e-08 0)
(5.69999e-07 1.27703e-07 0)
(5.60429e-07 1.01294e-07 0)
(4.211e-07 7.09407e-08 0)
(3.67332e-07 9.28074e-09 0)
(3.72256e-07 -7.03726e-08 0)
(3.41076e-07 -8.80806e-08 0)
(1.61223e-07 -7.30449e-08 0)
(-2.0356e-07 -6.01529e-08 0)
(-6.08473e-07 -7.97399e-08 0)
(-7.34562e-07 -4.86452e-08 0)
(-6.42179e-08 -1.0305e-07 0)
(-4.49472e-07 -2.24885e-07 0)
(-4.19435e-07 -2.4176e-07 0)
(-3.35354e-07 -1.15501e-07 0)
(-3.03383e-07 8.69499e-08 0)
(-2.34483e-07 2.04049e-07 0)
(-1.36907e-07 2.26883e-07 0)
(-1.3235e-09 2.04389e-07 0)
(2.02911e-07 1.97269e-07 0)
(4.35393e-07 2.14033e-07 0)
(5.07738e-07 2.82701e-07 0)
(4.63384e-07 3.16609e-07 0)
(3.98112e-07 2.29805e-07 0)
(3.33467e-07 1.04589e-08 0)
(3.22272e-07 -2.05954e-07 0)
(2.79794e-07 -2.44782e-07 0)
(1.07481e-07 -1.32712e-07 0)
(-2.16517e-07 -1.59187e-08 0)
(-5.10745e-07 -1.39442e-07 0)
(-6.0098e-07 -1.35695e-07 0)
(-3.56841e-08 -1.35322e-07 0)
(-3.35586e-07 -3.10276e-07 0)
(-3.34643e-07 -3.57082e-07 0)
(-3.02544e-07 -1.77959e-07 0)
(-2.85223e-07 1.3058e-07 0)
(-1.9903e-07 3.19497e-07 0)
(-8.72055e-08 3.45067e-07 0)
(4.84745e-08 3.05797e-07 0)
(2.27341e-07 2.76773e-07 0)
(3.89914e-07 2.92163e-07 0)
(4.72176e-07 3.61393e-07 0)
(4.19666e-07 4.58261e-07 0)
(3.00778e-07 3.40773e-07 0)
(2.2855e-07 -1.08515e-08 0)
(2.43627e-07 -3.13934e-07 0)
(2.46515e-07 -3.75019e-07 0)
(1.35e-07 -2.14312e-07 0)
(-1.61095e-07 -6.99867e-08 0)
(-4.57503e-07 -2.19051e-07 0)
(-5.25051e-07 -1.95386e-07 0)
(-1.13465e-08 -1.45881e-07 0)
(-2.22371e-07 -3.80359e-07 0)
(-2.22414e-07 -4.65255e-07 0)
(-2.17564e-07 -2.54356e-07 0)
(-2.24166e-07 1.35696e-07 0)
(-1.51549e-07 3.81459e-07 0)
(-3.9423e-08 4.05498e-07 0)
(8.98318e-08 3.48579e-07 0)
(2.41433e-07 2.97415e-07 0)
(3.66289e-07 2.83074e-07 0)
(3.77351e-07 4.24117e-07 0)
(3.06621e-07 4.9366e-07 0)
(1.96472e-07 3.46492e-07 0)
(1.30186e-07 -5.63285e-08 0)
(1.17563e-07 -4.01717e-07 0)
(9.45069e-08 -4.69034e-07 0)
(-4.58173e-10 -2.25261e-07 0)
(-1.01299e-07 -4.2064e-08 0)
(-2.09821e-07 -2.70676e-07 0)
(-2.66558e-07 -2.74165e-07 0)
(5.54451e-09 -1.45969e-07 0)
(-8.87567e-08 -3.843e-07 0)
(-8.91857e-08 -5.00623e-07 0)
(-1.35153e-07 -3.05645e-07 0)
(-1.66902e-07 1.07007e-07 0)
(-8.90451e-08 3.81856e-07 0)
(3.23601e-08 4.06341e-07 0)
(1.50416e-07 3.42871e-07 0)
(2.44103e-07 2.61714e-07 0)
(3.27845e-07 2.42105e-07 0)
(2.75867e-07 2.99395e-07 0)
(1.24548e-07 4.42719e-07 0)
(6.57531e-08 2.90619e-07 0)
(1.63834e-08 -1.1057e-07 0)
(4.22294e-09 -4.51783e-07 0)
(4.38848e-08 -5.03398e-07 0)
(3.89887e-08 -2.12849e-07 0)
(-3.87087e-08 1.34683e-08 0)
(-1.15443e-07 -2.40024e-07 0)
(-8.68744e-08 -2.85565e-07 0)
(2.28753e-08 -1.37554e-07 0)
(3.41335e-08 -3.57436e-07 0)
(2.53558e-08 -5.07213e-07 0)
(-6.44111e-08 -3.39902e-07 0)
(-1.06388e-07 6.81407e-08 0)
(-2.26913e-08 3.44403e-07 0)
(1.01911e-07 3.71427e-07 0)
(1.86705e-07 2.86532e-07 0)
(2.70427e-07 1.65426e-07 0)
(1.98123e-07 1.4728e-07 0)
(1.6134e-07 1.94492e-07 0)
(5.48617e-08 3.41595e-07 0)
(-5.99299e-08 2.26772e-07 0)
(-7.03911e-08 -1.7859e-07 0)
(-1.06627e-07 -4.92385e-07 0)
(-1.27797e-07 -4.66952e-07 0)
(-7.75023e-08 -1.66323e-07 0)
(9.81937e-09 2.32952e-08 0)
(1.08486e-07 -2.05292e-07 0)
(1.35864e-07 -2.5251e-07 0)
(3.68408e-08 -1.12489e-07 0)
(1.30692e-07 -2.99408e-07 0)
(1.24176e-07 -4.63404e-07 0)
(7.42119e-09 -3.3047e-07 0)
(-4.10556e-08 3.47911e-08 0)
(5.69682e-08 2.86115e-07 0)
(1.67151e-07 3.06971e-07 0)
(2.2455e-07 2.11909e-07 0)
(2.25142e-07 1.24842e-07 0)
(1.88664e-07 5.29518e-08 0)
(-1.78808e-08 1.90705e-07 0)
(-8.51019e-08 2.06059e-07 0)
(-1.9489e-07 1.30299e-07 0)
(-2.21746e-07 -1.93595e-07 0)
(-1.72022e-07 -4.994e-07 0)
(-1.50115e-07 -4.02607e-07 0)
(-6.87988e-08 -7.1319e-08 0)
(4.95838e-08 1.1897e-07 0)
(2.17561e-07 -1.37166e-07 0)
(2.72385e-07 -2.33549e-07 0)
(4.25721e-08 -7.51603e-08 0)
(1.96978e-07 -2.11012e-07 0)
(2.01546e-07 -3.55159e-07 0)
(6.94575e-08 -2.63956e-07 0)
(2.00589e-08 2.09876e-08 0)
(1.16831e-07 2.18601e-07 0)
(2.29789e-07 2.20826e-07 0)
(2.78099e-07 1.22203e-07 0)
(2.25359e-07 5.32856e-08 0)
(1.2662e-07 1.92086e-08 0)
(-5.49059e-07 2.16728e-08 0)
(-3.12548e-07 1.50716e-07 0)
(-2.53307e-07 7.84051e-08 0)
(-3.12239e-07 -1.33995e-07 0)
(-2.6337e-07 -3.43667e-07 0)
(-1.67483e-07 -3.15759e-07 0)
(-9.19616e-08 -6.7521e-08 0)
(1.28292e-07 8.29697e-08 0)
(3.78385e-07 -1.03401e-07 0)
(3.99908e-07 -1.90438e-07 0)
(4.19472e-08 -3.773e-08 0)
(2.38325e-07 -1.11637e-07 0)
(2.52174e-07 -2.0661e-07 0)
(1.07404e-07 -1.53604e-07 0)
(5.98213e-08 2.64105e-08 0)
(1.60257e-07 1.48755e-07 0)
(2.51715e-07 1.36587e-07 0)
(2.75609e-07 6.26087e-08 0)
(2.25279e-07 1.36808e-08 0)
(1.41208e-08 -2.15205e-08 0)
(2.54583e-07 -3.2299e-08 0)
(-2.63541e-07 9.17402e-08 0)
(-3.73709e-07 3.00574e-08 0)
(-3.66675e-07 -1.08618e-07 0)
(-3.45622e-07 -1.62456e-07 0)
(-2.53176e-07 -1.87047e-07 0)
(-1.29498e-07 -2.39615e-08 0)
(1.61749e-07 8.86332e-08 0)
(4.54404e-07 -8.2246e-08 0)
(5.04293e-07 -1.51594e-07 0)
(4.2092e-08 -7.44728e-09 0)
(2.55116e-07 -1.64345e-08 0)
(2.78321e-07 -4.04832e-08 0)
(1.26693e-07 -1.44572e-08 0)
(7.28501e-08 4.80117e-08 0)
(1.8266e-07 8.40705e-08 0)
(2.99199e-07 7.08003e-08 0)
(3.02664e-07 3.1303e-08 0)
(2.08759e-07 9.8715e-09 0)
(-2.90334e-08 -1.08662e-08 0)
(-1.25134e-07 1.2672e-09 0)
(-4.60326e-07 -4.34627e-08 0)
(-4.49997e-07 1.02636e-09 0)
(-3.36124e-07 -5.6231e-08 0)
(-3.61798e-07 -9.23404e-08 0)
(-3.6263e-07 -4.8968e-08 0)
(-1.64131e-07 3.26927e-08 0)
(1.92229e-07 7.40387e-08 0)
(4.88373e-07 -3.2441e-08 0)
(5.39207e-07 -8.48887e-08 0)
(4.27214e-08 1.88511e-08 0)
(2.51456e-07 7.69534e-08 0)
(2.77442e-07 1.34382e-07 0)
(1.2843e-07 1.3135e-07 0)
(7.20994e-08 7.4436e-08 0)
(1.85707e-07 1.30642e-08 0)
(2.97447e-07 -4.73074e-09 0)
(3.01728e-07 -2.2621e-09 0)
(1.89088e-07 -3.65066e-08 0)
(1.97901e-08 -1.77027e-08 0)
(-2.42021e-07 6.83696e-08 0)
(-4.02248e-07 -1.23044e-08 0)
(-4.1857e-07 5.57824e-09 0)
(-3.98941e-07 6.05101e-08 0)
(-3.50282e-07 1.09507e-07 0)
(-3.08168e-07 1.04114e-07 0)
(-1.4143e-07 4.46626e-08 0)
(1.74841e-07 2.27531e-08 0)
(4.81272e-07 7.32266e-08 0)
(5.55605e-07 1.2127e-08 0)
(4.3417e-08 4.57904e-08 0)
(2.31289e-07 1.62127e-07 0)
(2.46584e-07 2.89195e-07 0)
(1.02217e-07 2.59278e-07 0)
(5.19081e-08 8.85225e-08 0)
(1.63455e-07 -5.01802e-08 0)
(2.65014e-07 -8.09187e-08 0)
(2.87763e-07 -4.50154e-08 0)
(2.13582e-07 -2.74787e-08 0)
(1.29447e-07 3.20381e-09 0)
(-5.92501e-07 -1.30779e-07 0)
(-4.42481e-07 -6.96487e-08 0)
(-3.87813e-07 -4.08579e-08 0)
(-3.5216e-07 1.28971e-07 0)
(-3.55641e-07 2.54704e-07 0)
(-2.81e-07 2.69633e-07 0)
(-1.21559e-07 1.0385e-07 0)
(1.43607e-07 1.99891e-08 0)
(4.51099e-07 1.39005e-07 0)
(5.2011e-07 8.68233e-08 0)
(4.51665e-08 7.65097e-08 0)
(1.88809e-07 2.46778e-07 0)
(1.95785e-07 4.22024e-07 0)
(6.7667e-08 3.58361e-07 0)
(1.72107e-08 8.79134e-08 0)
(1.19761e-07 -1.13931e-07 0)
(2.39177e-07 -1.55555e-07 0)
(2.804e-07 -1.29556e-07 0)
(2.46123e-07 -6.65377e-08 0)
(-2.75771e-08 -4.59417e-08 0)
(2.60465e-07 -1.36321e-07 0)
(-1.24045e-07 -1.39738e-07 0)
(-3.07865e-07 -6.57697e-08 0)
(-3.14901e-07 1.858e-07 0)
(-2.76919e-07 3.76842e-07 0)
(-2.21559e-07 4.29766e-07 0)
(-8.98616e-08 1.83966e-07 0)
(1.24478e-07 2.71632e-08 0)
(3.59426e-07 1.95269e-07 0)
(4.15759e-07 1.47243e-07 0)
(3.95289e-08 1.08287e-07 0)
(1.20087e-07 3.25871e-07 0)
(1.16861e-07 5.19864e-07 0)
(6.80339e-09 4.15473e-07 0)
(-3.91214e-08 6.55978e-08 0)
(5.69618e-08 -1.93808e-07 0)
(1.65401e-07 -2.45802e-07 0)
(2.31426e-07 -2.15932e-07 0)
(2.36128e-07 -1.3938e-07 0)
(1.73847e-07 -1.01131e-07 0)
(6.03949e-08 -1.56064e-08 0)
(-1.70246e-07 -2.11569e-07 0)
(-2.2741e-07 -1.11585e-07 0)
(-2.41554e-07 2.4486e-07 0)
(-2.18028e-07 5.46663e-07 0)
(-1.65059e-07 5.39404e-07 0)
(-8.82206e-08 2.32687e-07 0)
(8.77362e-08 3.39587e-08 0)
(2.59023e-07 2.46577e-07 0)
(2.74454e-07 2.00793e-07 0)
(3.02667e-08 1.38597e-07 0)
(2.42297e-08 3.80821e-07 0)
(1.403e-08 5.67316e-07 0)
(-5.66686e-08 4.21985e-07 0)
(-9.83061e-08 2.57373e-08 0)
(-2.26535e-08 -2.65174e-07 0)
(9.20227e-08 -3.25421e-07 0)
(1.984e-07 -2.6512e-07 0)
(2.64825e-07 -2.05988e-07 0)
(2.74343e-07 -1.68385e-07 0)
(1.0857e-07 -3.00181e-07 0)
(-4.79509e-09 -3.79828e-07 0)
(-8.8809e-08 -2.14817e-07 0)
(-1.38554e-07 2.1192e-07 0)
(-1.35897e-07 5.55541e-07 0)
(-1.06174e-07 5.80789e-07 0)
(-4.13863e-08 2.83218e-07 0)
(3.88582e-08 7.16825e-08 0)
(9.77885e-08 2.77574e-07 0)
(9.05139e-08 2.28537e-07 0)
(1.05429e-08 1.65128e-07 0)
(-9.32737e-08 4.08323e-07 0)
(-1.08963e-07 5.66819e-07 0)
(-1.45454e-07 3.92456e-07 0)
(-1.68043e-07 -2.39114e-08 0)
(-9.53787e-08 -3.10703e-07 0)
(2.1992e-08 -3.71017e-07 0)
(1.39444e-07 -3.18039e-07 0)
(2.56663e-07 -2.6641e-07 0)
(2.87699e-07 -2.84142e-07 0)
(2.74381e-07 -3.6778e-07 0)
(1.75964e-07 -4.62248e-07 0)
(4.22384e-08 -3.16104e-07 0)
(-2.88843e-08 1.21116e-07 0)
(-2.30324e-08 5.07776e-07 0)
(1.07447e-08 5.75417e-07 0)
(1.03585e-08 2.88732e-07 0)
(-4.62655e-08 6.73646e-08 0)
(-7.85737e-08 2.79125e-07 0)
(-1.04301e-07 2.34507e-07 0)
(-1.48937e-08 1.68242e-07 0)
(-2.28417e-07 3.9545e-07 0)
(-2.25111e-07 4.86547e-07 0)
(-2.34663e-07 3.08268e-07 0)
(-2.41116e-07 -6.7424e-08 0)
(-1.62027e-07 -3.18232e-07 0)
(-4.67765e-08 -3.7007e-07 0)
(8.66938e-08 -3.3346e-07 0)
(2.38353e-07 -2.92714e-07 0)
(3.68678e-07 -3.07373e-07 0)
(3.49701e-07 -4.0457e-07 0)
(2.42067e-07 -5.08723e-07 0)
(1.51537e-07 -3.53704e-07 0)
(1.09711e-07 7.37623e-08 0)
(1.06441e-07 4.45729e-07 0)
(8.84174e-08 5.11365e-07 0)
(3.14614e-08 2.55728e-07 0)
(-1.08538e-07 6.64464e-08 0)
(-2.37317e-07 2.58263e-07 0)
(-2.98106e-07 2.13637e-07 0)
(-3.41004e-08 1.45949e-07 0)
(-3.66098e-07 3.35748e-07 0)
(-3.57418e-07 3.89902e-07 0)
(-2.88379e-07 2.11753e-07 0)
(-2.73314e-07 -9.66115e-08 0)
(-2.09737e-07 -2.88728e-07 0)
(-1.0378e-07 -3.13628e-07 0)
(3.38452e-08 -2.80748e-07 0)
(2.1862e-07 -2.58827e-07 0)
(3.78051e-07 -2.76532e-07 0)
(4.63448e-07 -3.85648e-07 0)
(4.14685e-07 -4.5148e-07 0)
(2.95528e-07 -3.1911e-07 0)
(2.16583e-07 2.04619e-08 0)
(1.92161e-07 3.17908e-07 0)
(1.70144e-07 3.95923e-07 0)
(7.35486e-08 2.29714e-07 0)
(-1.69277e-07 8.70628e-08 0)
(-3.87762e-07 2.17746e-07 0)
(-4.71819e-07 1.74556e-07 0)
(-5.69843e-08 9.61088e-08 0)
(-4.53263e-07 2.1287e-07 0)
(-4.54065e-07 2.41175e-07 0)
(-3.73683e-07 1.16469e-07 0)
(-3.12281e-07 -9.0985e-08 0)
(-2.28422e-07 -2.1423e-07 0)
(-1.25091e-07 -2.20068e-07 0)
(6.03241e-09 -2.00159e-07 0)
(2.01226e-07 -1.85307e-07 0)
(4.06139e-07 -1.99076e-07 0)
(4.95391e-07 -2.59488e-07 0)
(4.61076e-07 -3.13024e-07 0)
(3.44569e-07 -2.36972e-07 0)
(2.85445e-07 -1.74574e-08 0)
(2.91934e-07 1.84825e-07 0)
(2.71548e-07 2.48748e-07 0)
(1.2412e-07 1.48272e-07 0)
(-2.14982e-07 5.95525e-08 0)
(-5.12815e-07 1.48956e-07 0)
(-6.13928e-07 1.18268e-07 0)
(-6.25527e-08 3.05988e-08 0)
(-5.19185e-07 6.53914e-08 0)
(-5.06138e-07 6.23113e-08 0)
(-3.9623e-07 2.76848e-08 0)
(-3.33035e-07 -3.77439e-08 0)
(-2.4952e-07 -8.10245e-08 0)
(-1.48555e-07 -8.4109e-08 0)
(-1.60308e-08 -8.12461e-08 0)
(1.91074e-07 -7.78061e-08 0)
(4.04215e-07 -7.689e-08 0)
(5.37247e-07 -1.13633e-07 0)
(5.25283e-07 -1.25952e-07 0)
(4.09296e-07 -8.77084e-08 0)
(3.35123e-07 -1.74065e-09 0)
(3.30977e-07 6.54447e-08 0)
(3.0574e-07 8.14591e-08 0)
(1.40991e-07 4.34231e-08 0)
(-2.34058e-07 1.34654e-08 0)
(-5.74904e-07 5.06074e-08 0)
(-6.95582e-07 4.09412e-08 0)
)
;

boundaryField
{
    sides
    {
        type            calculated;
        value           nonuniform List<vector> 
40
(
(-6.25527e-08 0 0)
(-5.19185e-07 0 0)
(-5.06138e-07 0 0)
(-3.9623e-07 0 0)
(-3.33035e-07 0 0)
(-2.4952e-07 0 0)
(-1.48555e-07 0 0)
(-1.60308e-08 0 0)
(1.91074e-07 0 0)
(4.04215e-07 0 0)
(5.37247e-07 0 0)
(5.25283e-07 0 0)
(4.09296e-07 0 0)
(3.35123e-07 0 0)
(3.30977e-07 0 0)
(3.0574e-07 0 0)
(1.40991e-07 0 0)
(-2.34058e-07 0 0)
(-5.74904e-07 0 0)
(-6.95582e-07 0 0)
(-7.48421e-08 0 0)
(-5.08355e-07 0 0)
(-4.7177e-07 0 0)
(-3.6694e-07 0 0)
(-3.13431e-07 0 0)
(-2.43752e-07 0 0)
(-1.49828e-07 0 0)
(-2.12291e-08 0 0)
(1.91982e-07 0 0)
(4.16909e-07 0 0)
(5.69999e-07 0 0)
(5.60429e-07 0 0)
(4.211e-07 0 0)
(3.67332e-07 0 0)
(3.72256e-07 0 0)
(3.41076e-07 0 0)
(1.61223e-07 0 0)
(-2.0356e-07 0 0)
(-6.08473e-07 0 0)
(-7.34562e-07 0 0)
)
;
    }
    inlet
    {
        type            calculated;
        value           uniform (0 0 0);
    }
    outlet
    {
        type            calculated;
        value           nonuniform List<vector> 
20
(
(-7.34562e-07 -4.86452e-08 0)
(-6.0098e-07 -1.35695e-07 0)
(-5.25051e-07 -1.95386e-07 0)
(-2.66558e-07 -2.74165e-07 0)
(-8.68744e-08 -2.85565e-07 0)
(1.35864e-07 -2.5251e-07 0)
(2.72385e-07 -2.33549e-07 0)
(3.99908e-07 -1.90438e-07 0)
(5.04293e-07 -1.51594e-07 0)
(5.39207e-07 -8.48887e-08 0)
(5.55605e-07 1.2127e-08 0)
(5.2011e-07 8.68233e-08 0)
(4.15759e-07 1.47243e-07 0)
(2.74454e-07 2.00793e-07 0)
(9.05139e-08 2.28537e-07 0)
(-1.04301e-07 2.34507e-07 0)
(-2.98106e-07 2.13637e-07 0)
(-4.71819e-07 1.74556e-07 0)
(-6.13928e-07 1.18268e-07 0)
(-6.95582e-07 4.09412e-08 0)
)
;
    }
    frontAndBack
    {
        type            empty;
    }
}


// ************************************************************************* //
