/*--------------------------------*- C++ -*----------------------------------*\
  =========                 |
  \\      /  F ield         | OpenFOAM: The Open Source CFD Toolbox
   \\    /   O peration     | Website:  https://openfoam.org
    \\  /    A nd           | Version:  9
     \\/     M anipulation  |
\*---------------------------------------------------------------------------*/
FoamFile
{
    format      ascii;
    class       volScalarField;
    location    "21";
    object      h;
}
// * * * * * * * * * * * * * * * * * * * * * * * * * * * * * * * * * * * * * //

dimensions      [0 1 0 0 0 0 0];

internalField   nonuniform List<scalar> 
400
(
0.00999978
0.00999995
0.0100001
0.0100003
0.0100004
0.0100004
0.0100003
0.01
0.00999964
0.00999924
0.0099989
0.00999869
0.00999864
0.00999871
0.00999882
0.00999894
0.00999907
0.00999929
0.00999954
0.00999986
0.00999985
0.00999997
0.0100001
0.0100003
0.0100003
0.0100002
0.0100001
0.00999976
0.00999933
0.00999888
0.00999851
0.00999838
0.00999842
0.00999857
0.00999877
0.00999894
0.00999909
0.00999926
0.00999952
0.00999984
0.01
0.0100001
0.0100002
0.0100002
0.0100002
0.0100001
0.00999985
0.00999946
0.00999895
0.00999845
0.00999811
0.009998
0.00999814
0.00999846
0.00999883
0.00999914
0.00999938
0.00999956
0.00999972
0.00999989
0.0100003
0.0100003
0.0100003
0.0100003
0.0100002
0.00999998
0.00999961
0.00999907
0.00999841
0.00999779
0.0099974
0.00999738
0.00999773
0.00999835
0.00999897
0.00999942
0.00999963
0.0099997
0.00999976
0.00999989
0.0100007
0.0100006
0.0100005
0.0100004
0.0100002
0.00999991
0.00999939
0.00999866
0.0099978
0.00999698
0.00999643
0.0099965
0.00999716
0.00999823
0.0099993
0.01
0.0100003
0.0100002
0.01
0.00999998
0.0100011
0.010001
0.0100008
0.0100007
0.0100004
0.00999998
0.00999928
0.00999828
0.00999713
0.00999606
0.00999544
0.00999547
0.00999648
0.00999811
0.00999962
0.0100005
0.0100006
0.0100003
0.01
0.00999995
0.0100015
0.0100013
0.0100012
0.010001
0.0100007
0.0100003
0.00999947
0.00999816
0.00999633
0.00999436
0.00999307
0.00999365
0.0099961
0.00999921
0.0100013
0.0100017
0.010001
0.0100003
0.00999994
0.00999995
0.0100018
0.0100017
0.0100016
0.0100015
0.0100013
0.0100008
0.01
0.00999862
0.00999641
0.00999314
0.0099891
0.00998925
0.00999389
0.00999996
0.0100034
0.0100033
0.0100016
0.0100002
0.00999979
0.00999995
0.010002
0.0100019
0.0100019
0.010002
0.010002
0.0100019
0.010001
0.00999876
0.00999443
0.00998847
0.00998582
0.0099888
0.00999744
0.0100034
0.0100045
0.0100027
0.0100007
0.00999982
0.0099998
0.01
0.0100021
0.010002
0.0100021
0.0100023
0.0100029
0.010004
0.0100055
0.0100071
0.0100038
0.00897716
0.00895117
0.00997484
0.0100082
0.0100176
0.0100105
0.0100026
0.0099993
0.00999941
0.0100002
0.0100003
0.010002
0.010002
0.010002
0.0100023
0.0100028
0.0100039
0.0100054
0.010007
0.0100037
0.00897714
0.0089511
0.00997482
0.0100082
0.0100176
0.0100105
0.0100026
0.00999931
0.00999939
0.0100001
0.0100003
0.0100018
0.0100017
0.0100017
0.0100017
0.0100018
0.0100017
0.0100008
0.00999854
0.00999422
0.00998826
0.00998538
0.00998858
0.00999729
0.0100033
0.0100044
0.0100026
0.0100006
0.00999979
0.00999982
0.01
0.0100014
0.0100013
0.0100012
0.010001
0.0100009
0.0100005
0.00999967
0.00999829
0.00999609
0.00999284
0.00998905
0.00998902
0.0099936
0.0099997
0.0100031
0.0100031
0.0100015
0.0100001
0.00999977
0.00999994
0.0100009
0.0100008
0.0100006
0.0100004
0.0100002
0.00999974
0.00999896
0.00999767
0.00999584
0.00999386
0.00999264
0.00999319
0.00999569
0.00999887
0.010001
0.0100015
0.0100008
0.0100001
0.00999983
0.00999991
0.0100004
0.0100002
0.0100001
0.00999993
0.0099997
0.00999929
0.00999862
0.00999767
0.00999652
0.00999548
0.00999483
0.00999494
0.00999598
0.00999765
0.00999923
0.0100001
0.0100003
0.0100001
0.00999988
0.00999991
0.00999981
0.00999973
0.00999963
0.00999953
0.00999936
0.00999906
0.00999858
0.00999789
0.00999706
0.00999626
0.00999578
0.00999584
0.00999652
0.00999763
0.00999876
0.00999954
0.00999985
0.00999986
0.00999982
0.0099999
0.00999929
0.00999927
0.00999925
0.00999924
0.00999916
0.00999897
0.00999864
0.00999813
0.00999752
0.00999695
0.00999658
0.00999661
0.00999701
0.00999766
0.00999837
0.00999892
0.00999926
0.00999944
0.00999961
0.00999984
0.00999884
0.00999889
0.00999897
0.00999905
0.00999905
0.00999895
0.00999872
0.00999835
0.00999788
0.00999741
0.00999712
0.00999706
0.00999727
0.00999765
0.00999808
0.00999848
0.00999881
0.00999911
0.00999943
0.00999979
0.00999849
0.00999861
0.00999876
0.00999892
0.00999899
0.00999895
0.0099988
0.00999853
0.00999816
0.00999778
0.00999747
0.00999737
0.00999746
0.00999769
0.00999797
0.00999826
0.00999855
0.00999889
0.0099993
0.00999975
0.00999826
0.00999841
0.0099986
0.0099988
0.00999891
0.00999888
0.00999877
0.00999854
0.0099982
0.00999784
0.00999757
0.00999744
0.00999748
0.00999762
0.00999782
0.00999803
0.0099983
0.00999865
0.00999913
0.00999968
)
;

boundaryField
{
    sides
    {
        type            zeroGradient;
    }
    inlet
    {
        type            zeroGradient;
    }
    outlet
    {
        type            fixedValue;
        value           uniform 0.01;
    }
    frontAndBack
    {
        type            empty;
    }
}


// ************************************************************************* //
