/*--------------------------------*- C++ -*----------------------------------*\
  =========                 |
  \\      /  F ield         | OpenFOAM: The Open Source CFD Toolbox
   \\    /   O peration     | Website:  https://openfoam.org
    \\  /    A nd           | Version:  9
     \\/     M anipulation  |
\*---------------------------------------------------------------------------*/
FoamFile
{
    format      ascii;
    class       volScalarField;
    location    "21";
    object      h_0;
}
// * * * * * * * * * * * * * * * * * * * * * * * * * * * * * * * * * * * * * //

dimensions      [0 1 0 0 0 0 0];

internalField   nonuniform List<scalar> 
400
(
0.00999975
0.00999984
0.01
0.0100002
0.0100003
0.0100003
0.0100002
0.01
0.00999967
0.00999927
0.00999892
0.00999865
0.00999858
0.00999865
0.00999877
0.00999891
0.00999905
0.00999924
0.00999949
0.00999983
0.00999983
0.00999988
0.01
0.0100002
0.0100002
0.0100002
0.01
0.00999977
0.00999937
0.00999893
0.00999853
0.00999834
0.00999834
0.00999848
0.0099987
0.00999889
0.00999906
0.00999923
0.00999947
0.00999982
0.01
0.0100001
0.0100001
0.0100002
0.0100002
0.0100001
0.00999987
0.00999951
0.00999902
0.00999851
0.0099981
0.00999792
0.00999802
0.00999833
0.00999872
0.00999907
0.00999934
0.00999952
0.00999968
0.00999987
0.0100004
0.0100003
0.0100003
0.0100003
0.0100002
0.01
0.00999967
0.00999916
0.00999851
0.00999785
0.00999738
0.00999728
0.00999757
0.00999818
0.00999884
0.00999933
0.00999958
0.00999966
0.00999974
0.00999989
0.0100007
0.0100007
0.0100006
0.0100005
0.0100003
0.00999998
0.0099995
0.0099988
0.00999792
0.00999706
0.00999641
0.00999639
0.00999697
0.00999803
0.00999915
0.00999992
0.0100002
0.0100001
0.01
0.00999996
0.0100011
0.010001
0.0100009
0.0100007
0.0100005
0.0100001
0.00999944
0.00999846
0.00999727
0.00999614
0.00999541
0.00999533
0.00999629
0.00999791
0.00999946
0.0100004
0.0100005
0.0100003
0.01
0.00999995
0.0100015
0.0100014
0.0100013
0.0100011
0.0100008
0.0100004
0.00999966
0.00999836
0.00999651
0.00999443
0.00999309
0.00999353
0.00999592
0.00999904
0.0100012
0.0100016
0.010001
0.0100003
0.00999993
0.00999995
0.0100018
0.0100018
0.0100017
0.0100016
0.0100014
0.010001
0.0100002
0.00999884
0.00999659
0.00999326
0.00998929
0.00998919
0.00999375
0.00999983
0.0100033
0.0100032
0.0100016
0.0100002
0.00999977
0.00999994
0.0100021
0.010002
0.0100021
0.0100021
0.0100022
0.0100021
0.0100013
0.00999901
0.00999463
0.00998856
0.00998563
0.00998869
0.00999732
0.0100033
0.0100044
0.0100027
0.0100007
0.00999977
0.00999978
0.01
0.0100021
0.0100021
0.0100022
0.0100025
0.010003
0.0100042
0.0100057
0.0100073
0.010004
0.0089773
0.00895115
0.00997478
0.0100082
0.0100176
0.0100105
0.0100026
0.00999928
0.00999938
0.0100002
0.0100003
0.010002
0.0100021
0.0100021
0.0100024
0.0100029
0.0100041
0.0100056
0.0100072
0.0100039
0.00897725
0.00895113
0.00997476
0.0100081
0.0100175
0.0100105
0.0100026
0.00999928
0.00999936
0.0100001
0.0100003
0.0100018
0.0100018
0.0100018
0.0100019
0.0100019
0.0100018
0.010001
0.00999877
0.00999442
0.00998837
0.0099853
0.00998851
0.00999718
0.0100032
0.0100043
0.0100026
0.0100006
0.00999976
0.00999982
0.01
0.0100014
0.0100014
0.0100013
0.0100012
0.010001
0.0100006
0.00999988
0.0099985
0.00999628
0.00999293
0.00998916
0.0099889
0.00999346
0.00999956
0.010003
0.0100031
0.0100014
0.0100001
0.00999976
0.00999994
0.0100009
0.0100009
0.0100007
0.0100005
0.0100003
0.00999988
0.00999913
0.00999786
0.00999601
0.00999396
0.0099926
0.00999308
0.00999552
0.00999869
0.0100009
0.0100014
0.0100008
0.0100001
0.00999981
0.00999991
0.0100004
0.0100003
0.0100002
0.01
0.00999977
0.00999939
0.00999876
0.00999783
0.00999667
0.00999556
0.00999481
0.00999481
0.0099958
0.00999747
0.00999908
0.01
0.0100002
0.01
0.00999986
0.0099999
0.00999986
0.00999978
0.00999967
0.00999956
0.0099994
0.00999913
0.00999868
0.00999801
0.00999718
0.00999632
0.00999575
0.00999572
0.00999634
0.00999745
0.00999861
0.00999943
0.00999979
0.00999982
0.0099998
0.00999989
0.00999932
0.00999928
0.00999924
0.00999922
0.00999916
0.009999
0.0099987
0.00999822
0.00999761
0.00999701
0.00999658
0.00999652
0.00999686
0.0099975
0.00999824
0.00999883
0.0099992
0.0099994
0.00999958
0.00999982
0.00999885
0.00999885
0.0099989
0.00999899
0.00999901
0.00999894
0.00999874
0.0099984
0.00999794
0.00999746
0.0099971
0.00999698
0.00999714
0.00999752
0.00999798
0.00999841
0.00999877
0.00999907
0.00999939
0.00999977
0.00999848
0.00999854
0.00999865
0.00999883
0.00999893
0.00999891
0.00999879
0.00999855
0.0099982
0.00999782
0.00999749
0.00999731
0.00999736
0.00999759
0.00999789
0.00999821
0.00999852
0.00999885
0.00999925
0.00999973
0.00999824
0.00999831
0.00999846
0.00999869
0.00999883
0.00999884
0.00999874
0.00999854
0.00999824
0.00999787
0.00999757
0.00999739
0.00999739
0.00999754
0.00999776
0.009998
0.00999827
0.00999861
0.00999908
0.00999966
)
;

boundaryField
{
    sides
    {
        type            zeroGradient;
    }
    inlet
    {
        type            zeroGradient;
    }
    outlet
    {
        type            fixedValue;
        value           uniform 0.01;
    }
    frontAndBack
    {
        type            empty;
    }
}


// ************************************************************************* //
