/*--------------------------------*- C++ -*----------------------------------*\
  =========                 |
  \\      /  F ield         | OpenFOAM: The Open Source CFD Toolbox
   \\    /   O peration     | Website:  https://openfoam.org
    \\  /    A nd           | Version:  9
     \\/     M anipulation  |
\*---------------------------------------------------------------------------*/
FoamFile
{
    format      ascii;
    class       surfaceScalarField;
    location    "21";
    object      phi;
}
// * * * * * * * * * * * * * * * * * * * * * * * * * * * * * * * * * * * * * //

dimensions      [0 4 -1 0 0 0 0];

internalField   nonuniform List<scalar> 
760
(
5.00021e-06
-3.91549e-10
5.00071e-06
-8.45131e-10
5.00131e-06
-9.7213e-10
5.00195e-06
-9.22699e-10
5.00276e-06
-9.89411e-10
5.00389e-06
-1.22835e-09
5.00529e-06
-1.42186e-09
5.00675e-06
-1.3958e-09
5.00797e-06
-1.07669e-09
5.00864e-06
-5.16672e-10
5.00866e-06
8.68468e-11
5.00796e-06
6.4172e-10
5.0069e-06
9.196e-10
5.00567e-06
1.062e-09
5.00427e-06
1.23734e-09
5.00291e-06
1.21812e-09
5.00174e-06
1.01093e-09
5.0013e-06
2.21386e-10
5.00125e-06
-1.93719e-10
-5.26399e-10
5.00023e-06
-7.53446e-10
5.00073e-06
-1.61506e-09
5.00134e-06
-1.88761e-09
5.00202e-06
-1.83801e-09
5.0029e-06
-2.00569e-09
5.00414e-06
-2.51068e-09
5.00568e-06
-2.93522e-09
5.00731e-06
-2.91291e-09
5.00872e-06
-2.30581e-09
5.00956e-06
-1.16778e-09
5.00938e-06
3.10419e-10
5.0086e-06
1.33433e-09
5.00736e-06
1.96226e-09
5.00586e-06
2.33128e-09
5.00436e-06
2.54211e-09
5.00311e-06
2.31034e-09
5.00221e-06
1.74566e-09
5.00173e-06
5.3019e-10
5.00149e-06
-1.51777e-10
-3.80677e-10
5.0002e-06
-9.93346e-10
5.00065e-06
-2.23545e-09
5.00128e-06
-2.7077e-09
5.00202e-06
-2.72837e-09
5.00301e-06
-3.06518e-09
5.00439e-06
-3.8624e-09
5.00611e-06
-4.54353e-09
5.00795e-06
-4.56634e-09
5.00955e-06
-3.68609e-09
5.01051e-06
-1.96659e-09
5.01061e-06
2.14043e-10
5.00964e-06
2.11524e-09
5.008e-06
3.3025e-09
5.00606e-06
3.93746e-09
5.00415e-06
4.17949e-09
5.00259e-06
3.65972e-09
5.00156e-06
2.60709e-09
5.00123e-06
6.84214e-10
5.00136e-06
-4.15353e-10
-5.33995e-10
5.00018e-06
-1.1385e-09
5.0006e-06
-2.68055e-09
5.00121e-06
-3.36715e-09
5.00202e-06
-3.5705e-09
5.00314e-06
-4.1816e-09
5.00475e-06
-5.36761e-09
5.00683e-06
-6.42007e-09
5.00921e-06
-6.67289e-09
5.01148e-06
-5.6809e-09
5.0129e-06
-3.23481e-09
5.01292e-06
9.06432e-11
5.01144e-06
3.32064e-09
5.00876e-06
5.55797e-09
5.00596e-06
6.3073e-09
5.00404e-06
5.77528e-09
5.00302e-06
4.42252e-09
5.00265e-06
2.83131e-09
5.00239e-06
8.14362e-10
5.00204e-06
-1.47885e-10
-1.7344e-11
5.00014e-06
-1.18252e-09
5.00047e-06
-2.91305e-09
5.00102e-06
-3.84443e-09
5.00187e-06
-4.35475e-09
5.00317e-06
-5.3942e-09
5.0051e-06
-7.1063e-09
5.00767e-06
-8.68654e-09
5.01069e-06
-9.3298e-09
5.01402e-06
-8.71478e-09
5.01666e-06
-5.70473e-09
5.01656e-06
8.81044e-11
5.01433e-06
5.21546e-09
5.00982e-06
9.58484e-09
5.00542e-06
1.02107e-08
5.00277e-06
8.02636e-09
5.00201e-06
4.92763e-09
5.00211e-06
2.58896e-09
5.00226e-06
5.5567e-10
5.00221e-06
-1.6134e-10
2.0532e-10
5.00008e-06
-1.11375e-09
5.00026e-06
-2.90587e-09
5.00065e-06
-4.05297e-09
5.0014e-06
-4.95017e-09
5.00275e-06
-6.54656e-09
5.0051e-06
-9.17358e-09
5.00854e-06
-1.17123e-08
5.013e-06
-1.33626e-08
5.01718e-06
-1.25569e-08
5.02083e-06
-9.21677e-09
5.02208e-06
-1.22738e-09
5.0176e-06
9.29026e-09
5.01064e-06
1.60548e-08
5.00494e-06
1.54443e-08
5.00264e-06
9.94703e-09
5.00289e-06
4.46231e-09
5.00368e-06
1.71938e-09
5.00378e-06
4.32374e-10
5.00308e-06
5.49013e-10
1.01e-09
5e-06
-9.42812e-10
4.99994e-06
-2.59548e-09
5.00006e-06
-3.91412e-09
5.00052e-06
-5.16481e-09
5.0016e-06
-7.35137e-09
5.00358e-06
-1.07691e-08
5.00779e-06
-1.54375e-08
5.01524e-06
-2.03375e-08
5.02542e-06
-2.23239e-08
5.0328e-06
-1.6453e-08
5.03057e-06
1.00088e-09
5.01833e-06
2.12183e-08
5.00535e-06
2.85686e-08
4.99946e-06
2.09302e-08
5.00103e-06
8.11234e-09
5.00324e-06
2.09237e-09
5.00422e-06
6.17266e-10
5.00409e-06
5.38789e-10
5.00344e-06
1.21639e-09
1.27767e-09
4.99988e-06
-6.45914e-10
4.99951e-06
-1.94937e-09
4.99909e-06
-3.18925e-09
4.99898e-06
-4.75484e-09
4.99975e-06
-7.77152e-09
5.00111e-06
-1.16938e-08
5.00473e-06
-1.85231e-08
5.01119e-06
-2.6266e-08
5.02647e-06
-3.71987e-08
5.05796e-06
-4.76477e-08
5.05178e-06
7.05941e-09
5.02485e-06
4.79794e-08
4.99941e-06
5.36722e-08
4.99426e-06
2.57681e-08
5.00002e-06
2.17295e-09
5.00462e-06
-2.6409e-09
5.00548e-06
-3.42142e-10
5.00435e-06
1.63941e-09
5.00399e-06
1.57677e-09
5.93828e-10
4.99977e-06
-2.54232e-10
4.99907e-06
-9.67925e-10
4.99784e-06
-1.61835e-09
4.99622e-06
-2.79811e-09
4.99444e-06
-5.61179e-09
4.99448e-06
-1.12589e-08
5.00052e-06
-2.39956e-08
5.01855e-06
-4.37027e-08
5.05742e-06
-7.56001e-08
5.06866e-06
-5.87777e-08
5.05177e-06
2.39219e-08
4.99815e-06
1.01232e-07
4.99051e-06
6.09938e-08
4.99667e-06
1.93991e-08
5.00075e-06
-1.98352e-09
5.00351e-06
-5.44469e-09
5.00323e-06
-1.16049e-10
5.00256e-06
2.28956e-09
5.00305e-06
1.09385e-09
-2.94508e-10
4.99986e-06
3.84439e-11
4.99911e-06
5.81557e-11
4.99781e-06
1.99595e-11
4.99542e-06
-5.8016e-11
4.99038e-06
-1.72483e-10
4.97992e-06
-3.11026e-10
4.95692e-06
-4.12748e-10
4.9143e-06
-4.84382e-10
4.83963e-06
-5.10275e-10
4.78162e-06
-4.74432e-10
4.80597e-06
-5.47477e-10
4.90758e-06
-6.27082e-10
4.96897e-06
-5.84095e-10
4.989e-06
-7.33621e-10
4.98798e-06
-9.97442e-10
4.98391e-06
-1.34579e-09
4.98543e-06
-1.62811e-09
4.98966e-06
-1.95408e-09
4.99304e-06
-2.23182e-09
-2.84872e-09
4.99987e-06
3.2787e-10
4.99912e-06
1.07585e-09
4.99781e-06
1.65963e-09
4.99541e-06
2.68464e-09
4.99035e-06
5.28069e-09
4.97987e-06
1.06536e-08
4.95686e-06
2.31741e-08
4.91422e-06
4.27361e-08
4.83956e-06
7.46096e-08
4.78139e-06
5.79232e-08
4.80592e-06
-2.51135e-08
4.90756e-06
-1.02425e-07
4.96894e-06
-6.2215e-08
4.98883e-06
-2.07475e-08
4.98789e-06
-6.1737e-11
4.98357e-06
3.00214e-09
4.98527e-06
-3.33808e-09
4.98966e-06
-6.33946e-09
4.99291e-06
-5.42216e-09
-5.17848e-09
4.99978e-06
7.06371e-10
4.99909e-06
2.03572e-09
4.99786e-06
3.20594e-09
4.99625e-06
4.62187e-09
4.99448e-06
7.40882e-09
4.9945e-06
1.10954e-08
5.00051e-06
1.77325e-08
5.01844e-06
2.53494e-08
5.05727e-06
3.62316e-08
5.06896e-06
4.648e-08
5.05126e-06
-8.82465e-09
4.99772e-06
-4.91127e-08
4.99006e-06
-5.48334e-08
4.99646e-06
-2.73464e-08
5.00067e-06
-4.37952e-09
5.00288e-06
7.56085e-10
5.00241e-06
-2.90551e-09
5.00164e-06
-5.55959e-09
5.00224e-06
-5.95836e-09
-6.05732e-09
4.99989e-06
9.81826e-10
4.99953e-06
2.65262e-09
4.99912e-06
3.91106e-09
4.999e-06
5.01837e-09
4.99972e-06
7.0082e-09
5.00102e-06
1.02077e-08
5.00453e-06
1.4744e-08
5.01092e-06
1.94613e-08
5.02616e-06
2.1416e-08
5.05725e-06
1.55054e-08
5.05167e-06
-1.86477e-09
5.0245e-06
-2.22484e-08
4.99907e-06
-2.97718e-08
4.9939e-06
-2.24841e-08
4.99916e-06
-9.8421e-09
5.00402e-06
-4.20484e-09
5.00432e-06
-3.25273e-09
5.00296e-06
-4.19368e-09
5.00262e-06
-5.59221e-09
-6.57562e-09
5.00002e-06
1.1293e-09
4.99996e-06
2.93555e-09
5.00008e-06
4.03517e-09
5.00052e-06
4.81172e-09
5.00156e-06
6.2291e-09
5.00347e-06
8.64636e-09
5.00764e-06
1.10107e-08
5.01505e-06
1.25344e-08
5.02514e-06
1.1697e-08
5.0325e-06
8.3612e-09
5.03015e-06
3.22865e-10
5.01777e-06
-1.02102e-08
5.00465e-06
-1.70812e-08
4.99852e-06
-1.67818e-08
4.99994e-06
-1.15383e-08
5.0021e-06
-6.5093e-09
5.00296e-06
-4.18502e-09
5.00263e-06
-3.89131e-09
5.00154e-06
-4.51059e-09
-5.95505e-09
5.0001e-06
1.18208e-09
5.00029e-06
2.92264e-09
5.00067e-06
3.8281e-09
5.00141e-06
4.22688e-09
5.00271e-06
5.09544e-09
5.00501e-06
6.62286e-09
5.00833e-06
8.05368e-09
5.01264e-06
8.63276e-09
5.01669e-06
8.01534e-09
5.02027e-06
4.9144e-09
5.02128e-06
-7.99442e-10
5.01674e-06
-6.02889e-09
5.00966e-06
-1.05008e-08
5.00384e-06
-1.14286e-08
5.00138e-06
-9.41257e-09
5.00144e-06
-6.78473e-09
5.00195e-06
-4.81948e-09
5.00163e-06
-3.6443e-09
5.00056e-06
-3.4859e-09
-4.92625e-09
5.00016e-06
1.13918e-09
5.0005e-06
2.67904e-09
5.00105e-06
3.34736e-09
5.00187e-06
3.4657e-09
5.00312e-06
3.93226e-09
5.00496e-06
4.96882e-09
5.0074e-06
5.8975e-09
5.01029e-06
6.07036e-09
5.01358e-06
5.03953e-09
5.01614e-06
2.48131e-09
5.01586e-06
-6.40433e-10
5.0135e-06
-4.02245e-09
5.00882e-06
-6.2874e-09
5.00428e-06
-7.34453e-09
5.00152e-06
-7.02234e-09
5.00052e-06
-6.05119e-09
5.00033e-06
-4.79004e-09
5.00002e-06
-3.44299e-09
4.99925e-06
-2.8001e-09
-4.10305e-09
5.00019e-06
9.92703e-10
5.00063e-06
2.23444e-09
5.00124e-06
2.67222e-09
5.00201e-06
2.6234e-09
5.0031e-06
2.84795e-09
5.00462e-06
3.53029e-09
5.00658e-06
4.12579e-09
5.00881e-06
4.11129e-09
5.01083e-06
3.26178e-09
5.01193e-06
1.56733e-09
5.01201e-06
-7.64443e-10
5.01039e-06
-2.64808e-09
5.00762e-06
-3.9067e-09
5.00456e-06
-4.68637e-09
5.00216e-06
-4.96424e-09
5.0007e-06
-4.83845e-09
4.99982e-06
-4.08045e-09
4.99916e-06
-2.91632e-09
4.9984e-06
-2.14651e-09
-3.13412e-09
5.00022e-06
7.38198e-10
5.00071e-06
1.59418e-09
5.00133e-06
1.87146e-09
5.00204e-06
1.75908e-09
5.00296e-06
1.8423e-09
5.00424e-06
2.25e-09
5.00586e-06
2.60839e-09
5.00761e-06
2.5446e-09
5.00916e-06
1.92311e-09
5.01009e-06
7.84585e-10
5.00981e-06
-4.98022e-10
5.00864e-06
-1.68348e-09
5.00674e-06
-2.32266e-09
5.00455e-06
-2.81651e-09
5.00247e-06
-3.16239e-09
5.00072e-06
-3.30723e-09
4.99936e-06
-2.89102e-09
4.9984e-06
-2.12131e-09
4.99757e-06
-1.471e-09
-2.21374e-09
5.00022e-06
4.09964e-10
5.00071e-06
8.47351e-10
5.00132e-06
9.66605e-10
5.00196e-06
8.9399e-10
5.00278e-06
9.09922e-10
5.00388e-06
1.10341e-09
5.00524e-06
1.2838e-09
5.00665e-06
1.24649e-09
5.00782e-06
9.33357e-10
5.0084e-06
3.50767e-10
5.00831e-06
-3.39977e-10
5.00733e-06
-8.20325e-10
5.00588e-06
-1.09648e-09
5.00415e-06
-1.3263e-09
5.00228e-06
-1.50598e-09
5.00044e-06
-1.64849e-09
4.99886e-06
-1.48218e-09
4.9977e-06
-1.15945e-09
4.99683e-06
-7.91646e-10
-1.38673e-09
5.00026e-06
5.00078e-06
5.00138e-06
5.002e-06
5.00276e-06
5.00381e-06
5.0051e-06
5.00644e-06
5.00754e-06
5.00804e-06
5.00778e-06
5.00687e-06
5.00559e-06
5.00407e-06
5.00239e-06
5.00059e-06
4.99895e-06
4.99759e-06
4.9966e-06
)
;

boundaryField
{
    sides
    {
        type            calculated;
        value           uniform 0;
    }
    inlet
    {
        type            calculated;
        value           nonuniform List<scalar> 
20
(
-5e-06
-5e-06
-5e-06
-5e-06
-5e-06
-5e-06
-5e-06
-5e-06
-5e-06
-5e-06
-5e-06
-5e-06
-5e-06
-5e-06
-5e-06
-5e-06
-5e-06
-5e-06
-5e-06
-5e-06
)
;
    }
    outlet
    {
        type            calculated;
        value           nonuniform List<scalar> 
20
(
5.00168e-06
5.00127e-06
5.00144e-06
5.00149e-06
5.00195e-06
5.00229e-06
5.00318e-06
5.00467e-06
5.00396e-06
4.99564e-06
4.99529e-06
5.00315e-06
5.00317e-06
5.00093e-06
4.99952e-06
4.9984e-06
4.99738e-06
4.99659e-06
4.99592e-06
4.99512e-06
)
;
    }
    frontAndBack
    {
        type            empty;
        value           nonuniform List<scalar> 0();
    }
}


// ************************************************************************* //
