/*--------------------------------*- C++ -*----------------------------------*\
  =========                 |
  \\      /  F ield         | OpenFOAM: The Open Source CFD Toolbox
   \\    /   O peration     | Website:  https://openfoam.org
    \\  /    A nd           | Version:  9
     \\/     M anipulation  |
\*---------------------------------------------------------------------------*/
FoamFile
{
    format      ascii;
    class       volVectorField;
    location    "21";
    object      U;
}
// * * * * * * * * * * * * * * * * * * * * * * * * * * * * * * * * * * * * * //

dimensions      [0 1 -1 0 0 0 0];

internalField   nonuniform List<vector> 
400
(
(0.099995 -5.86345e-06 0)
(0.100005 -1.29614e-05 0)
(0.10002 -1.59174e-05 0)
(0.100029 -1.69084e-05 0)
(0.100042 -1.95008e-05 0)
(0.100062 -2.4026e-05 0)
(0.100086 -2.77807e-05 0)
(0.100117 -2.89556e-05 0)
(0.10015 -2.66923e-05 0)
(0.100174 -2.13194e-05 0)
(0.100184 -1.42311e-05 0)
(0.10018 -1.03481e-05 0)
(0.100165 -8.63311e-06 0)
(0.100145 -9.28951e-06 0)
(0.100117 -9.29839e-06 0)
(0.100087 -1.11831e-05 0)
(0.100054 -1.33088e-05 0)
(0.100033 -1.9676e-05 0)
(0.100024 -1.96837e-05 0)
(0.100032 -2.66758e-05 0)
(0.099995 -1.14224e-05 0)
(0.100005 -2.36847e-05 0)
(0.100021 -2.65274e-05 0)
(0.10003 -2.41632e-05 0)
(0.100045 -2.50414e-05 0)
(0.100067 -3.10684e-05 0)
(0.100095 -3.58694e-05 0)
(0.100129 -3.39347e-05 0)
(0.100165 -2.32719e-05 0)
(0.100194 -5.17971e-06 0)
(0.100205 1.57822e-05 0)
(0.100199 3.16196e-05 0)
(0.100181 4.06148e-05 0)
(0.100154 4.62513e-05 0)
(0.100122 5.22604e-05 0)
(0.100088 5.27906e-05 0)
(0.10006 4.67101e-05 0)
(0.10004 2.44887e-05 0)
(0.100034 9.29952e-06 0)
(0.100029 3.25994e-06 0)
(0.0999944 -1.72867e-05 0)
(0.100004 -3.87453e-05 0)
(0.100018 -4.67172e-05 0)
(0.100029 -4.69206e-05 0)
(0.100047 -5.2228e-05 0)
(0.100072 -6.54746e-05 0)
(0.100103 -7.68645e-05 0)
(0.100141 -7.71967e-05 0)
(0.100183 -6.28272e-05 0)
(0.100215 -3.51918e-05 0)
(0.10023 -1.49392e-06 0)
(0.100225 2.61587e-05 0)
(0.100202 4.15389e-05 0)
(0.100167 4.86565e-05 0)
(0.100123 5.17838e-05 0)
(0.100081 4.61153e-05 0)
(0.100044 3.27894e-05 0)
(0.100024 4.00344e-06 0)
(0.100021 -1.30067e-05 0)
(0.100031 -1.63183e-05 0)
(0.0999928 -2.12045e-05 0)
(0.100002 -4.9377e-05 0)
(0.100016 -6.0865e-05 0)
(0.100028 -6.30966e-05 0)
(0.100049 -7.27445e-05 0)
(0.100078 -9.25613e-05 0)
(0.100116 -0.000109028 0)
(0.100164 -0.000109967 0)
(0.100216 -8.95903e-05 0)
(0.10026 -4.80686e-05 0)
(0.100283 9.43987e-06 0)
(0.100276 6.01253e-05 0)
(0.10024 9.39919e-05 0)
(0.100183 0.000108265 0)
(0.100122 0.000106628 0)
(0.100073 8.73507e-05 0)
(0.100049 5.7828e-05 0)
(0.100041 1.49019e-05 0)
(0.100044 -8.27883e-06 0)
(0.100037 -7.42493e-06 0)
(0.0999908 -2.29715e-05 0)
(0.0999988 -5.60402e-05 0)
(0.10001 -7.26023e-05 0)
(0.100024 -8.02617e-05 0)
(0.100048 -9.72236e-05 0)
(0.100083 -0.000126739 0)
(0.100129 -0.000152352 0)
(0.100189 -0.000157635 0)
(0.100258 -0.000133264 0)
(0.100322 -7.94743e-05 0)
(0.100361 -7.01361e-06 0)
(0.100354 6.80685e-05 0)
(0.100299 0.000121646 0)
(0.100205 0.000142853 0)
(0.100108 0.000136571 0)
(0.10004 0.000108761 0)
(0.100014 7.44173e-05 0)
(0.100018 2.88724e-05 0)
(0.100038 5.15465e-06 0)
(0.100048 8.60143e-06 0)
(0.0999884 -2.27112e-05 0)
(0.0999945 -5.82655e-05 0)
(0.100002 -7.97555e-05 0)
(0.100014 -9.42643e-05 0)
(0.10004 -0.000121695 0)
(0.10008 -0.000164888 0)
(0.100137 -0.000208236 0)
(0.100217 -0.000229795 0)
(0.100312 -0.000208109 0)
(0.100399 -0.000122877 0)
(0.100459 1.73333e-05 0)
(0.100458 0.000162797 0)
(0.100373 0.000239278 0)
(0.10023 0.000219504 0)
(0.100097 0.000139444 0)
(0.100023 5.87696e-05 0)
(0.10002 1.46042e-05 0)
(0.100044 -1.19011e-05 0)
(0.10007 -1.33416e-05 0)
(0.10006 -2.89424e-06 0)
(0.0999858 -2.00139e-05 0)
(0.0999888 -5.53796e-05 0)
(0.0999897 -8.01098e-05 0)
(0.0999975 -0.000104068 0)
(0.10002 -0.000142679 0)
(0.100058 -0.000205659 0)
(0.100121 -0.000268808 0)
(0.100229 -0.000329851 0)
(0.100387 -0.000338229 0)
(0.100565 -0.000291643 0)
(0.100679 -5.93784e-05 0)
(0.100633 0.000261736 0)
(0.100417 0.000478325 0)
(0.10014 0.000462422 0)
(0.0999601 0.00029943 0)
(0.099929 0.000137067 0)
(0.0999995 5.68992e-05 0)
(0.100063 2.93735e-05 0)
(0.100102 3.52843e-05 0)
(0.100073 4.41577e-05 0)
(0.0999832 -1.58594e-05 0)
(0.0999819 -4.47739e-05 0)
(0.0999726 -7.23336e-05 0)
(0.0999715 -0.000101244 0)
(0.0999821 -0.000160147 0)
(0.100015 -0.000243721 0)
(0.100068 -0.000357709 0)
(0.10019 -0.000431856 0)
(0.100373 -0.000450901 0)
(0.100704 -0.000258543 0)
(0.101054 7.95072e-05 0)
(0.101059 0.000431716 0)
(0.100642 0.000468715 0)
(0.100094 0.000269437 0)
(0.0997949 7.0232e-05 0)
(0.0998045 -1.9294e-05 0)
(0.0999753 -1.75545e-05 0)
(0.100101 -2.95141e-06 0)
(0.100146 5.77013e-06 0)
(0.100093 3.47595e-06 0)
(0.0999817 -8.39088e-06 0)
(0.0999742 -2.93014e-05 0)
(0.0999526 -4.68624e-05 0)
(0.0999307 -7.62662e-05 0)
(0.0999152 -0.000134938 0)
(0.0999161 -0.000253882 0)
(0.099978 -0.000480292 0)
(0.100175 -0.000819931 0)
(0.100578 -0.00133913 0)
(0.101108 -0.00149694 0)
(0.101371 0.00038696 0)
(0.101043 0.00187878 0)
(0.100277 0.00157638 0)
(0.0997425 0.00056803 0)
(0.0996568 -3.47112e-05 0)
(0.0998303 -0.000122979 0)
(0.100033 -4.20591e-06 0)
(0.10012 5.88862e-05 0)
(0.100122 4.96337e-05 0)
(0.100062 1.67833e-05 0)
(0.0999623 -2.40567e-06 0)
(0.0999991 -8.22958e-06 0)
(0.0998966 -1.64377e-05 0)
(0.0999639 -2.47089e-05 0)
(0.0997309 -5.93659e-05 0)
(0.0998601 -0.000115732 0)
(0.0992996 -0.000293327 0)
(0.0997055 -0.000564113 0)
(0.0991578 -0.00115713 0)
(0.10205 -0.00141792 0)
(0.10633 3.16737e-05 0)
(0.101312 0.00147093 0)
(0.0990436 0.00131007 0)
(0.0982449 0.000513166 0)
(0.0988666 2.04553e-05 0)
(0.0996134 -7.51495e-05 0)
(0.099947 -1.01501e-05 0)
(0.0999663 2.09437e-05 0)
(0.0998762 6.87426e-06 0)
(0.0998555 -2.38475e-05 0)
(0.0999631 3.9408e-06 0)
(0.0999999 1.05091e-05 0)
(0.0998976 1.72603e-05 0)
(0.0999649 2.26263e-05 0)
(0.0997314 5.31205e-05 0)
(0.09986 0.000104466 0)
(0.0992993 0.000278252 0)
(0.0997046 0.000546504 0)
(0.0991569 0.00113881 0)
(0.102048 0.00139903 0)
(0.106327 -5.06508e-05 0)
(0.10131 -0.00149349 0)
(0.0990436 -0.00133568 0)
(0.0982441 -0.00054506 0)
(0.098865 -5.87486e-05 0)
(0.0996095 2.57753e-05 0)
(0.0999422 -5.05582e-05 0)
(0.0999621 -0.000101308 0)
(0.0998755 -0.000102529 0)
(0.099851 -9.38073e-05 0)
(0.0999841 9.73681e-06 0)
(0.0999767 3.12728e-05 0)
(0.0999555 4.74988e-05 0)
(0.0999338 7.40496e-05 0)
(0.0999182 0.000128658 0)
(0.099919 0.000242695 0)
(0.0999804 0.000465035 0)
(0.100177 0.000801589 0)
(0.100577 0.00131949 0)
(0.10111 0.00147589 0)
(0.101373 -0.000409545 0)
(0.101039 -0.00190257 0)
(0.100271 -0.00160186 0)
(0.0997355 -0.00059912 0)
(0.0996504 5.50171e-07 0)
(0.0998254 7.7361e-05 0)
(0.100025 -4.90719e-05 0)
(0.100105 -0.000130794 0)
(0.100103 -0.000136668 0)
(0.100044 -0.000128065 0)
(0.0999871 1.68448e-05 0)
(0.0999859 4.62813e-05 0)
(0.0999772 7.26032e-05 0)
(0.0999762 9.87144e-05 0)
(0.099986 0.000153143 0)
(0.100018 0.000231468 0)
(0.100069 0.000340513 0)
(0.100188 0.00041156 0)
(0.10037 0.000429871 0)
(0.100697 0.000238169 0)
(0.101047 -0.000102226 0)
(0.101054 -0.000455154 0)
(0.100637 -0.000492555 0)
(0.100089 -0.000298266 0)
(0.0997871 -0.00010401 0)
(0.0997933 -2.82386e-05 0)
(0.0999595 -4.38997e-05 0)
(0.100076 -7.52642e-05 0)
(0.100119 -9.14894e-05 0)
(0.100062 -0.000108834 0)
(0.0999913 2.05668e-05 0)
(0.0999943 5.63053e-05 0)
(0.099996 7.99471e-05 0)
(0.100004 0.000101149 0)
(0.100026 0.000135725 0)
(0.100062 0.000194332 0)
(0.100124 0.000254308 0)
(0.10023 0.000313516 0)
(0.100387 0.000322034 0)
(0.100563 0.00027522 0)
(0.100677 4.64586e-05 0)
(0.100628 -0.000278641 0)
(0.100409 -0.000498674 0)
(0.100128 -0.000490452 0)
(0.099944 -0.000335915 0)
(0.0999077 -0.00018588 0)
(0.0999768 -0.000117277 0)
(0.100036 -0.000106387 0)
(0.100072 -0.000121611 0)
(0.100029 -0.000151533 0)
(0.0999954 2.28741e-05 0)
(0.100002 5.86613e-05 0)
(0.10001 7.9376e-05 0)
(0.100022 9.15274e-05 0)
(0.100047 0.000115468 0)
(0.100085 0.000154691 0)
(0.100141 0.0001949 0)
(0.100218 0.000214197 0)
(0.10031 0.000191234 0)
(0.100395 0.000104956 0)
(0.100451 -3.60514e-05 0)
(0.100446 -0.000182426 0)
(0.10036 -0.000260796 0)
(0.100213 -0.000246341 0)
(0.100078 -0.000169673 0)
(0.0999989 -9.65093e-05 0)
(0.099992 -5.76116e-05 0)
(0.100006 -4.47171e-05 0)
(0.100028 -5.09769e-05 0)
(0.100004 -8.40194e-05 0)
(0.0999993 2.29728e-05 0)
(0.100007 5.61832e-05 0)
(0.10002 7.22436e-05 0)
(0.100034 7.77628e-05 0)
(0.100057 9.1515e-05 0)
(0.10009 0.00011779 0)
(0.100133 0.000140548 0)
(0.100191 0.000144455 0)
(0.100257 0.000119858 0)
(0.100318 6.59589e-05 0)
(0.100356 -7.99414e-06 0)
(0.100347 -8.47221e-05 0)
(0.100287 -0.000139793 0)
(0.100189 -0.000164915 0)
(0.100089 -0.000161164 0)
(0.100016 -0.000143853 0)
(0.0999869 -0.00011967 0)
(0.0999813 -9.42567e-05 0)
(0.0999928 -8.349e-05 0)
(0.0999785 -0.000109874 0)
(0.100003 2.11345e-05 0)
(0.100012 4.91476e-05 0)
(0.100027 6.05614e-05 0)
(0.10004 6.15633e-05 0)
(0.100059 6.85868e-05 0)
(0.100086 8.55385e-05 0)
(0.100122 9.99782e-05 0)
(0.100166 0.000100286 0)
(0.100215 8.07708e-05 0)
(0.100254 4.07743e-05 0)
(0.100272 -1.40552e-05 0)
(0.100262 -6.54068e-05 0)
(0.100225 -9.92783e-05 0)
(0.100164 -0.000117589 0)
(0.100097 -0.000119859 0)
(0.100038 -0.000110056 0)
(0.100003 -8.66686e-05 0)
(0.0999798 -5.61296e-05 0)
(0.0999786 -3.79092e-05 0)
(0.0999563 -5.80334e-05 0)
(0.100006 1.72753e-05 0)
(0.100016 3.81878e-05 0)
(0.100032 4.47076e-05 0)
(0.100043 4.23469e-05 0)
(0.100058 4.4917e-05 0)
(0.100081 5.52569e-05 0)
(0.10011 6.39767e-05 0)
(0.100147 6.17952e-05 0)
(0.100186 4.55579e-05 0)
(0.100215 1.54587e-05 0)
(0.100228 -1.99139e-05 0)
(0.100218 -4.91758e-05 0)
(0.100189 -6.61511e-05 0)
(0.100146 -7.76931e-05 0)
(0.100099 -8.41909e-05 0)
(0.100049 -8.6024e-05 0)
(0.100011 -7.67449e-05 0)
(0.0999754 -6.04701e-05 0)
(0.0999659 -4.77225e-05 0)
(0.0999382 -6.69348e-05 0)
(0.100008 1.1588e-05 0)
(0.100018 2.57037e-05 0)
(0.100034 3.07812e-05 0)
(0.100043 3.00802e-05 0)
(0.100056 3.22129e-05 0)
(0.100076 3.94503e-05 0)
(0.1001 4.59407e-05 0)
(0.10013 4.60759e-05 0)
(0.100162 3.77248e-05 0)
(0.100184 2.18636e-05 0)
(0.100192 2.48632e-06 0)
(0.100184 -1.30118e-05 0)
(0.100163 -2.07958e-05 0)
(0.100131 -2.64872e-05 0)
(0.100093 -3.12601e-05 0)
(0.100048 -3.46897e-05 0)
(0.100008 -2.95609e-05 0)
(0.0999676 -1.79652e-05 0)
(0.0999543 -6.59977e-06 0)
(0.0999237 -1.90515e-05 0)
(0.10001 2.32856e-06 0)
(0.10002 4.29159e-06 0)
(0.100037 3.79819e-06 0)
(0.100046 1.59013e-06 0)
(0.100057 -1.53899e-07 0)
(0.100076 -3.75707e-07 0)
(0.100099 -3.93971e-07 0)
(0.100127 -2.29067e-06 0)
(0.100157 -6.27315e-06 0)
(0.100177 -1.23681e-05 0)
(0.100184 -1.88685e-05 0)
(0.100174 -2.43598e-05 0)
(0.100154 -2.8026e-05 0)
(0.100125 -3.24698e-05 0)
(0.100094 -3.61061e-05 0)
(0.100051 -3.94069e-05 0)
(0.100015 -3.77663e-05 0)
(0.0999689 -3.55696e-05 0)
(0.0999556 -3.06319e-05 0)
(0.099912 -4.03862e-05 0)
)
;

boundaryField
{
    sides
    {
        type            calculated;
        value           nonuniform List<vector> 
40
(
(0.10001 0 0)
(0.10002 0 0)
(0.100037 0 0)
(0.100046 0 0)
(0.100057 0 0)
(0.100076 0 0)
(0.100099 0 0)
(0.100127 0 0)
(0.100157 0 0)
(0.100177 0 0)
(0.100184 0 0)
(0.100174 0 0)
(0.100154 0 0)
(0.100125 0 0)
(0.100094 0 0)
(0.100051 0 0)
(0.100015 0 0)
(0.0999689 0 0)
(0.0999556 0 0)
(0.099912 0 0)
(0.099995 0 0)
(0.100005 0 0)
(0.10002 0 0)
(0.100029 0 0)
(0.100042 0 0)
(0.100062 0 0)
(0.100086 0 0)
(0.100117 0 0)
(0.10015 0 0)
(0.100174 0 0)
(0.100184 0 0)
(0.10018 0 0)
(0.100165 0 0)
(0.100145 0 0)
(0.100117 0 0)
(0.100087 0 0)
(0.100054 0 0)
(0.100033 0 0)
(0.100024 0 0)
(0.100032 0 0)
)
;
    }
    inlet
    {
        type            calculated;
        value           nonuniform List<vector> 
20
(
(0.100002 0 0)
(0.100002 0 0)
(0.0999996 0 0)
(0.0999966 0 0)
(0.099993 0 0)
(0.0999891 0 0)
(0.0999853 0 0)
(0.099982 0 0)
(0.0999799 0 0)
(0.0999794 0 0)
(0.0999803 0 0)
(0.0999825 0 0)
(0.0999862 0 0)
(0.099991 0 0)
(0.0999964 0 0)
(0.100002 0 0)
(0.100007 0 0)
(0.100012 0 0)
(0.100015 0 0)
(0.100017 0 0)
)
;
    }
    outlet
    {
        type            calculated;
        value           nonuniform List<vector> 
20
(
(0.100031 -2.66755e-05 0)
(0.100027 3.25989e-06 0)
(0.10003 -1.63182e-05 0)
(0.100036 -7.42485e-06 0)
(0.100048 8.60141e-06 0)
(0.100059 -2.89422e-06 0)
(0.100072 4.41575e-05 0)
(0.100092 3.47593e-06 0)
(0.100062 1.67834e-05 0)
(0.0998585 -2.38482e-05 0)
(0.0998538 -9.38099e-05 0)
(0.100045 -0.000128066 0)
(0.100062 -0.000108833 0)
(0.100028 -0.000151532 0)
(0.100003 -8.40187e-05 0)
(0.0999775 -0.000109873 0)
(0.0999547 -5.80324e-05 0)
(0.0999361 -6.69334e-05 0)
(0.0999212 -1.9051e-05 0)
(0.0999088 -4.03849e-05 0)
)
;
    }
    frontAndBack
    {
        type            empty;
    }
}


// ************************************************************************* //
