/*--------------------------------*- C++ -*----------------------------------*\
  =========                 |
  \\      /  F ield         | OpenFOAM: The Open Source CFD Toolbox
   \\    /   O peration     | Website:  https://openfoam.org
    \\  /    A nd           | Version:  9
     \\/     M anipulation  |
\*---------------------------------------------------------------------------*/
FoamFile
{
    format      ascii;
    class       volVectorField;
    location    "100";
    object      ddt0(hU);
}
// * * * * * * * * * * * * * * * * * * * * * * * * * * * * * * * * * * * * * //

dimensions      [0 2 -2 0 0 0 0];

internalField   nonuniform List<vector> 
400
(
(-1.23352e-09 6.68516e-10 0)
(1.24579e-09 2.74235e-10 0)
(2.35131e-09 1.08532e-09 0)
(2.31716e-09 -2.53713e-10 0)
(1.75823e-09 -3.08318e-11 0)
(1.03487e-09 -7.6564e-10 0)
(9.60689e-10 -8.43389e-10 0)
(-1.10639e-09 -2.55719e-09 0)
(-3.14671e-09 -1.33632e-09 0)
(-2.45846e-09 -9.14679e-10 0)
(-1.71838e-09 -5.2618e-11 0)
(2.36824e-10 1.36708e-09 0)
(8.66674e-10 2.90179e-10 0)
(2.42971e-09 9.05851e-10 0)
(3.09825e-09 2.41195e-10 0)
(3.66829e-09 8.00218e-10 0)
(5.11872e-09 1.53643e-10 0)
(2.26394e-09 -1.53251e-09 0)
(3.28284e-10 -4.88741e-10 0)
(1.96794e-09 -1.23627e-10 0)
(2.08485e-10 -3.09599e-10 0)
(2.86529e-10 7.56031e-10 0)
(1.32325e-09 2.24333e-09 0)
(1.19284e-09 -9.6571e-11 0)
(3.63069e-10 1.2313e-10 0)
(4.15839e-10 -1.46167e-09 0)
(-6.87598e-10 -3.72718e-09 0)
(-1.14464e-09 -5.63996e-09 0)
(-1.27431e-09 -4.05943e-09 0)
(-3.33851e-09 1.16431e-09 0)
(5.58344e-10 1.52367e-09 0)
(-1.46725e-09 5.0477e-09 0)
(-4.51864e-10 4.59202e-09 0)
(5.35237e-10 3.47542e-09 0)
(7.78688e-10 2.984e-09 0)
(3.09306e-09 2.7093e-09 0)
(3.37175e-09 3.39631e-10 0)
(2.076e-09 -2.46104e-09 0)
(9.88099e-10 -1.3767e-09 0)
(1.73815e-09 -1.49959e-10 0)
(2.53972e-09 -7.00451e-10 0)
(1.30148e-09 1.01363e-09 0)
(9.6165e-10 1.20507e-09 0)
(-1.94237e-10 2.31034e-10 0)
(-8.57244e-10 -4.3544e-11 0)
(-2.01178e-09 -2.70322e-09 0)
(-1.75929e-09 -6.70553e-09 0)
(-1.90557e-09 -5.3298e-09 0)
(2.22856e-09 -9.88588e-10 0)
(-1.16019e-09 4.40713e-09 0)
(-1.46201e-09 1.08072e-08 0)
(2.29494e-09 4.63256e-09 0)
(-5.54358e-09 1.23138e-08 0)
(-4.09866e-09 1.00366e-08 0)
(-2.78073e-09 7.31362e-09 0)
(-2.2784e-09 5.53442e-09 0)
(-6.36519e-10 2.42109e-09 0)
(1.23506e-09 4.75554e-10 0)
(1.5895e-09 2.00148e-10 0)
(1.80256e-09 4.18763e-10 0)
(2.1813e-09 1.58255e-09 0)
(1.70974e-09 1.48573e-09 0)
(5.17069e-10 -1.7433e-10 0)
(-4.243e-10 -3.67164e-10 0)
(-2.32696e-09 -1.46179e-09 0)
(-3.11586e-09 -5.26954e-09 0)
(-3.47739e-09 -4.59709e-09 0)
(3.05278e-09 -1.53857e-09 0)
(-1.38697e-09 1.14012e-08 0)
(1.07273e-08 -1.37038e-10 0)
(-9.17652e-09 1.09741e-08 0)
(1.74747e-09 6.83855e-09 0)
(5.65688e-09 2.45812e-09 0)
(-1.05469e-08 1.24097e-08 0)
(-8.36198e-09 1.08733e-08 0)
(-6.56356e-09 6.44417e-09 0)
(-5.44563e-09 4.06866e-09 0)
(-1.53696e-09 3.15502e-09 0)
(1.83311e-12 2.35685e-09 0)
(-5.82266e-11 8.61452e-10 0)
(5.01959e-10 2.39459e-09 0)
(1.05662e-09 1.73199e-09 0)
(-3.91758e-11 -1.36155e-10 0)
(-1.04382e-09 -1.20613e-09 0)
(-2.52309e-09 -3.47395e-09 0)
(-3.08074e-09 -3.59001e-09 0)
(-3.4597e-10 -2.64314e-10 0)
(5.81392e-09 1.22551e-08 0)
(1.77986e-09 1.61795e-09 0)
(-3.55249e-09 5.98912e-09 0)
(2.24597e-08 -1.54373e-08 0)
(-1.44176e-08 6.83697e-09 0)
(1.168e-08 -8.31895e-09 0)
(1.28876e-08 -7.2119e-09 0)
(-9.55519e-09 3.29229e-09 0)
(-1.23532e-08 4.51423e-09 0)
(-8.18458e-09 3.88324e-09 0)
(-4.41215e-09 4.53011e-09 0)
(-2.70883e-09 3.88947e-09 0)
(-2.44899e-09 1.49605e-09 0)
(-8.72373e-10 1.3079e-09 0)
(3.16921e-10 7.51115e-10 0)
(-1.00271e-09 -3.32605e-10 0)
(-1.44079e-09 -1.98723e-09 0)
(-1.62077e-09 -1.98409e-09 0)
(-1.01744e-09 9.20761e-10 0)
(6.93607e-09 8.3826e-09 0)
(-2.7585e-09 1.05805e-08 0)
(1.31947e-08 -9.9252e-09 0)
(-1.66548e-08 -4.08962e-09 0)
(9.94857e-09 -1.62088e-09 0)
(2.11032e-08 -3.3336e-08 0)
(-1.42061e-08 -7.16279e-09 0)
(1.60804e-08 -1.58412e-08 0)
(1.54201e-08 -1.30387e-08 0)
(-3.63642e-09 -3.72004e-09 0)
(-7.39488e-09 6.19318e-10 0)
(-4.45939e-09 2.75129e-09 0)
(-4.40894e-09 3.56566e-09 0)
(-5.65057e-09 1.66781e-09 0)
(-1.22879e-09 -2.0382e-10 0)
(-5.68815e-10 -9.84192e-10 0)
(-1.50907e-09 -1.77828e-09 0)
(-9.07303e-10 -1.69071e-09 0)
(1.26112e-10 1.67031e-09 0)
(4.1141e-09 6.49363e-09 0)
(2.83372e-09 7.76573e-09 0)
(2.83864e-09 -3.75226e-09 0)
(-1.47433e-08 4.96776e-10 0)
(3.96474e-08 -3.77891e-08 0)
(-5.66033e-08 1.36568e-09 0)
(-3.62002e-09 -2.08071e-08 0)
(3.10079e-08 -1.49104e-08 0)
(2.2952e-09 -4.14752e-09 0)
(1.23034e-08 -1.25905e-08 0)
(9.39675e-09 -1.1673e-08 0)
(1.04584e-09 -5.84655e-09 0)
(-2.72486e-10 -2.94873e-09 0)
(-1.93076e-09 -6.42139e-10 0)
(-5.5562e-09 2.48946e-10 0)
(-1.046e-09 -1.13186e-09 0)
(-1.39992e-09 -2.1973e-09 0)
(-1.45889e-09 -2.80856e-09 0)
(6.56958e-10 -3.69376e-10 0)
(2.87369e-09 4.34869e-09 0)
(2.3213e-09 7.57073e-09 0)
(1.79334e-09 -1.29035e-09 0)
(-1.54761e-09 -1.18966e-08 0)
(-1.83171e-08 -3.11099e-09 0)
(-2.4692e-08 3.28768e-08 0)
(-1.10446e-07 -6.75787e-09 0)
(-4.42651e-08 3.58543e-08 0)
(7.24467e-09 2.33399e-08 0)
(1.3979e-08 1.00677e-08 0)
(3.01684e-09 1.23687e-09 0)
(6.70329e-09 -1.01192e-08 0)
(6.20944e-09 -1.157e-08 0)
(5.00197e-09 -7.74635e-09 0)
(3.23713e-09 -4.45098e-09 0)
(-1.97705e-09 -1.31388e-09 0)
(-5.27767e-10 -1.27557e-09 0)
(-2.20796e-09 -2.16874e-09 0)
(-6.63541e-10 -1.70553e-09 0)
(2.65533e-09 1.06618e-09 0)
(3.98264e-09 3.85734e-09 0)
(-1.27219e-10 3.00853e-09 0)
(-5.54899e-09 -5.25149e-09 0)
(-3.9768e-09 -1.00169e-08 0)
(1.73171e-08 4.14938e-09 0)
(2.54844e-08 3.16097e-08 0)
(9.52519e-08 1.06096e-08 0)
(5.43415e-08 4.01605e-08 0)
(-8.74634e-09 2.26463e-08 0)
(-2.75898e-08 1.57445e-08 0)
(-1.94735e-08 9.5596e-09 0)
(-9.09023e-09 -3.6424e-10 0)
(1.02464e-09 -5.49826e-09 0)
(1.05759e-08 -4.50587e-09 0)
(8.18439e-09 -3.46371e-09 0)
(-5.94466e-10 -1.83029e-09 0)
(-2.70984e-10 -7.89056e-10 0)
(-2.11249e-09 -9.22338e-10 0)
(1.29849e-10 5.30419e-10 0)
(3.63108e-09 2.10708e-09 0)
(3.25846e-09 -1.94661e-10 0)
(-3.15105e-09 -1.76123e-09 0)
(-5.90568e-09 -1.4145e-09 0)
(-4.61622e-10 1.68887e-09 0)
(1.06361e-08 8.92217e-09 0)
(-2.9509e-08 -2.67837e-08 0)
(6.92329e-08 -8.77321e-09 0)
(-1.13399e-08 -1.08867e-08 0)
(-2.2415e-08 -1.61754e-08 0)
(-6.17232e-09 -1.12152e-09 0)
(-2.21344e-08 2.66148e-10 0)
(-1.47383e-08 5.05161e-09 0)
(4.5398e-09 5.96584e-09 0)
(8.20712e-09 3.87184e-09 0)
(6.96111e-09 8.29903e-10 0)
(7.67247e-09 -4.43545e-10 0)
(-2.1311e-10 -7.31424e-12 0)
(-1.42228e-09 6.67695e-10 0)
(8.55862e-10 1.93266e-09 0)
(2.52614e-09 1.43451e-09 0)
(1.71101e-09 -2.72531e-09 0)
(-1.68263e-09 -4.49802e-09 0)
(-3.97667e-09 3.98134e-09 0)
(2.5646e-09 8.74295e-09 0)
(-4.60917e-10 -6.60184e-09 0)
(-1.32839e-08 7.7525e-09 0)
(1.43992e-08 -1.21619e-07 0)
(8.29339e-09 -4.6372e-08 0)
(8.42343e-09 -7.46051e-10 0)
(-8.34304e-09 -1.3484e-08 0)
(-1.07924e-08 -6.09948e-09 0)
(-1.75802e-09 4.36693e-09 0)
(3.67121e-09 8.0781e-09 0)
(3.575e-09 6.37628e-09 0)
(1.80245e-09 2.92715e-09 0)
(1.56206e-09 8.3097e-10 0)
(-5.62064e-10 6.97166e-10 0)
(-3.47192e-10 1.84651e-09 0)
(7.23655e-10 1.93665e-09 0)
(9.92868e-10 -1.85087e-11 0)
(1.54339e-10 -3.44003e-09 0)
(5.72705e-10 -2.18355e-09 0)
(-4.57791e-10 1.83674e-09 0)
(9.51189e-10 5.09083e-09 0)
(2.57663e-09 -6.17648e-09 0)
(-9.88113e-08 -6.66255e-09 0)
(2.73234e-08 1.33616e-07 0)
(1.90764e-07 1.90722e-08 0)
(1.55115e-08 -1.41494e-08 0)
(-1.24921e-08 -1.23333e-08 0)
(4.37403e-09 -3.71105e-09 0)
(5.05799e-09 1.53726e-09 0)
(2.95332e-09 4.78252e-09 0)
(-1.01239e-10 4.29808e-09 0)
(-1.52709e-09 2.4791e-09 0)
(-1.07684e-09 6.7291e-10 0)
(-7.29343e-10 5.09527e-10 0)
(5.61564e-10 2.16974e-09 0)
(2.93278e-11 1.62274e-09 0)
(-1.02053e-09 -9.14475e-10 0)
(9.42036e-11 -3.03785e-09 0)
(1.16833e-09 -1.52125e-09 0)
(1.83419e-09 1.90509e-09 0)
(-3.90046e-09 -3.52579e-09 0)
(6.0704e-10 -1.46233e-09 0)
(9.88854e-08 -1.29862e-08 0)
(-1.55035e-08 1.47245e-07 0)
(-1.85468e-07 1.21374e-08 0)
(-3.29539e-08 -8.70575e-09 0)
(1.05577e-08 -4.12471e-09 0)
(8.33736e-09 -4.43954e-09 0)
(9.3659e-09 -4.11423e-10 0)
(6.4621e-09 2.1616e-09 0)
(2.17093e-10 1.95447e-09 0)
(-2.70788e-09 1.34157e-09 0)
(-2.3895e-09 4.92838e-10 0)
(3.40808e-11 -5.61516e-10 0)
(1.56156e-09 1.27645e-09 0)
(-5.92234e-10 1.95654e-09 0)
(-2.96739e-09 -8.60386e-12 0)
(-1.2002e-09 -2.02874e-09 0)
(2.45752e-09 -3.20001e-09 0)
(2.98079e-11 -2.35046e-11 0)
(-7.35805e-10 1.34056e-09 0)
(-7.04975e-09 -2.68458e-09 0)
(3.43386e-08 9.49184e-09 0)
(-5.0552e-08 -1.32257e-07 0)
(-1.74544e-08 -1.93248e-08 0)
(4.73908e-09 5.50557e-09 0)
(-7.36608e-09 -6.63386e-10 0)
(6.35964e-09 1.63399e-09 0)
(1.23168e-08 4.59661e-09 0)
(6.61337e-09 3.03042e-09 0)
(-7.23067e-10 4.66212e-10 0)
(-3.437e-09 1.93431e-10 0)
(-3.37365e-09 3.86507e-10 0)
(1.41201e-09 -1.11651e-09 0)
(2.755e-09 -1.74928e-10 0)
(-4.2383e-10 1.87225e-09 0)
(-4.26131e-09 1.94896e-09 0)
(-3.14791e-09 -2.80924e-10 0)
(1.71945e-09 -4.15352e-09 0)
(2.71862e-09 -4.51987e-09 0)
(-2.29551e-09 3.49893e-09 0)
(3.00603e-09 5.23948e-09 0)
(-6.85239e-09 1.44389e-09 0)
(4.06074e-09 -1.35106e-08 0)
(2.93002e-09 8.69578e-09 0)
(-1.18394e-08 -1.81835e-09 0)
(4.11008e-09 4.81306e-09 0)
(1.50302e-08 9.23426e-09 0)
(1.17864e-08 7.43882e-09 0)
(2.30979e-09 2.78809e-09 0)
(-4.11073e-09 -1.15475e-09 0)
(-5.34123e-09 -1.71311e-09 0)
(-4.93746e-09 -5.2535e-10 0)
(2.15635e-09 -1.14138e-10 0)
(3.11449e-09 -1.46187e-09 0)
(4.83546e-10 -3.05467e-10 0)
(-4.08171e-09 1.99287e-09 0)
(-4.58714e-09 2.33175e-09 0)
(-3.42766e-10 -2.03569e-09 0)
(3.38584e-09 -6.31798e-09 0)
(1.48951e-09 -2.81621e-09 0)
(8.15768e-10 6.83414e-09 0)
(1.73927e-10 2.78469e-09 0)
(3.61676e-09 1.25021e-08 0)
(-5.33178e-09 3.95791e-09 0)
(6.92711e-10 9.48065e-09 0)
(1.10116e-08 1.33598e-08 0)
(1.17325e-08 1.01041e-08 0)
(4.73193e-09 4.34801e-09 0)
(-4.25245e-09 -5.82051e-10 0)
(-8.16682e-09 -3.68286e-09 0)
(-7.12962e-09 -4.39002e-09 0)
(-4.58311e-09 -2.06689e-09 0)
(9.3332e-10 1.30416e-09 0)
(1.89603e-09 -1.63711e-09 0)
(8.99713e-10 -3.60351e-09 0)
(-1.81353e-09 -2.38752e-10 0)
(-4.07754e-09 3.65022e-09 0)
(-1.62904e-09 3.40721e-09 0)
(1.41592e-09 -2.43182e-09 0)
(2.56925e-09 -4.42693e-09 0)
(8.47217e-10 -1.42112e-09 0)
(2.67493e-09 1.17546e-09 0)
(1.55136e-09 -8.92785e-10 0)
(-8.88605e-10 1.12281e-09 0)
(3.84926e-09 7.22176e-09 0)
(5.68205e-09 6.59658e-09 0)
(3.41003e-09 1.5913e-09 0)
(-3.58003e-09 -3.66426e-09 0)
(-9.66639e-09 -5.33475e-09 0)
(-9.68348e-09 -5.11525e-09 0)
(-5.69922e-09 -5.02622e-09 0)
(-6.3487e-10 -2.43336e-09 0)
(-9.09248e-10 1.33487e-09 0)
(-4.68325e-10 -6.91164e-10 0)
(4.78212e-10 -4.17696e-09 0)
(5.26011e-10 -3.20281e-09 0)
(-8.26221e-10 2.50853e-09 0)
(-1.25876e-09 6.58256e-09 0)
(3.81167e-10 5.29004e-09 0)
(7.33869e-10 6.53935e-10 0)
(-2.95468e-10 -2.05453e-09 0)
(-1.51765e-09 -4.70551e-09 0)
(-1.06844e-09 -9.21502e-09 0)
(1.75321e-09 -7.04575e-09 0)
(1.98689e-09 -4.51322e-09 0)
(4.47774e-10 -5.16625e-09 0)
(-3.43344e-09 -8.61152e-09 0)
(-7.51523e-09 -1.03949e-08 0)
(-8.30158e-09 -7.76491e-09 0)
(-6.09141e-09 -4.1845e-09 0)
(-1.50307e-09 -2.10732e-09 0)
(4.25463e-09 -5.45045e-10 0)
(-1.07348e-09 9.28893e-10 0)
(-2.62141e-09 -3.85311e-11 0)
(-1.00772e-09 -2.13206e-09 0)
(1.44515e-09 -4.07991e-09 0)
(2.46545e-09 6.86199e-11 0)
(1.59994e-09 5.53884e-09 0)
(9.11391e-10 8.09366e-09 0)
(-3.84684e-10 5.92615e-09 0)
(-2.27389e-09 2.01139e-09 0)
(-4.03723e-09 -2.5892e-09 0)
(-2.87282e-09 -5.8086e-09 0)
(5.6496e-10 -7.15354e-09 0)
(1.24264e-09 -7.38718e-09 0)
(-1.47541e-09 -8.62837e-09 0)
(-4.1489e-09 -1.03624e-08 0)
(-3.62301e-09 -9.11029e-09 0)
(-1.54178e-09 -5.45232e-09 0)
(9.47785e-10 -1.59416e-09 0)
(4.65471e-09 1.63412e-09 0)
(6.92961e-09 1.6913e-09 0)
(-5.14893e-10 4.85984e-10 0)
(-4.27932e-09 1.00312e-11 0)
(-2.50545e-09 -5.0624e-10 0)
(1.31558e-09 -1.75095e-09 0)
(4.20104e-09 -5.49785e-10 0)
(4.18992e-09 2.04657e-09 0)
(2.08399e-09 3.56969e-09 0)
(-2.24396e-10 3.47032e-09 0)
(-3.46871e-09 1.8305e-09 0)
(-4.48152e-09 -1.27347e-10 0)
(-1.73378e-09 -1.38896e-09 0)
(1.31058e-09 -2.09344e-09 0)
(1.49867e-09 -2.68173e-09 0)
(-1.19907e-09 -3.59609e-09 0)
(-1.36065e-09 -4.01096e-09 0)
(1.24544e-09 -3.02347e-09 0)
(3.81833e-09 -1.53193e-09 0)
(6.31025e-09 1.36446e-11 0)
(8.37478e-09 1.548e-09 0)
(6.47658e-09 1.19607e-09 0)
)
;

boundaryField
{
    sides
    {
        type            calculated;
        value           nonuniform List<vector> 
40
(
(-5.14893e-10 0 0)
(-4.27932e-09 0 0)
(-2.50545e-09 0 0)
(1.31558e-09 0 0)
(4.20104e-09 0 0)
(4.18992e-09 0 0)
(2.08399e-09 0 0)
(-2.24396e-10 0 0)
(-3.46871e-09 0 0)
(-4.48152e-09 0 0)
(-1.73378e-09 0 0)
(1.31058e-09 0 0)
(1.49867e-09 0 0)
(-1.19907e-09 0 0)
(-1.36065e-09 0 0)
(1.24544e-09 0 0)
(3.81833e-09 0 0)
(6.31025e-09 0 0)
(8.37478e-09 0 0)
(6.47658e-09 0 0)
(-1.23352e-09 0 0)
(1.24579e-09 0 0)
(2.35131e-09 0 0)
(2.31716e-09 0 0)
(1.75823e-09 0 0)
(1.03487e-09 0 0)
(9.60689e-10 0 0)
(-1.10639e-09 0 0)
(-3.14671e-09 0 0)
(-2.45846e-09 0 0)
(-1.71838e-09 0 0)
(2.36824e-10 0 0)
(8.66674e-10 0 0)
(2.42971e-09 0 0)
(3.09825e-09 0 0)
(3.66829e-09 0 0)
(5.11872e-09 0 0)
(2.26394e-09 0 0)
(3.28284e-10 0 0)
(1.96794e-09 0 0)
)
;
    }
    inlet
    {
        type            calculated;
        value           uniform (0 0 0);
    }
    outlet
    {
        type            calculated;
        value           nonuniform List<vector> 
20
(
(1.96794e-09 -1.23627e-10 0)
(1.73815e-09 -1.49959e-10 0)
(1.80256e-09 4.18763e-10 0)
(-5.82266e-11 8.61452e-10 0)
(-2.44899e-09 1.49605e-09 0)
(-5.65057e-09 1.66781e-09 0)
(-5.5562e-09 2.48946e-10 0)
(-1.97705e-09 -1.31388e-09 0)
(-5.94466e-10 -1.83029e-09 0)
(7.67247e-09 -4.43545e-10 0)
(1.56206e-09 8.3097e-10 0)
(-1.07684e-09 6.7291e-10 0)
(-2.3895e-09 4.92838e-10 0)
(-3.37365e-09 3.86507e-10 0)
(-4.93746e-09 -5.2535e-10 0)
(-4.58311e-09 -2.06689e-09 0)
(-6.3487e-10 -2.43336e-09 0)
(4.25463e-09 -5.45045e-10 0)
(6.92961e-09 1.6913e-09 0)
(6.47658e-09 1.19607e-09 0)
)
;
    }
    frontAndBack
    {
        type            empty;
    }
}


// ************************************************************************* //
