/*--------------------------------*- C++ -*----------------------------------*\
  =========                 |
  \\      /  F ield         | OpenFOAM: The Open Source CFD Toolbox
   \\    /   O peration     | Website:  https://openfoam.org
    \\  /    A nd           | Version:  9
     \\/     M anipulation  |
\*---------------------------------------------------------------------------*/
FoamFile
{
    format      ascii;
    class       surfaceScalarField;
    location    "100";
    object      ddtCorrDdt0(phi);
}
// * * * * * * * * * * * * * * * * * * * * * * * * * * * * * * * * * * * * * //

dimensions      [0 4 -2 0 0 0 0];

internalField   nonuniform List<scalar> 
760
(
-1.02022e-12
-5.31566e-12
4.79931e-12
3.59752e-12
2.17738e-11
1.5628e-11
8.78402e-13
-1.98005e-12
1.34523e-11
2.78342e-12
4.50737e-12
-6.33304e-12
4.51192e-12
-5.85286e-12
-1.78409e-11
-2.70495e-11
-1.48271e-11
-1.04536e-11
-1.28759e-11
-2.37575e-12
-2.71455e-12
-3.15347e-12
6.02124e-12
2.28514e-11
6.65551e-12
3.14489e-12
1.749e-11
1.19135e-11
1.02988e-11
4.6793e-12
2.35234e-11
6.09193e-12
2.74531e-11
-3.5969e-12
-1.65455e-12
-1.28995e-11
3.85481e-12
-5.75127e-12
2.49873e-12
-6.65377e-12
-1.13513e-11
1.17076e-11
4.87079e-12
5.65516e-12
1.20821e-11
1.10962e-12
1.9175e-12
4.75279e-12
2.30096e-12
3.68052e-12
-5.86473e-12
-1.1044e-11
-2.9958e-11
-4.09797e-12
-3.0994e-11
-1.5057e-11
-2.8178e-11
-8.60132e-12
2.86461e-11
6.16219e-12
2.57986e-11
-1.34993e-11
3.78663e-11
5.7897e-12
4.82323e-11
2.01504e-12
2.9556e-11
9.80164e-12
3.01742e-11
1.67909e-11
2.38911e-11
1.19636e-11
4.86513e-12
8.33001e-12
-8.3651e-12
4.66481e-12
-3.26333e-12
2.187e-13
6.47037e-12
3.01527e-12
1.74375e-11
5.6424e-12
-6.63749e-12
3.13417e-13
-1.19508e-14
9.60499e-13
-3.17124e-12
-1.63668e-12
-1.49661e-11
-2.15565e-11
-1.225e-11
-3.97368e-11
-5.24544e-12
-2.37001e-11
2.44632e-11
2.31903e-11
-2.82665e-11
2.64184e-11
1.9096e-11
1.04713e-10
-1.52605e-11
1.2126e-11
-2.78483e-11
7.93506e-11
-1.15879e-11
7.29671e-11
-1.2098e-11
4.77661e-11
-1.00192e-11
3.79038e-11
-2.7442e-12
2.34922e-11
8.95942e-12
1.08684e-11
1.13207e-11
5.25558e-12
1.73143e-12
1.16307e-11
1.35849e-11
1.26965e-11
1.05488e-11
-6.33966e-12
-2.1197e-12
-1.59619e-13
-4.47858e-12
-1.51641e-11
-1.40276e-11
-3.127e-11
-3.43471e-11
-1.29969e-12
-8.44267e-12
1.5897e-11
8.85247e-12
2.03038e-11
1.02236e-10
3.2024e-11
-2.25683e-11
-7.2044e-11
-1.20813e-11
6.39636e-11
5.48217e-11
-3.02537e-11
-5.53956e-11
-4.94962e-11
4.41283e-11
-3.16172e-11
5.77723e-11
-3.43946e-11
2.66678e-11
-2.13402e-11
2.09571e-11
-3.40039e-13
2.46573e-11
2.63139e-12
1.8801e-11
6.36995e-12
1.18404e-11
1.13557e-11
1.87231e-12
8.85308e-12
-4.92281e-12
1.62856e-12
-1.04167e-12
-8.24405e-12
-3.10264e-11
-2.37658e-11
-1.03634e-11
-3.3223e-12
-2.30169e-12
6.68546e-12
9.90634e-11
1.24839e-10
-1.00536e-10
-9.00308e-11
1.16768e-10
1.06916e-10
-2.18699e-12
-1.94734e-10
-4.09938e-11
-6.64565e-12
1.11268e-10
-2.72949e-11
-5.83705e-12
-1.24894e-10
-6.35621e-11
-4.36893e-11
-5.20852e-11
9.55705e-12
-3.21159e-11
1.79832e-11
-1.32402e-11
2.36839e-11
-1.15029e-11
2.38464e-11
9.87373e-12
1.05659e-11
2.09859e-12
-5.18328e-12
2.07159e-14
-7.92633e-12
-4.20412e-12
-9.95916e-12
-1.26347e-11
-1.34346e-11
2.17412e-12
-1.30219e-11
1.34033e-11
1.02003e-10
8.5486e-11
-6.80694e-11
-2.80143e-11
8.54985e-11
-9.07061e-12
-1.48661e-10
-1.70232e-10
2.10694e-10
2.16678e-10
-6.02029e-11
-3.49421e-10
7.78161e-12
-3.35177e-11
1.11161e-10
-2.5541e-11
1.90678e-11
-9.83765e-11
-3.66007e-11
-5.86739e-11
-2.63554e-11
-1.90787e-11
-1.70418e-11
-1.38362e-12
-2.60134e-11
8.54264e-12
4.86727e-12
7.22266e-12
-4.93746e-12
-8.67277e-12
-1.09438e-11
-1.50285e-11
-1.41591e-11
2.80651e-12
-4.85829e-12
-1.10526e-11
1.65881e-11
4.82003e-11
5.57863e-11
3.78154e-11
-4.99511e-12
-7.19515e-11
-1.73036e-11
2.66475e-11
-7.56965e-12
1.08647e-10
-2.40649e-10
-3.7642e-10
-1.70959e-09
2.36185e-10
2.96957e-10
3.18479e-11
-9.41045e-11
3.39645e-11
-9.04957e-12
6.74782e-11
-1.7475e-11
2.11131e-11
-4.10275e-11
1.04385e-12
-4.94045e-11
8.39294e-13
-3.40271e-11
-2.12186e-11
-1.80358e-11
-4.29842e-12
-6.91522e-13
-8.11019e-12
-1.24471e-11
-1.39482e-11
-9.98894e-12
-1.49941e-11
1.3128e-11
3.1381e-12
2.27494e-11
3.1523e-11
4.63716e-12
1.99584e-11
1.37825e-11
-1.50589e-11
3.50056e-12
-9.5797e-11
-3.11878e-10
4.77057e-11
-1.28092e-10
6.41978e-10
-4.62264e-10
5.63749e-08
-1.13665e-10
-1.73597e-10
1.02297e-10
3.24011e-10
1.60949e-11
1.12333e-10
2.33358e-11
3.07973e-11
3.93071e-11
-3.90522e-12
2.64496e-11
-3.17431e-11
2.48396e-11
-3.9907e-11
2.58914e-12
-2.84606e-11
-7.40633e-12
-9.67405e-12
-6.5398e-12
-1.43996e-11
-1.00545e-11
-3.14983e-13
-2.33953e-12
3.4846e-11
9.84595e-12
1.93783e-11
8.66015e-12
-1.90876e-11
4.90416e-12
-6.34973e-11
-4.39758e-11
-1.93878e-11
3.10179e-11
3.45485e-10
5.85723e-11
5.49506e-11
-2.51736e-10
4.65513e-10
-1.35026e-09
1.55852e-10
2.95391e-10
-1.46837e-10
-1.41754e-10
-1.05415e-10
-2.21861e-11
-8.54621e-11
2.29607e-11
-1.67005e-11
3.23183e-11
3.99193e-11
2.14706e-09
4.86207e-11
7.64629e-13
1.95022e-11
-5.23886e-12
1.1207e-10
-1.65451e-11
-2.2529e-12
-9.15961e-12
4.25844e-13
9.90417e-12
8.51666e-12
3.35724e-11
1.11547e-11
2.08145e-11
-1.47297e-11
-6.4569e-11
-2.33916e-11
-4.48414e-11
3.76787e-11
9.70287e-11
1.1385e-11
-6.99986e-11
-1.16587e-11
3.85969e-11
-6.09161e-11
2.89452e-10
-1.61571e-11
-2.32761e-10
-2.58776e-10
5.26093e-12
-4.62791e-11
-8.85943e-11
-6.90194e-11
-1.12845e-10
-5.63145e-11
-2.27785e-11
1.12992e-11
4.1247e-11
4.27426e-11
4.13775e-11
3.63441e-11
3.27277e-11
1.61399e-11
5.7866e-12
-1.54223e-11
3.93811e-12
-2.79367e-12
7.60082e-12
1.53852e-11
1.18575e-11
1.56734e-11
1.43951e-12
5.31598e-12
-1.58899e-11
-2.19233e-11
-2.35076e-11
-4.05292e-11
1.94567e-11
8.01677e-11
6.38057e-11
-7.31592e-11
-7.96646e-11
-3.3638e-11
5.62249e-11
1.09143e-10
-1.32592e-09
2.37697e-11
-3.24315e-10
1.80551e-11
4.77284e-11
-7.12091e-11
-4.58723e-11
-2.91174e-11
-3.2593e-11
5.15718e-12
2.50118e-11
2.37885e-11
4.21966e-11
1.09006e-11
2.9498e-11
7.0902e-12
1.57427e-11
4.4173e-12
-9.4151e-12
5.55461e-12
1.88069e-12
1.21918e-11
9.95005e-12
6.81677e-12
2.3793e-13
-3.57693e-12
-5.49229e-15
-1.81348e-11
3.52956e-12
2.26286e-12
9.81427e-12
-9.69275e-12
-3.86343e-11
4.70661e-12
1.7977e-10
7.33577e-12
-1.19901e-09
-1.25704e-10
1.40896e-09
4.99206e-08
3.57806e-10
6.50663e-10
-7.86679e-11
-1.31799e-10
-4.06853e-12
-3.85252e-11
2.43241e-11
-7.11368e-12
2.11292e-11
4.20109e-12
9.58934e-12
9.15241e-12
-7.87856e-12
1.10275e-11
-7.73778e-12
8.07214e-12
1.6541e-12
6.73309e-13
1.44966e-13
-1.19992e-14
9.68138e-12
1.1331e-12
7.57308e-12
-1.56603e-11
-6.62905e-12
1.49855e-11
-1.09193e-11
1.50695e-11
-1.28616e-11
-6.39157e-12
1.52146e-11
-1.72571e-11
-3.22841e-11
-9.46241e-11
6.11303e-12
1.15756e-09
-2.23756e-11
-1.31267e-09
-9.43628e-10
-4.0358e-10
-3.97199e-10
5.69027e-12
7.27874e-11
4.93649e-11
1.64807e-11
4.56022e-11
-1.05434e-11
4.39964e-11
7.36306e-12
1.81237e-11
1.0134e-11
-1.037e-11
5.07752e-12
-1.56598e-11
3.02818e-12
2.12625e-12
1.23902e-11
-6.47577e-12
1.10414e-12
2.72258e-12
-1.20562e-11
1.15427e-11
-2.31087e-11
5.703e-12
8.7631e-12
-9.33507e-12
4.13764e-11
-1.8426e-11
-3.714e-11
-1.24666e-11
-2.67934e-11
4.58555e-11
4.39659e-11
-3.49009e-11
9.54553e-11
4.64923e-11
-3.34258e-10
-2.1718e-10
6.1122e-11
1.08654e-10
-4.65876e-11
-4.42981e-11
6.88116e-13
-2.85541e-11
6.12929e-11
2.02624e-11
4.96867e-11
3.214e-11
1.28937e-11
1.67564e-11
-1.23224e-11
-5.82849e-13
-1.91299e-11
-2.43228e-13
2.2604e-12
2.11874e-11
-5.74068e-12
9.44564e-12
-4.68417e-12
-1.6645e-11
8.2152e-12
-3.58843e-11
1.43115e-11
-1.3294e-12
4.46824e-12
3.82073e-11
-2.63286e-11
7.28643e-12
-3.08942e-11
-5.40694e-11
1.91115e-12
5.30056e-11
6.67908e-11
-6.78986e-11
-2.13811e-11
8.19324e-11
-2.68341e-10
-6.3129e-11
-7.53841e-12
-2.80964e-11
2.37708e-11
6.2881e-11
6.07448e-11
7.95335e-11
5.9819e-11
3.14224e-11
3.59091e-11
-1.06238e-11
1.02326e-11
-2.08286e-11
-9.57617e-12
-2.53542e-11
-1.34639e-11
-5.38546e-12
2.01737e-11
4.22129e-12
1.87921e-11
-1.01109e-11
-1.10425e-11
-1.03343e-11
-3.80809e-11
7.19536e-12
-2.32601e-11
1.77597e-11
2.97702e-11
1.06687e-12
2.33872e-11
-3.50904e-11
-8.06189e-12
-2.79707e-11
-8.86787e-12
9.8156e-12
2.83055e-11
4.37656e-11
-4.19398e-12
4.90709e-11
-3.25367e-11
3.39207e-11
3.35766e-11
7.26482e-11
6.72719e-11
6.96492e-11
4.95154e-11
3.93053e-11
-4.70069e-12
9.01636e-12
-3.94694e-11
-1.08759e-11
-3.39716e-11
-2.31113e-11
-2.67271e-11
-2.80916e-11
-1.38603e-11
5.7948e-12
9.11957e-12
1.59418e-11
-6.35994e-12
3.30262e-12
-2.63623e-11
-2.54159e-11
-8.38338e-12
-2.83422e-11
2.02966e-11
3.44249e-12
3.20403e-11
2.54254e-11
7.07505e-12
7.88285e-12
-2.12646e-11
-4.51656e-13
-2.56988e-11
2.51653e-11
-1.80755e-11
-1.13991e-11
-2.44471e-11
7.20159e-12
-7.28404e-12
2.47248e-11
8.86336e-12
2.70876e-11
2.9203e-12
4.49593e-12
-2.01449e-11
-3.7711e-11
-4.13029e-11
-5.59179e-11
-3.69453e-11
-3.80746e-11
-2.5046e-11
-1.2483e-11
-2.22308e-11
-1.09109e-11
-8.86546e-12
3.8469e-12
-2.37811e-12
-6.14181e-13
1.60369e-11
-1.71828e-11
-2.9339e-12
-2.34307e-11
-1.4713e-11
9.35322e-12
-8.75222e-12
3.85323e-11
1.12832e-11
4.61946e-11
6.81634e-12
1.90503e-11
-6.45985e-12
-8.31026e-12
-1.18863e-11
-3.31987e-11
3.58858e-12
-4.53857e-11
1.38171e-11
-4.60516e-11
6.12123e-12
-4.51419e-11
-8.95028e-12
-4.97872e-11
-2.81229e-11
-6.38771e-11
-3.87724e-11
-6.24691e-11
-3.93039e-11
-4.16456e-11
-2.53698e-11
-1.88356e-11
9.2861e-12
-2.38492e-12
3.09131e-12
-1.48643e-11
1.80413e-12
-1.64348e-11
1.53841e-13
7.12571e-12
-3.77149e-12
1.87756e-11
-1.79426e-11
6.2659e-12
-3.25904e-12
1.97986e-12
2.45115e-11
1.23639e-12
3.78708e-11
-2.04063e-13
3.21285e-11
-2.14793e-11
1.09638e-11
-2.45563e-11
-1.06316e-11
-5.84106e-13
-2.25465e-11
1.27475e-11
-3.56704e-11
2.24261e-14
-3.6757e-11
-2.21783e-11
-4.35509e-11
-2.09686e-11
-4.73772e-11
-7.40922e-12
-3.76073e-11
-2.40547e-12
-2.39121e-11
6.59496e-12
-8.16203e-12
3.04287e-11
9.86258e-12
1.06231e-11
-2.08182e-11
-2.11686e-11
-6.02637e-12
2.61037e-11
2.45668e-11
1.26352e-11
3.54963e-12
-7.01568e-12
-2.64597e-11
-2.30404e-11
3.32458e-12
1.86078e-11
-5.38396e-13
-1.70482e-11
1.57676e-13
1.94271e-11
2.47852e-11
3.2455e-11
3.82321e-11
)
;

boundaryField
{
    sides
    {
        type            calculated;
        value           uniform 0;
    }
    inlet
    {
        type            calculated;
        value           uniform 0;
    }
    outlet
    {
        type            calculated;
        value           nonuniform List<scalar> 
20
(
1.69632e-11
1.32779e-11
7.44446e-12
-3.73854e-12
-1.74408e-11
-3.61007e-11
-3.67372e-11
-1.85092e-11
-9.03384e-12
4.31584e-11
1.1471e-11
-2.48261e-12
-8.99598e-12
-1.74316e-11
-3.1513e-11
-2.99594e-11
-1.91219e-12
3.23991e-11
4.58047e-11
3.75916e-11
)
;
    }
    frontAndBack
    {
        type            empty;
        value           nonuniform List<scalar> 0();
    }
}


// ************************************************************************* //
