/*--------------------------------*- C++ -*----------------------------------*\
  =========                 |
  \\      /  F ield         | OpenFOAM: The Open Source CFD Toolbox
   \\    /   O peration     | Website:  https://openfoam.org
    \\  /    A nd           | Version:  9
     \\/     M anipulation  |
\*---------------------------------------------------------------------------*/
FoamFile
{
    format      ascii;
    class       volScalarField;
    location    "100";
    object      hTotal;
}
// * * * * * * * * * * * * * * * * * * * * * * * * * * * * * * * * * * * * * //

dimensions      [0 1 0 0 0 0 0];

internalField   nonuniform List<scalar> 
400
(
0.0100004
0.0100003
0.0100002
0.0100001
0.00999993
0.00999972
0.00999948
0.00999925
0.00999904
0.00999887
0.00999878
0.00999879
0.00999891
0.00999912
0.00999939
0.00999966
0.00999988
0.01
0.0100001
0.01
0.0100003
0.0100003
0.0100002
0.01
0.00999985
0.00999962
0.00999937
0.0099991
0.00999885
0.00999865
0.00999854
0.00999857
0.00999872
0.00999897
0.00999928
0.00999957
0.00999979
0.00999991
0.00999997
0.00999999
0.0100003
0.0100003
0.0100002
0.01
0.00999985
0.00999961
0.00999932
0.00999901
0.00999871
0.00999846
0.00999832
0.00999833
0.00999851
0.00999885
0.00999925
0.00999964
0.00999992
0.0100001
0.0100001
0.01
0.0100004
0.0100003
0.0100002
0.0100001
0.00999989
0.00999961
0.00999927
0.00999887
0.00999845
0.00999808
0.00999785
0.00999788
0.00999819
0.00999871
0.00999929
0.00999973
0.00999995
0.00999999
0.00999996
0.00999996
0.0100005
0.0100004
0.0100004
0.0100002
0.00999999
0.00999968
0.00999926
0.00999873
0.00999814
0.00999756
0.00999717
0.00999717
0.00999768
0.00999857
0.00999951
0.0100002
0.0100004
0.0100003
0.0100001
0.00999999
0.0100006
0.0100006
0.0100005
0.0100004
0.0100002
0.00999986
0.00999932
0.00999859
0.00999774
0.0099969
0.00999632
0.00999628
0.00999705
0.00999842
0.00999973
0.0100004
0.0100005
0.0100002
0.00999992
0.00999991
0.0100008
0.0100008
0.0100007
0.0100007
0.0100005
0.0100002
0.00999965
0.00999865
0.00999715
0.00999539
0.00999414
0.00999454
0.0099967
0.00999948
0.0100013
0.0100015
0.0100008
0.01
0.00999973
0.00999987
0.0100009
0.0100009
0.010001
0.0100011
0.010001
0.0100008
0.0100003
0.00999927
0.00999739
0.0099943
0.00999039
0.00999021
0.00999449
0.0100002
0.0100033
0.0100031
0.0100013
0.00999985
0.00999949
0.00999983
0.010001
0.0100011
0.0100013
0.0100015
0.0100018
0.0100019
0.0100014
0.00999949
0.00999549
0.00998973
0.0099869
0.00998976
0.00999803
0.0100037
0.0100044
0.0100024
0.0100003
0.00999935
0.00999944
0.00999988
0.010001
0.0100012
0.0100014
0.0100019
0.0100026
0.010004
0.0100059
0.0100078
0.0100049
0.00997845
0.00995243
0.00997583
0.0100088
0.0100178
0.0100104
0.0100023
0.00999885
0.00999891
0.00999978
0.0100002
0.0100009
0.0100011
0.0100013
0.0100018
0.0100026
0.010004
0.0100058
0.0100078
0.0100048
0.00997844
0.00995241
0.00997581
0.0100088
0.0100177
0.0100104
0.0100023
0.00999885
0.00999889
0.00999975
0.0100001
0.0100008
0.0100009
0.0100011
0.0100013
0.0100016
0.0100017
0.0100012
0.00999929
0.00999531
0.00998956
0.0099865
0.0099896
0.00999792
0.0100036
0.0100043
0.0100023
0.0100002
0.00999932
0.00999945
0.00999989
0.0100006
0.0100006
0.0100007
0.0100007
0.0100007
0.0100005
0.01
0.00999898
0.00999711
0.00999402
0.00999037
0.00998996
0.00999423
0.00999994
0.0100031
0.0100029
0.0100011
0.00999977
0.00999946
0.00999982
0.0100003
0.0100003
0.0100003
0.0100002
0.0100001
0.00999978
0.00999921
0.00999822
0.00999671
0.00999495
0.00999373
0.00999414
0.00999634
0.00999918
0.0100011
0.0100013
0.0100006
0.00999989
0.00999963
0.00999983
0.01
0.00999998
0.00999992
0.0099998
0.0099996
0.00999927
0.00999875
0.00999804
0.0099972
0.00999639
0.00999583
0.00999582
0.00999664
0.00999804
0.00999939
0.0100001
0.0100002
0.00999998
0.00999981
0.00999988
0.00999974
0.0099997
0.00999961
0.00999947
0.00999927
0.00999896
0.00999854
0.00999804
0.00999747
0.00999691
0.00999654
0.00999659
0.00999713
0.00999806
0.00999905
0.00999974
0.01
0.00999998
0.0099999
0.00999993
0.0099995
0.00999946
0.00999936
0.00999922
0.00999902
0.00999876
0.00999842
0.00999804
0.00999765
0.00999732
0.00999715
0.0099972
0.00999755
0.00999812
0.00999877
0.00999931
0.00999963
0.00999977
0.00999983
0.00999992
0.00999931
0.00999926
0.00999917
0.00999903
0.00999884
0.00999861
0.00999834
0.00999804
0.00999775
0.00999751
0.0099974
0.00999746
0.00999771
0.00999811
0.00999859
0.00999904
0.00999939
0.00999963
0.00999979
0.00999992
0.00999915
0.00999911
0.00999903
0.00999889
0.00999872
0.00999851
0.00999828
0.00999804
0.00999783
0.00999767
0.0099976
0.00999765
0.00999784
0.00999815
0.00999855
0.00999895
0.00999929
0.00999956
0.00999976
0.00999992
0.00999901
0.00999897
0.00999888
0.00999875
0.00999858
0.00999838
0.00999816
0.00999794
0.00999775
0.00999761
0.00999756
0.00999763
0.0099978
0.00999808
0.00999843
0.00999879
0.00999912
0.00999941
0.00999965
0.00999987
)
;

boundaryField
{
    sides
    {
        type            calculated;
        value           nonuniform List<scalar> 
40
(
0.00999901
0.00999897
0.00999888
0.00999875
0.00999858
0.00999838
0.00999816
0.00999794
0.00999775
0.00999761
0.00999756
0.00999763
0.0099978
0.00999808
0.00999843
0.00999879
0.00999912
0.00999941
0.00999965
0.00999987
0.0100004
0.0100003
0.0100002
0.0100001
0.00999993
0.00999972
0.00999948
0.00999925
0.00999904
0.00999887
0.00999878
0.00999879
0.00999891
0.00999912
0.00999939
0.00999966
0.00999988
0.01
0.0100001
0.01
)
;
    }
    inlet
    {
        type            calculated;
        value           nonuniform List<scalar> 
20
(
0.0100004
0.0100003
0.0100003
0.0100004
0.0100005
0.0100006
0.0100008
0.0100009
0.010001
0.010001
0.0100009
0.0100008
0.0100006
0.0100003
0.01
0.00999974
0.0099995
0.00999931
0.00999915
0.00999901
)
;
    }
    outlet
    {
        type            calculated;
        value           uniform 0.01;
    }
    frontAndBack
    {
        type            empty;
    }
}


// ************************************************************************* //
