/*--------------------------------*- C++ -*----------------------------------*\
  =========                 |
  \\      /  F ield         | OpenFOAM: The Open Source CFD Toolbox
   \\    /   O peration     | Website:  https://openfoam.org
    \\  /    A nd           | Version:  9
     \\/     M anipulation  |
\*---------------------------------------------------------------------------*/
FoamFile
{
    format      ascii;
    class       volVectorField;
    location    "100";
    object      hU;
}
// * * * * * * * * * * * * * * * * * * * * * * * * * * * * * * * * * * * * * //

dimensions      [0 2 -1 0 0 0 0];

internalField   nonuniform List<vector> 
400
(
(0.001 -2.4117e-08 0)
(0.00100004 -7.06126e-08 0)
(0.00100012 -1.13229e-07 0)
(0.00100024 -1.52407e-07 0)
(0.00100039 -1.87244e-07 0)
(0.00100058 -2.16717e-07 0)
(0.00100078 -2.37029e-07 0)
(0.00100099 -2.4573e-07 0)
(0.00100118 -2.36765e-07 0)
(0.00100133 -2.1167e-07 0)
(0.0010014 -1.68856e-07 0)
(0.0010014 -1.28616e-07 0)
(0.00100129 -9.91624e-08 0)
(0.00100111 -9.33135e-08 0)
(0.00100087 -1.00022e-07 0)
(0.00100065 -1.35813e-07 0)
(0.00100044 -1.56584e-07 0)
(0.00100034 -2.01208e-07 0)
(0.00100026 -1.88746e-07 0)
(0.00100033 -2.68528e-07 0)
(0.001 -2.66355e-08 0)
(0.00100005 -7.89784e-08 0)
(0.00100013 -1.28244e-07 0)
(0.00100026 -1.74059e-07 0)
(0.00100042 -2.13173e-07 0)
(0.00100062 -2.40285e-07 0)
(0.00100084 -2.4637e-07 0)
(0.00100108 -2.2145e-07 0)
(0.0010013 -1.55764e-07 0)
(0.00100147 -4.83922e-08 0)
(0.00100156 9.34229e-08 0)
(0.00100154 2.47644e-07 0)
(0.00100141 3.89606e-07 0)
(0.00100119 4.76438e-07 0)
(0.00100093 5.0458e-07 0)
(0.00100067 4.5145e-07 0)
(0.00100048 3.78123e-07 0)
(0.00100036 2.56737e-07 0)
(0.00100033 2.04867e-07 0)
(0.00100029 8.08527e-08 0)
(0.001 -5.27481e-08 0)
(0.00100004 -1.59283e-07 0)
(0.00100013 -2.66911e-07 0)
(0.00100026 -3.7362e-07 0)
(0.00100043 -4.73345e-07 0)
(0.00100064 -5.55636e-07 0)
(0.0010009 -6.04576e-07 0)
(0.00100117 -5.99063e-07 0)
(0.00100143 -5.19055e-07 0)
(0.00100164 -3.51878e-07 0)
(0.00100176 -1.08995e-07 0)
(0.00100176 1.63366e-07 0)
(0.00100159 4.03164e-07 0)
(0.0010013 5.2101e-07 0)
(0.00100095 4.99874e-07 0)
(0.00100062 3.53841e-07 0)
(0.00100037 2.02921e-07 0)
(0.00100026 4.58048e-08 0)
(0.00100022 -3.59454e-09 0)
(0.0010003 -1.17348e-07 0)
(0.001 -7.3734e-08 0)
(0.00100004 -2.22568e-07 0)
(0.00100013 -3.75004e-07 0)
(0.00100026 -5.30394e-07 0)
(0.00100045 -6.80535e-07 0)
(0.00100069 -8.10466e-07 0)
(0.001001 -8.90166e-07 0)
(0.00100134 -8.86553e-07 0)
(0.00100171 -7.55012e-07 0)
(0.00100203 -4.74532e-07 0)
(0.00100222 -2.12028e-08 0)
(0.00100219 4.94622e-07 0)
(0.00100192 9.38548e-07 0)
(0.00100146 1.14179e-06 0)
(0.00100097 1.0562e-06 0)
(0.00100058 7.43784e-07 0)
(0.00100041 4.24018e-07 0)
(0.00100035 1.69989e-07 0)
(0.0010004 1.01822e-07 0)
(0.00100035 2.10754e-10 0)
(0.001 -9.10093e-08 0)
(0.00100004 -2.78107e-07 0)
(0.00100012 -4.771e-07 0)
(0.00100025 -6.94046e-07 0)
(0.00100044 -9.21017e-07 0)
(0.00100072 -1.13987e-06 0)
(0.00100109 -1.29944e-06 0)
(0.00100155 -1.33625e-06 0)
(0.00100207 -1.17401e-06 0)
(0.00100257 -7.77058e-07 0)
(0.0010029 -1.6995e-07 0)
(0.00100288 5.80572e-07 0)
(0.00100244 1.23158e-06 0)
(0.00100167 1.51265e-06 0)
(0.00100086 1.37676e-06 0)
(0.00100031 9.65811e-07 0)
(0.00100013 5.81979e-07 0)
(0.00100021 3.14601e-07 0)
(0.00100036 2.62207e-07 0)
(0.00100043 1.67893e-07 0)
(0.001 -1.03141e-07 0)
(0.00100003 -3.1846e-07 0)
(0.00100009 -5.62295e-07 0)
(0.00100019 -8.45096e-07 0)
(0.00100038 -1.17336e-06 0)
(0.00100068 -1.52546e-06 0)
(0.00100115 -1.85858e-06 0)
(0.00100179 -2.05225e-06 0)
(0.00100254 -1.91106e-06 0)
(0.00100326 -1.19934e-06 0)
(0.00100377 8.36922e-08 0)
(0.00100378 1.54068e-06 0)
(0.00100309 2.43343e-06 0)
(0.00100192 2.30422e-06 0)
(0.00100082 1.43004e-06 0)
(0.00100019 4.9301e-07 0)
(0.00100017 1.38599e-08 0)
(0.00100037 -8.48463e-08 0)
(0.00100064 6.0661e-08 0)
(0.00100054 5.0153e-08 0)
(0.001 -1.02175e-07 0)
(0.001 -3.33312e-07 0)
(0.00100002 -6.02287e-07 0)
(0.00100008 -9.62793e-07 0)
(0.00100021 -1.39312e-06 0)
(0.00100048 -1.94621e-06 0)
(0.001001 -2.4883e-06 0)
(0.00100188 -3.08365e-06 0)
(0.00100321 -3.23348e-06 0)
(0.00100473 -2.88234e-06 0)
(0.00100573 -6.67171e-07 0)
(0.00100536 2.5536e-06 0)
(0.0010035 4.82623e-06 0)
(0.00100112 4.73542e-06 0)
(0.000999609 3.02706e-06 0)
(0.000999371 1.26334e-06 0)
(0.00100001 4.31116e-07 0)
(0.00100056 3.26988e-07 0)
(0.00100093 5.62412e-07 0)
(0.00100066 5.34093e-07 0)
(0.000999996 -9.20262e-08 0)
(0.000999968 -2.88516e-07 0)
(0.000999907 -5.77514e-07 0)
(0.000999876 -9.57675e-07 0)
(0.000999878 -1.57803e-06 0)
(0.0010001 -2.34449e-06 0)
(0.0010005 -3.40216e-06 0)
(0.00100152 -4.12595e-06 0)
(0.00100308 -4.37453e-06 0)
(0.00100602 -2.54961e-06 0)
(0.00100909 7.48227e-07 0)
(0.00100914 4.26713e-06 0)
(0.0010055 4.71882e-06 0)
(0.00100074 2.78147e-06 0)
(0.000998151 7.33932e-07 0)
(0.000998275 -2.76056e-07 0)
(0.000999798 -2.86651e-07 0)
(0.00100088 -9.79332e-09 0)
(0.00100133 2.12091e-07 0)
(0.00100085 1.02824e-07 0)
(0.000999995 -4.87803e-08 0)
(0.000999915 -2.03601e-07 0)
(0.000999756 -3.86898e-07 0)
(0.000999531 -7.35528e-07 0)
(0.000999288 -1.33879e-06 0)
(0.000999211 -2.48127e-06 0)
(0.000999706 -4.68786e-06 0)
(0.00100139 -8.06999e-06 0)
(0.00100491 -1.32868e-05 0)
(0.00100957 -1.49126e-05 0)
(0.0010119 3.83806e-06 0)
(0.00100894 1.87303e-05 0)
(0.00100221 1.57817e-05 0)
(0.000997564 5.74159e-06 0)
(0.000996884 -3.16555e-07 0)
(0.000998461 -1.2642e-06 0)
(0.00100027 -9.48374e-08 0)
(0.001001 6.34346e-07 0)
(0.00100107 6.51643e-07 0)
(0.00100054 2.4367e-07 0)
(0.000999804 -1.96039e-08 0)
(0.00100017 -6.65118e-08 0)
(0.000999215 -1.51409e-07 0)
(0.000999904 -2.48678e-07 0)
(0.000997522 -5.92445e-07 0)
(0.000998843 -1.13184e-06 0)
(0.000993346 -2.88415e-06 0)
(0.00099753 -5.59281e-06 0)
(0.000991667 -1.15412e-05 0)
(0.000915831 -1.27067e-05 0)
(0.000951471 2.76652e-07 0)
(0.00101022 1.46392e-05 0)
(0.000990947 1.30839e-05 0)
(0.000983973 5.14103e-06 0)
(0.000989584 1.94418e-07 0)
(0.000996281 -7.80886e-07 0)
(0.000999238 -1.10928e-07 0)
(0.000999413 2.48462e-07 0)
(0.000998648 1.74124e-07 0)
(0.000998504 -1.84986e-07 0)
(0.000999804 1.29951e-08 0)
(0.00100017 4.60321e-08 0)
(0.000999215 1.17774e-07 0)
(0.000999903 2.00317e-07 0)
(0.000997519 5.2916e-07 0)
(0.000998838 1.05053e-06 0)
(0.000993338 2.78624e-06 0)
(0.000997519 5.47472e-06 0)
(0.00099165 1.13981e-05 0)
(0.000915808 1.25503e-05 0)
(0.00095143 -4.73974e-07 0)
(0.0010102 -1.49085e-05 0)
(0.000990946 -1.34079e-05 0)
(0.000983965 -5.53552e-06 0)
(0.000989566 -6.47747e-07 0)
(0.000996244 2.49141e-07 0)
(0.000999196 -4.71708e-07 0)
(0.000999367 -1.00198e-06 0)
(0.000998633 -9.88642e-07 0)
(0.000998454 -8.888e-07 0)
(0.000999995 4.2475e-08 0)
(0.000999915 1.83973e-07 0)
(0.000999755 3.53863e-07 0)
(0.00099953 6.87725e-07 0)
(0.000999285 1.27632e-06 0)
(0.00099921 2.40088e-06 0)
(0.000999702 4.58897e-06 0)
(0.00100139 7.94354e-06 0)
(0.0010049 1.31318e-05 0)
(0.00100958 1.47178e-05 0)
(0.00101188 -4.06391e-06 0)
(0.0010089 -1.90055e-05 0)
(0.00100214 -1.60969e-05 0)
(0.000997477 -6.12333e-06 0)
(0.000996815 -8.40502e-08 0)
(0.000998401 7.75871e-07 0)
(0.00100017 -4.26806e-07 0)
(0.00100085 -1.30487e-06 0)
(0.00100088 -1.37932e-06 0)
(0.00100037 -1.25085e-06 0)
(0.000999996 8.60916e-08 0)
(0.000999968 2.70062e-07 0)
(0.000999905 5.45268e-07 0)
(0.000999871 9.10625e-07 0)
(0.00099987 1.51353e-06 0)
(0.00100008 2.26101e-06 0)
(0.00100048 3.29369e-06 0)
(0.00100149 3.99104e-06 0)
(0.00100303 4.21077e-06 0)
(0.00100594 2.36285e-06 0)
(0.00100902 -9.77268e-07 0)
(0.00100906 -4.54023e-06 0)
(0.00100543 -5.02057e-06 0)
(0.00100067 -3.12998e-06 0)
(0.000998059 -1.13173e-06 0)
(0.000998135 -2.5144e-07 0)
(0.000999622 -3.22609e-07 0)
(0.00100064 -7.41496e-07 0)
(0.00100106 -9.67264e-07 0)
(0.00100055 -1.07397e-06 0)
(0.001 9.6475e-08 0)
(0.001 3.15511e-07 0)
(0.00100002 5.7194e-07 0)
(0.00100007 9.18023e-07 0)
(0.0010002 1.33368e-06 0)
(0.00100046 1.87035e-06 0)
(0.00100097 2.39833e-06 0)
(0.00100185 2.97511e-06 0)
(0.00100318 3.11173e-06 0)
(0.00100469 2.7329e-06 0)
(0.00100568 5.06928e-07 0)
(0.00100527 -2.75206e-06 0)
(0.00100338 -5.07583e-06 0)
(0.00100096 -5.06966e-06 0)
(0.000999411 -3.44875e-06 0)
(0.000999123 -1.79377e-06 0)
(0.000999744 -1.021e-06 0)
(0.00100025 -1.05942e-06 0)
(0.00100061 -1.30739e-06 0)
(0.00100024 -1.51566e-06 0)
(0.001 9.77649e-08 0)
(0.00100003 3.02339e-07 0)
(0.00100008 5.35556e-07 0)
(0.00100018 8.06248e-07 0)
(0.00100036 1.12184e-06 0)
(0.00100066 1.45886e-06 0)
(0.00100112 1.77729e-06 0)
(0.00100174 1.95073e-06 0)
(0.00100248 1.78325e-06 0)
(0.00100317 1.03568e-06 0)
(0.00100366 -2.79563e-07 0)
(0.00100363 -1.78018e-06 0)
(0.00100292 -2.70888e-06 0)
(0.00100171 -2.63002e-06 0)
(0.00100058 -1.77765e-06 0)
(0.000999905 -8.94872e-07 0)
(0.000999858 -4.27359e-07 0)
(0.000999981 -4.48496e-07 0)
(0.00100022 -6.16921e-07 0)
(0.00100001 -8.48789e-07 0)
(0.001 8.60947e-08 0)
(0.00100004 2.63958e-07 0)
(0.00100011 4.53913e-07 0)
(0.00100024 6.61706e-07 0)
(0.00100043 8.78176e-07 0)
(0.0010007 1.08436e-06 0)
(0.00100106 1.22915e-06 0)
(0.0010015 1.25207e-06 0)
(0.001002 1.07373e-06 0)
(0.00100248 6.56993e-07 0)
(0.0010028 1.89451e-08 0)
(0.00100274 -7.69797e-07 0)
(0.00100227 -1.44887e-06 0)
(0.00100146 -1.77302e-06 0)
(0.00100062 -1.66738e-06 0)
(0.00100001 -1.34832e-06 0)
(0.000999793 -1.03e-06 0)
(0.000999764 -9.37668e-07 0)
(0.000999884 -9.45878e-07 0)
(0.000999768 -1.10867e-06 0)
(0.001 6.95235e-08 0)
(0.00100004 2.09771e-07 0)
(0.00100012 3.53521e-07 0)
(0.00100025 5.00928e-07 0)
(0.00100043 6.44202e-07 0)
(0.00100066 7.66169e-07 0)
(0.00100095 8.37601e-07 0)
(0.00100129 8.25552e-07 0)
(0.00100163 6.91041e-07 0)
(0.00100191 4.06077e-07 0)
(0.00100206 -4.75888e-08 0)
(0.001002 -5.76523e-07 0)
(0.00100171 -1.03556e-06 0)
(0.0010012 -1.2813e-06 0)
(0.00100065 -1.22997e-06 0)
(0.00100016 -9.95171e-07 0)
(0.000999913 -7.02809e-07 0)
(0.000999739 -5.57278e-07 0)
(0.000999752 -4.87425e-07 0)
(0.000999561 -5.98314e-07 0)
(0.001 5.08441e-08 0)
(0.00100004 1.50161e-07 0)
(0.00100012 2.46308e-07 0)
(0.00100025 3.37827e-07 0)
(0.00100041 4.21026e-07 0)
(0.00100062 4.83621e-07 0)
(0.00100086 5.09533e-07 0)
(0.00100112 4.74224e-07 0)
(0.00100137 3.62105e-07 0)
(0.00100157 1.55945e-07 0)
(0.00100167 -1.17814e-07 0)
(0.00100161 -4.22375e-07 0)
(0.00100139 -6.82608e-07 0)
(0.00100103 -8.43234e-07 0)
(0.00100064 -8.51224e-07 0)
(0.00100022 -7.71793e-07 0)
(0.00099995 -6.38542e-07 0)
(0.00099969 -5.96706e-07 0)
(0.000999629 -5.60989e-07 0)
(0.000999388 -6.84345e-07 0)
(0.001 3.50676e-08 0)
(0.00100004 1.05047e-07 0)
(0.00100011 1.74289e-07 0)
(0.00100023 2.40768e-07 0)
(0.00100038 3.01222e-07 0)
(0.00100056 3.49606e-07 0)
(0.00100077 3.76234e-07 0)
(0.00100097 3.70303e-07 0)
(0.00100116 3.21289e-07 0)
(0.0010013 2.24931e-07 0)
(0.00100136 8.61227e-08 0)
(0.00100131 -7.107e-08 0)
(0.00100115 -2.06795e-07 0)
(0.00100086 -2.97852e-07 0)
(0.00100054 -3.12825e-07 0)
(0.00100017 -2.82134e-07 0)
(0.000999902 -2.02712e-07 0)
(0.000999614 -1.68358e-07 0)
(0.000999518 -1.17803e-07 0)
(0.00099925 -1.97821e-07 0)
(0.001 -3.86571e-09 0)
(0.00100004 -9.7819e-09 0)
(0.00100012 -1.30174e-08 0)
(0.00100024 -1.51718e-08 0)
(0.00100039 -1.76134e-08 0)
(0.00100056 -2.30516e-08 0)
(0.00100075 -3.34561e-08 0)
(0.00100094 -5.27648e-08 0)
(0.00100111 -8.10937e-08 0)
(0.00100123 -1.21701e-07 0)
(0.00100128 -1.69543e-07 0)
(0.00100122 -2.31247e-07 0)
(0.00100107 -2.90543e-07 0)
(0.00100081 -3.41266e-07 0)
(0.00100053 -3.59616e-07 0)
(0.00100018 -3.67871e-07 0)
(0.000999947 -3.42229e-07 0)
(0.000999611 -3.52617e-07 0)
(0.000999523 -3.27535e-07 0)
(0.000999131 -4.10355e-07 0)
)
;

boundaryField
{
    sides
    {
        type            slip;
    }
    inlet
    {
        type            fixedValue;
        value           uniform (0.001 0 0);
    }
    outlet
    {
        type            zeroGradient;
    }
    frontAndBack
    {
        type            empty;
    }
}


// ************************************************************************* //
