/*--------------------------------*- C++ -*----------------------------------*\
  =========                 |
  \\      /  F ield         | OpenFOAM: The Open Source CFD Toolbox
   \\    /   O peration     | Website:  https://openfoam.org
    \\  /    A nd           | Version:  9
     \\/     M anipulation  |
\*---------------------------------------------------------------------------*/
FoamFile
{
    format      ascii;
    class       surfaceScalarField;
    location    "100";
    object      phi;
}
// * * * * * * * * * * * * * * * * * * * * * * * * * * * * * * * * * * * * * //

dimensions      [0 4 -1 0 0 0 0];

internalField   nonuniform List<scalar> 
760
(
5.00009e-06
-9.29816e-11
5.0004e-06
-3.06596e-10
5.00091e-06
-5.12026e-10
5.00162e-06
-7.05401e-10
5.00249e-06
-8.74322e-10
5.0035e-06
-1.00336e-09
5.00456e-06
-1.06062e-09
5.00557e-06
-1.01763e-09
5.0064e-06
-8.36392e-10
5.00692e-06
-5.27299e-10
5.00705e-06
-1.26176e-10
5.00665e-06
3.95401e-10
5.0058e-06
8.51747e-10
5.0047e-06
1.10011e-09
5.00353e-06
1.16819e-09
5.00257e-06
9.49958e-10
5.00186e-06
7.12736e-10
5.00161e-06
2.41439e-10
5.00151e-06
1.03401e-10
-3.92863e-10
5.00012e-06
-2.15015e-10
5.00045e-06
-6.3468e-10
5.00098e-06
-1.04514e-09
5.00172e-06
-1.44332e-09
5.00265e-06
-1.80528e-09
5.00374e-06
-2.09354e-09
5.00493e-06
-2.24979e-09
5.00611e-06
-2.1987e-09
5.00713e-06
-1.86075e-09
5.00777e-06
-1.17151e-09
5.00775e-06
-9.62603e-11
5.00725e-06
8.88329e-10
5.00627e-06
1.84446e-09
5.00496e-06
2.41302e-09
5.00368e-06
2.4421e-09
5.00278e-06
1.85494e-09
5.00225e-06
1.241e-09
5.00191e-06
5.75356e-10
5.00165e-06
3.63892e-10
-1.50049e-10
5.00011e-06
-3.23324e-10
5.00043e-06
-9.53904e-10
5.00096e-06
-1.57716e-09
5.00172e-06
-2.20527e-09
5.00272e-06
-2.80444e-09
5.00394e-06
-3.31675e-09
5.00532e-06
-3.6295e-09
5.00672e-06
-3.60018e-09
5.00793e-06
-3.06263e-09
5.00872e-06
-1.96038e-09
5.00893e-06
-2.98955e-10
5.00825e-06
1.57245e-09
5.00687e-06
3.23432e-09
5.00515e-06
4.13922e-09
5.00351e-06
4.09468e-09
5.00231e-06
3.05593e-09
5.00166e-06
1.887e-09
5.00147e-06
7.65129e-10
5.00145e-06
3.92565e-10
-2.23275e-10
5.0001e-06
-4.22266e-10
5.00041e-06
-1.26237e-09
5.00094e-06
-2.11283e-09
5.00175e-06
-3.00827e-09
5.00285e-06
-3.91219e-09
5.00428e-06
-4.75157e-09
5.00601e-06
-5.35527e-09
5.00795e-06
-5.5295e-09
5.00984e-06
-4.93983e-09
5.01108e-06
-3.1909e-09
5.01119e-06
-4.24299e-10
5.00999e-06
2.78253e-09
5.00764e-06
5.57361e-09
5.00513e-06
6.64766e-09
5.00347e-06
5.77103e-09
5.0027e-06
3.83252e-09
5.00248e-06
2.11115e-09
5.00231e-06
9.36753e-10
5.002e-06
7.08998e-10
3.38909e-10
5.00008e-06
-5.02787e-10
5.00034e-06
-1.52077e-09
5.00083e-06
-2.60653e-09
5.00164e-06
-3.81164e-09
5.00285e-06
-5.1362e-09
5.00457e-06
-6.46746e-09
5.0068e-06
-7.57463e-09
5.00943e-06
-8.13422e-09
5.01238e-06
-7.91508e-09
5.01479e-06
-5.58005e-09
5.01482e-06
-4.78087e-10
5.01284e-06
4.7523e-09
5.00867e-06
9.74541e-09
5.00458e-06
1.07098e-08
5.00223e-06
8.12091e-09
5.00173e-06
4.32976e-09
5.00204e-06
1.81114e-09
5.00225e-06
7.29919e-10
5.00201e-06
9.55983e-10
6.28908e-10
5.00004e-06
-5.42964e-10
5.0002e-06
-1.67663e-09
5.00054e-06
-2.94825e-09
5.00121e-06
-4.48621e-09
5.0024e-06
-6.33583e-09
5.00452e-06
-8.57749e-09
5.00761e-06
-1.06437e-08
5.01167e-06
-1.22115e-08
5.01553e-06
-1.17718e-08
5.019e-06
-9.08256e-09
5.02022e-06
-1.66837e-09
5.01601e-06
8.9155e-09
5.00951e-06
1.62489e-08
5.00421e-06
1.60009e-08
5.00216e-06
1.01533e-08
5.00248e-06
3.99995e-09
5.00326e-06
1.03508e-09
5.00339e-06
6.0473e-10
5.0028e-06
1.55327e-09
1.42522e-09
4.99998e-06
-5.22014e-10
4.99994e-06
-1.63449e-09
5.00003e-06
-3.0421e-09
5.00036e-06
-4.81721e-09
5.00122e-06
-7.19526e-09
5.00292e-06
-1.0273e-08
5.00681e-06
-1.45302e-08
5.01392e-06
-1.93383e-08
5.02375e-06
-2.16079e-08
5.03093e-06
-1.62662e-08
5.02871e-06
5.29824e-10
5.01675e-06
2.09468e-08
5.00419e-06
2.88e-08
4.99873e-06
2.14513e-08
5.00058e-06
8.30853e-09
5.00284e-06
1.72502e-09
5.00371e-06
1.62304e-10
5.00366e-06
6.54867e-10
5.00304e-06
2.16754e-09
1.68328e-09
4.99987e-06
-3.87745e-10
4.99955e-06
-1.32026e-09
4.99912e-06
-2.61503e-09
4.99885e-06
-4.54644e-09
4.99933e-06
-7.66792e-09
5.00036e-06
-1.13026e-08
5.00365e-06
-1.78243e-08
5.00982e-06
-2.5525e-08
5.02487e-06
-3.667e-08
5.05616e-06
-4.74546e-08
5.04997e-06
6.9106e-09
5.02317e-06
4.77989e-08
4.99819e-06
5.38297e-08
4.9935e-06
2.61423e-08
4.99947e-06
2.33952e-09
5.00407e-06
-2.88079e-09
5.00491e-06
-6.73407e-10
5.00372e-06
1.8341e-09
5.0035e-06
2.38129e-09
9.70339e-10
4.99977e-06
-1.56927e-10
4.99915e-06
-7.04775e-10
4.99792e-06
-1.3806e-09
4.99611e-06
-2.73314e-09
4.99402e-06
-5.57775e-09
4.99374e-06
-1.10282e-08
4.99944e-06
-2.35382e-08
5.01713e-06
-4.32002e-08
5.05572e-06
-7.52299e-08
5.06678e-06
-5.86192e-08
5.0498e-06
2.37193e-08
4.99651e-06
1.01043e-07
4.98929e-06
6.09989e-08
4.9959e-06
1.95359e-08
5.00019e-06
-1.93892e-09
5.00293e-06
-5.61359e-09
5.00253e-06
-2.74763e-10
5.00184e-06
2.51815e-09
5.00254e-06
1.6782e-09
6.98256e-11
4.99986e-06
-1.63701e-11
4.9992e-06
-5.12368e-11
4.99791e-06
-8.53512e-11
4.99531e-06
-1.25932e-10
4.9899e-06
-1.69641e-10
4.97908e-06
-2.22847e-10
4.95581e-06
-2.6892e-10
4.91296e-06
-3.27835e-10
4.83813e-06
-4.02272e-10
4.77999e-06
-4.55879e-10
4.80429e-06
-6.06155e-10
4.90601e-06
-7.44775e-10
4.96778e-06
-7.48576e-10
4.98822e-06
-9.06079e-10
4.98744e-06
-1.16426e-09
4.98327e-06
-1.42389e-09
4.98456e-06
-1.55553e-09
4.98891e-06
-1.82605e-09
4.99248e-06
-1.89571e-09
-2.58556e-09
4.99985e-06
1.25064e-10
4.9992e-06
6.01814e-10
4.99791e-06
1.2136e-09
4.9953e-06
2.48494e-09
4.98988e-06
5.24986e-09
4.97905e-06
1.05974e-08
4.95577e-06
2.30117e-08
4.9129e-06
4.25507e-08
4.83803e-06
7.446e-08
4.77973e-06
5.78473e-08
4.80426e-06
-2.509e-08
4.90599e-06
-1.02486e-07
4.96776e-06
-6.25163e-08
4.98806e-06
-2.12019e-08
4.98736e-06
-4.5122e-10
4.98294e-06
3.00197e-09
4.98443e-06
-3.04899e-09
4.98889e-06
-6.2853e-09
4.99235e-06
-5.35902e-09
-4.98502e-09
4.99977e-06
3.56747e-10
4.99915e-06
1.22276e-09
4.99792e-06
2.4454e-09
4.9961e-06
4.29861e-09
4.99402e-06
7.33278e-09
4.99373e-06
1.08853e-08
4.99943e-06
1.73149e-08
5.01708e-06
2.48953e-08
5.05564e-06
3.59098e-08
5.06704e-06
4.63538e-08
5.04947e-06
-6.2362e-09
4.99611e-06
-4.90583e-08
4.98884e-06
-5.52721e-08
4.99569e-06
-2.80477e-08
5.00011e-06
-4.86462e-09
5.00231e-06
7.90451e-10
5.00165e-06
-2.39228e-09
5.0009e-06
-5.536e-09
5.00168e-06
-6.13952e-09
-5.95287e-09
4.99987e-06
4.91957e-10
4.99955e-06
1.54097e-09
4.99911e-06
2.88122e-09
4.99883e-06
4.58059e-09
4.99927e-06
6.88806e-09
5.00027e-06
9.89078e-09
5.00348e-06
1.41044e-08
5.0096e-06
1.87662e-08
5.02459e-06
2.09172e-08
5.0556e-06
1.54075e-08
5.04976e-06
-1.67986e-09
5.02281e-06
-2.21898e-08
4.99787e-06
-3.03034e-08
4.99317e-06
-2.33314e-08
4.99864e-06
-1.03447e-08
5.00345e-06
-4.02029e-09
5.00373e-06
-2.67236e-09
5.00235e-06
-4.16452e-09
5.00216e-06
-5.94812e-09
-6.53738e-09
4.99998e-06
5.14284e-10
4.99993e-06
1.59007e-09
5e-06
2.80416e-09
5.0003e-06
4.2785e-09
5.00113e-06
6.06472e-09
5.0028e-06
8.22967e-09
5.00668e-06
1.02143e-08
5.01378e-06
1.1668e-08
5.02357e-06
1.11266e-08
5.03071e-06
8.27943e-09
5.02837e-06
6.1576e-10
5.01625e-06
-1.00239e-08
5.0035e-06
-1.75556e-08
4.99778e-06
-1.76063e-08
4.99942e-06
-1.19812e-08
5.00161e-06
-6.21533e-09
5.0024e-06
-3.46701e-09
5.00213e-06
-3.89438e-09
5.00119e-06
-5.01287e-09
-5.97945e-09
5.00004e-06
4.76788e-10
5.00018e-06
1.44493e-09
5.0005e-06
2.4818e-09
5.00114e-06
3.63263e-09
5.00232e-06
4.89721e-09
5.0044e-06
6.15713e-09
5.00742e-06
7.19182e-09
5.01139e-06
7.68375e-09
5.01513e-06
7.38992e-09
5.01852e-06
4.88135e-09
5.01956e-06
-3.99385e-10
5.01523e-06
-5.69624e-09
5.00854e-06
-1.08634e-08
5.00312e-06
-1.21698e-08
5.00088e-06
-9.74773e-09
5.001e-06
-6.34821e-09
5.00154e-06
-4.01328e-09
5.00131e-06
-3.65753e-09
5.00035e-06
-4.05102e-09
-4.9796e-09
5.00008e-06
3.99547e-10
5.00033e-06
1.19941e-09
5.00079e-06
2.00923e-09
5.00156e-06
2.85814e-09
5.00274e-06
3.71545e-09
5.00441e-06
4.50101e-09
5.00656e-06
5.04769e-09
5.00909e-06
5.14664e-09
5.01203e-06
4.44854e-09
5.0144e-06
2.50931e-09
5.01414e-06
-1.39673e-10
5.01208e-06
-3.63807e-09
5.00775e-06
-6.534e-09
5.00349e-06
-7.9084e-09
5.00093e-06
-7.19135e-09
5.00012e-06
-5.55515e-09
5.00009e-06
-3.9893e-09
4.99987e-06
-3.42638e-09
4.99917e-06
-3.34505e-09
-4.17407e-09
5.0001e-06
3.01645e-10
5.0004e-06
9.02896e-10
5.00091e-06
1.4972e-09
5.00167e-06
2.08808e-09
5.00273e-06
2.65078e-09
5.00412e-06
3.11818e-09
5.00579e-06
3.38679e-09
5.00763e-06
3.31202e-09
5.00933e-06
2.75267e-09
5.01027e-06
1.56845e-09
5.01043e-06
-3.08435e-10
5.00903e-06
-2.24215e-09
5.0065e-06
-4.01505e-09
5.00367e-06
-5.08614e-09
5.00154e-06
-5.06609e-09
5.00033e-06
-4.36011e-09
4.99969e-06
-3.34748e-09
4.99916e-06
-2.88735e-09
4.99845e-06
-2.62423e-09
-3.21539e-09
5.0001e-06
1.99162e-10
5.00041e-06
5.95123e-10
5.00093e-06
9.82411e-10
5.00166e-06
1.35284e-09
5.00261e-06
1.6919e-09
5.00377e-06
1.95385e-09
5.00509e-06
2.07429e-09
5.00645e-06
1.96414e-09
5.00764e-06
1.56199e-09
5.00839e-06
8.2971e-10
5.00821e-06
-1.31518e-10
5.00734e-06
-1.36481e-09
5.0057e-06
-2.38263e-09
5.00368e-06
-3.07033e-09
5.00178e-06
-3.17452e-09
5.00033e-06
-2.90134e-09
4.99931e-06
-2.32534e-09
4.99852e-06
-2.09022e-09
4.99773e-06
-1.82735e-09
-2.27579e-09
5.00008e-06
1.15081e-10
5.00037e-06
3.05029e-10
5.00087e-06
4.92454e-10
5.00155e-06
6.7079e-10
5.00241e-06
8.29929e-10
5.00341e-06
9.49348e-10
5.00448e-06
9.99508e-10
5.0055e-06
9.41394e-10
5.00632e-06
7.42096e-10
5.00679e-06
3.65634e-10
5.00681e-06
-1.41438e-10
5.00608e-06
-6.29387e-10
5.00479e-06
-1.09267e-09
5.00315e-06
-1.42959e-09
5.00148e-06
-1.50155e-09
5.00002e-06
-1.43711e-09
4.99889e-06
-1.18468e-09
4.99793e-06
-1.13065e-09
4.99707e-06
-9.71421e-10
-1.42241e-09
5.00011e-06
5.00041e-06
5.00091e-06
5.00159e-06
5.00242e-06
5.00337e-06
5.00436e-06
5.00529e-06
5.00603e-06
5.00639e-06
5.00625e-06
5.00562e-06
5.00453e-06
5.00311e-06
5.00161e-06
5.00017e-06
4.99899e-06
4.99785e-06
4.99687e-06
)
;

boundaryField
{
    sides
    {
        type            calculated;
        value           uniform 0;
    }
    inlet
    {
        type            calculated;
        value           nonuniform List<scalar> 
20
(
-5e-06
-5e-06
-5e-06
-5e-06
-5e-06
-5e-06
-5e-06
-5e-06
-5e-06
-5e-06
-5e-06
-5e-06
-5e-06
-5e-06
-5e-06
-5e-06
-5e-06
-5e-06
-5e-06
-5e-06
)
;
    }
    outlet
    {
        type            calculated;
        value           nonuniform List<scalar> 
20
(
5.0019e-06
5.00141e-06
5.00152e-06
5.00143e-06
5.00172e-06
5.002e-06
5.00278e-06
5.00421e-06
5.00343e-06
4.99514e-06
4.99474e-06
5.00265e-06
5.00274e-06
5.00063e-06
4.99935e-06
4.99837e-06
4.9975e-06
4.99679e-06
4.99622e-06
4.99545e-06
)
;
    }
    frontAndBack
    {
        type            empty;
        value           nonuniform List<scalar> 0();
    }
}


// ************************************************************************* //
