/*--------------------------------*- C++ -*----------------------------------*\
  =========                 |
  \\      /  F ield         | OpenFOAM: The Open Source CFD Toolbox
   \\    /   O peration     | Website:  https://openfoam.org
    \\  /    A nd           | Version:  9
     \\/     M anipulation  |
\*---------------------------------------------------------------------------*/
FoamFile
{
    format      ascii;
    class       volVectorField;
    location    "100";
    object      U;
}
// * * * * * * * * * * * * * * * * * * * * * * * * * * * * * * * * * * * * * //

dimensions      [0 1 -1 0 0 0 0];

internalField   nonuniform List<vector> 
400
(
(0.0999964 -2.41161e-06 0)
(0.100001 -7.06103e-06 0)
(0.100009 -1.13226e-05 0)
(0.100023 -1.52405e-05 0)
(0.10004 -1.87246e-05 0)
(0.100061 -2.16723e-05 0)
(0.100084 -2.37041e-05 0)
(0.100107 -2.45749e-05 0)
(0.100128 -2.36788e-05 0)
(0.100144 -2.11694e-05 0)
(0.100152 -1.68877e-05 0)
(0.100152 -1.28631e-05 0)
(0.10014 -9.91732e-06 0)
(0.10012 -9.33217e-06 0)
(0.100093 -1.00028e-05 0)
(0.100068 -1.35818e-05 0)
(0.100045 -1.56586e-05 0)
(0.100034 -2.01208e-05 0)
(0.100025 -1.88745e-05 0)
(0.100033 -2.68527e-05 0)
(0.099997 -2.66347e-06 0)
(0.100002 -7.89762e-06 0)
(0.100011 -1.28241e-05 0)
(0.100025 -1.74058e-05 0)
(0.100044 -2.13176e-05 0)
(0.100066 -2.40294e-05 0)
(0.100091 -2.46385e-05 0)
(0.100117 -2.2147e-05 0)
(0.100141 -1.55782e-05 0)
(0.100161 -4.83987e-06 0)
(0.100171 9.34365e-06 0)
(0.100169 2.4768e-05 0)
(0.100154 3.89656e-05 0)
(0.100129 4.76487e-05 0)
(0.1001 5.04616e-05 0)
(0.100071 4.51469e-05 0)
(0.10005 3.78131e-05 0)
(0.100037 2.56739e-05 0)
(0.100033 2.04867e-05 0)
(0.100029 8.08529e-06 0)
(0.0999968 -5.27463e-06 0)
(0.100002 -1.59278e-05 0)
(0.100011 -2.66906e-05 0)
(0.100025 -3.73618e-05 0)
(0.100044 -4.73352e-05 0)
(0.100068 -5.55658e-05 0)
(0.100096 -6.04617e-05 0)
(0.100127 -5.99122e-05 0)
(0.100156 -5.19122e-05 0)
(0.10018 -3.51932e-05 0)
(0.100193 -1.09013e-05 0)
(0.100192 1.63393e-05 0)
(0.100174 4.03224e-05 0)
(0.100142 5.2107e-05 0)
(0.100102 4.99911e-05 0)
(0.100066 3.53854e-05 0)
(0.100038 2.02923e-05 0)
(0.100026 4.58045e-06 0)
(0.100021 -3.59451e-07 0)
(0.100029 -1.17348e-05 0)
(0.0999963 -7.37311e-06 0)
(0.100001 -2.2256e-05 0)
(0.10001 -3.74995e-05 0)
(0.100025 -5.30389e-05 0)
(0.100046 -6.80543e-05 0)
(0.100073 -8.10498e-05 0)
(0.100107 -8.90231e-05 0)
(0.100146 -8.86653e-05 0)
(0.100186 -7.55129e-05 0)
(0.100222 -4.74623e-05 0)
(0.100243 -2.12074e-06 0)
(0.10024 4.94727e-05 0)
(0.100211 9.38718e-05 0)
(0.100159 0.000114193 0)
(0.100104 0.000105628 0)
(0.100061 7.43804e-05 0)
(0.100041 4.2402e-05 0)
(0.100035 1.6999e-05 0)
(0.10004 1.01822e-05 0)
(0.100035 2.10755e-08 0)
(0.0999953 -9.10049e-06 0)
(0.0999995 -2.78094e-05 0)
(0.100008 -4.77083e-05 0)
(0.100023 -6.94032e-05 0)
(0.100044 -9.21018e-05 0)
(0.100075 -0.00011399 0)
(0.100117 -0.000129954 0)
(0.100168 -0.000133642 0)
(0.100225 -0.000117422 0)
(0.100281 -7.77248e-05 0)
(0.100318 -1.69998e-05 0)
(0.100316 5.80736e-05 0)
(0.100267 0.000123187 0)
(0.100181 0.000151287 0)
(0.100091 0.000137683 0)
(0.100029 9.65796e-05 0)
(0.100009 5.81958e-05 0)
(0.100019 3.14593e-05 0)
(0.100036 2.62205e-05 0)
(0.100043 1.67893e-05 0)
(0.099994 -1.03134e-05 0)
(0.0999969 -3.18442e-05 0)
(0.100003 -5.62265e-05 0)
(0.100015 -8.45062e-05 0)
(0.100036 -0.000117334 0)
(0.10007 -0.000152549 0)
(0.100122 -0.000185871 0)
(0.100193 -0.000205254 0)
(0.100277 -0.000191149 0)
(0.100357 -0.000119971 0)
(0.100414 8.3723e-06 0)
(0.100415 0.000154126 0)
(0.100339 0.000243415 0)
(0.100208 0.000230458 0)
(0.100084 0.000143008 0)
(0.100014 4.92989e-05 0)
(0.100012 1.38593e-06 0)
(0.100035 -8.48449e-06 0)
(0.100065 6.06615e-06 0)
(0.100055 5.01534e-06 0)
(0.0999924 -1.02167e-05 0)
(0.0999928 -3.33286e-05 0)
(0.0999949 -6.02242e-05 0)
(0.100001 -9.62727e-05 0)
(0.100016 -0.000139304 0)
(0.100046 -0.000194616 0)
(0.100103 -0.000248839 0)
(0.100202 -0.000308407 0)
(0.10035 -0.000323441 0)
(0.100519 -0.000288367 0)
(0.100632 -6.67562e-05 0)
(0.10059 0.0002555 0)
(0.100383 0.000482782 0)
(0.100118 0.000473567 0)
(0.0999478 0.000302667 0)
(0.0999219 0.000126315 0)
(0.0999926 4.31082e-05 0)
(0.100056 3.26987e-05 0)
(0.100095 5.62427e-05 0)
(0.100067 5.341e-05 0)
(0.0999905 -9.20178e-06 0)
(0.0999873 -2.88488e-05 0)
(0.0999806 -5.77455e-05 0)
(0.0999769 -9.57573e-05 0)
(0.0999774 -0.000157787 0)
(0.100001 -0.00023443 0)
(0.100047 -0.000340205 0)
(0.10016 -0.000412625 0)
(0.100334 -0.000437567 0)
(0.100659 -0.000255106 0)
(0.101007 7.48947e-05 0)
(0.101013 0.000427131 0)
(0.100606 0.000472142 0)
(0.100072 0.000278142 0)
(0.099782 7.33688e-05 0)
(0.0997969 -2.75971e-05 0)
(0.0999672 -2.86615e-05 0)
(0.100089 -9.79347e-07 0)
(0.100138 2.12101e-05 0)
(0.100087 1.02826e-05 0)
(0.0999894 -4.87753e-06 0)
(0.0999805 -2.03579e-05 0)
(0.0999628 -3.86848e-05 0)
(0.0999377 -7.35415e-05 0)
(0.0999107 -0.000133854 0)
(0.0999019 -0.00024808 0)
(0.0999567 -0.000468721 0)
(0.100144 -0.00080704 0)
(0.100537 -0.00132928 0)
(0.101061 -0.00149279 0)
(0.101323 0.00038431 0)
(0.100997 0.00187495 0)
(0.100241 0.00157849 0)
(0.0997199 0.000573949 0)
(0.0996445 -3.16416e-05 0)
(0.099822 -0.000126389 0)
(0.100024 -9.48346e-06 0)
(0.100107 6.34388e-05 0)
(0.100113 6.5168e-05 0)
(0.100055 2.43673e-05 0)
(0.0999702 -1.96019e-06 0)
(0.100006 -6.65041e-06 0)
(0.0999077 -1.51388e-05 0)
(0.0999717 -2.48631e-05 0)
(0.0997259 -5.92289e-05 0)
(0.0998441 -0.000113138 0)
(0.0992764 -0.000288246 0)
(0.099675 -0.000558844 0)
(0.0991182 -0.00115356 0)
(0.102003 -0.00141524 0)
(0.106281 3.09024e-05 0)
(0.101267 0.00146747 0)
(0.0990076 0.00130724 0)
(0.0982225 0.00051319 0)
(0.0988553 1.94215e-05 0)
(0.0996051 -7.80706e-05 0)
(0.0999352 -1.10941e-05 0)
(0.0999523 2.48489e-05 0)
(0.099867 1.74128e-05 0)
(0.0998489 -1.84983e-05 0)
(0.0999709 1.29939e-06 0)
(0.100006 4.60271e-06 0)
(0.0999083 1.17759e-05 0)
(0.0999722 2.00281e-05 0)
(0.0997263 5.29024e-05 0)
(0.0998442 0.000105011 0)
(0.0992762 0.000278462 0)
(0.0996745 0.000547047 0)
(0.0991171 0.00113926 0)
(0.102001 0.00139782 0)
(0.106276 -5.29437e-05 0)
(0.101265 -0.00149447 0)
(0.0990079 -0.00133962 0)
(0.0982222 -0.000552571 0)
(0.0988538 -6.47074e-05 0)
(0.0996016 2.49084e-05 0)
(0.0999311 -4.71762e-05 0)
(0.0999478 -0.00010021 0)
(0.0998658 -9.88667e-05 0)
(0.0998441 -8.88789e-05 0)
(0.0999914 4.24716e-06 0)
(0.0999825 1.83956e-05 0)
(0.0999647 3.53825e-05 0)
(0.0999397 6.87633e-05 0)
(0.0999124 0.000127611 0)
(0.0999039 0.000240047 0)
(0.0999583 0.000458842 0)
(0.100146 0.00079441 0)
(0.100537 0.00131379 0)
(0.101063 0.00147332 0)
(0.101325 -0.000406941 0)
(0.100995 -0.00190253 0)
(0.100235 -0.00161002 0)
(0.0997121 -0.000612114 0)
(0.0996387 -8.4014e-06 0)
(0.0998174 7.75694e-05 0)
(0.100015 -4.26798e-05 0)
(0.100092 -0.000130496 0)
(0.100093 -0.000137939 0)
(0.100038 -0.000125087 0)
(0.0999938 8.60866e-06 0)
(0.0999906 2.70046e-05 0)
(0.0999838 5.45231e-05 0)
(0.0999798 9.10558e-05 0)
(0.0999799 0.000151342 0)
(0.100003 0.000226089 0)
(0.100048 0.000329368 0)
(0.100159 0.000399144 0)
(0.100332 0.000421199 0)
(0.100654 0.000236426 0)
(0.101 -9.7821e-05 0)
(0.101007 -0.000454479 0)
(0.100601 -0.000502347 0)
(0.100067 -0.000312999 0)
(0.0997752 -0.000113138 0)
(0.0997848 -2.51368e-05 0)
(0.099951 -3.22573e-05 0)
(0.100066 -7.41514e-05 0)
(0.100111 -9.67316e-05 0)
(0.100057 -0.000107399 0)
(0.0999971 9.64721e-06 0)
(0.0999974 3.15502e-05 0)
(0.0999992 5.71925e-05 0)
(0.100005 9.18003e-05 0)
(0.100019 0.000133367 0)
(0.100049 0.000187039 0)
(0.100105 0.000239852 0)
(0.100203 0.000297564 0)
(0.10035 0.000311275 0)
(0.10052 0.000273428 0)
(0.100631 5.07246e-05 0)
(0.100586 -0.000275368 0)
(0.100375 -0.000507769 0)
(0.100105 -0.000507008 0)
(0.0999305 -0.000344839 0)
(0.099899 -0.000179353 0)
(0.0999682 -0.000102093 0)
(0.100026 -0.000105943 0)
(0.100065 -0.000130744 0)
(0.100025 -0.000151569 0)
(0.1 9.77648e-06 0)
(0.100003 3.02339e-05 0)
(0.100009 5.3556e-05 0)
(0.10002 8.06264e-05 0)
(0.10004 0.000112188 0)
(0.100074 0.000145897 0)
(0.100124 0.000177752 0)
(0.100194 0.000195111 0)
(0.100276 0.000178375 0)
(0.100353 0.000103606 0)
(0.100407 -2.79679e-05 0)
(0.100405 -0.000178092 0)
(0.100326 -0.000270979 0)
(0.10019 -0.000263054 0)
(0.100064 -0.000177776 0)
(0.0999891 -8.94859e-05 0)
(0.0999835 -4.2735e-05 0)
(0.0999982 -4.48496e-05 0)
(0.100024 -6.16933e-05 0)
(0.100002 -8.48799e-05 0)
(0.100003 8.6097e-06 0)
(0.100007 2.63966e-05 0)
(0.100015 4.5393e-05 0)
(0.100029 6.61741e-05 0)
(0.10005 8.7824e-05 0)
(0.10008 0.000108447 0)
(0.10012 0.000122932 0)
(0.10017 0.000125232 0)
(0.100225 0.0001074 0)
(0.100279 6.57196e-05 0)
(0.100315 1.89517e-06 0)
(0.100309 -7.7006e-05 0)
(0.100256 -0.000144928 0)
(0.100166 -0.000177336 0)
(0.100072 -0.000166754 0)
(0.100003 -0.000134836 0)
(0.0999792 -0.000103 0)
(0.0999766 -9.3767e-05 0)
(0.0999894 -9.45888e-05 0)
(0.0999775 -0.000110868 0)
(0.100005 6.95269e-06 0)
(0.10001 2.09782e-05 0)
(0.100019 3.53544e-05 0)
(0.100033 5.00967e-05 0)
(0.100053 6.44265e-05 0)
(0.100079 7.66264e-05 0)
(0.100111 8.37733e-05 0)
(0.100148 8.25714e-05 0)
(0.100186 6.91204e-05 0)
(0.100218 4.06186e-05 0)
(0.100235 -4.76024e-06 0)
(0.100228 -5.76684e-05 0)
(0.100195 -0.000103582 0)
(0.100139 -0.000128154 0)
(0.100077 -0.000123013 0)
(0.100023 -9.9524e-05 0)
(0.099995 -7.02835e-05 0)
(0.0999763 -5.57291e-05 0)
(0.0999769 -4.87433e-05 0)
(0.099957 -5.98319e-05 0)
(0.100007 5.08476e-06 0)
(0.100012 1.50172e-05 0)
(0.100021 2.46329e-05 0)
(0.100034 3.3786e-05 0)
(0.100053 4.21075e-05 0)
(0.100076 4.83688e-05 0)
(0.100103 5.09618e-05 0)
(0.100131 4.74317e-05 0)
(0.100159 3.62186e-05 0)
(0.100182 1.55984e-05 0)
(0.100193 -1.17845e-05 0)
(0.100186 -4.22482e-05 0)
(0.100162 -6.82764e-05 0)
(0.100122 -8.43393e-05 0)
(0.100078 -8.51344e-05 0)
(0.100032 -7.71867e-05 0)
(0.100001 -6.38581e-05 0)
(0.0999727 -5.96728e-05 0)
(0.099965 -5.61001e-05 0)
(0.0999397 -6.84351e-05 0)
(0.100009 3.50706e-06 0)
(0.100013 1.05057e-05 0)
(0.100021 1.74306e-05 0)
(0.100034 2.40795e-05 0)
(0.100051 3.01261e-05 0)
(0.100071 3.49658e-05 0)
(0.100094 3.76299e-05 0)
(0.100117 3.70375e-05 0)
(0.100138 3.21359e-05 0)
(0.100153 2.24983e-05 0)
(0.10016 8.61434e-06 0)
(0.100155 -7.10867e-06 0)
(0.100137 -2.0684e-05 0)
(0.100105 -2.97907e-05 0)
(0.100068 -3.12871e-05 0)
(0.100027 -2.82164e-05 0)
(0.0999972 -2.02726e-05 0)
(0.0999658 -1.68365e-05 0)
(0.0999542 -1.17806e-05 0)
(0.0999258 -1.97823e-05 0)
(0.10001 -3.8661e-07 0)
(0.100014 -9.7829e-07 0)
(0.100023 -1.30188e-06 0)
(0.100036 -1.51737e-06 0)
(0.100053 -1.76159e-06 0)
(0.100072 -2.30554e-06 0)
(0.100094 -3.34623e-06 0)
(0.100115 -5.27756e-06 0)
(0.100134 -8.1112e-06 0)
(0.100147 -1.2173e-05 0)
(0.100152 -1.69585e-05 0)
(0.100145 -2.31302e-05 0)
(0.100129 -2.90607e-05 0)
(0.1001 -3.41332e-05 0)
(0.100069 -3.59672e-05 0)
(0.10003 -3.67915e-05 0)
(0.100004 -3.42259e-05 0)
(0.099967 -3.52638e-05 0)
(0.0999558 -3.27546e-05 0)
(0.0999144 -4.1036e-05 0)
)
;

boundaryField
{
    sides
    {
        type            calculated;
        value           nonuniform List<vector> 
40
(
(0.10001 0 0)
(0.100014 0 0)
(0.100023 0 0)
(0.100036 0 0)
(0.100053 0 0)
(0.100072 0 0)
(0.100094 0 0)
(0.100115 0 0)
(0.100134 0 0)
(0.100147 0 0)
(0.100152 0 0)
(0.100145 0 0)
(0.100129 0 0)
(0.1001 0 0)
(0.100069 0 0)
(0.10003 0 0)
(0.100004 0 0)
(0.099967 0 0)
(0.0999558 0 0)
(0.0999144 0 0)
(0.0999964 0 0)
(0.100001 0 0)
(0.100009 0 0)
(0.100023 0 0)
(0.10004 0 0)
(0.100061 0 0)
(0.100084 0 0)
(0.100107 0 0)
(0.100128 0 0)
(0.100144 0 0)
(0.100152 0 0)
(0.100152 0 0)
(0.10014 0 0)
(0.10012 0 0)
(0.100093 0 0)
(0.100068 0 0)
(0.100045 0 0)
(0.100034 0 0)
(0.100025 0 0)
(0.100033 0 0)
)
;
    }
    inlet
    {
        type            calculated;
        value           nonuniform List<vector> 
20
(
(0.0999962 0 0)
(0.0999967 0 0)
(0.0999966 0 0)
(0.0999961 0 0)
(0.0999951 0 0)
(0.0999938 0 0)
(0.0999923 0 0)
(0.0999909 0 0)
(0.0999899 0 0)
(0.0999899 0 0)
(0.0999905 0 0)
(0.0999919 0 0)
(0.0999943 0 0)
(0.0999971 0 0)
(0.0999999 0 0)
(0.100003 0 0)
(0.100005 0 0)
(0.100007 0 0)
(0.100009 0 0)
(0.10001 0 0)
)
;
    }
    outlet
    {
        type            calculated;
        value           nonuniform List<vector> 
20
(
(0.100033 -2.68528e-05 0)
(0.100029 8.08527e-06 0)
(0.10003 -1.17348e-05 0)
(0.100035 2.10754e-08 0)
(0.100043 1.67893e-05 0)
(0.100054 5.0153e-06 0)
(0.100066 5.34093e-05 0)
(0.100085 1.02824e-05 0)
(0.100054 2.4367e-05 0)
(0.0998504 -1.84986e-05 0)
(0.0998454 -8.888e-05 0)
(0.100037 -0.000125085 0)
(0.100055 -0.000107397 0)
(0.100024 -0.000151566 0)
(0.100001 -8.48789e-05 0)
(0.0999768 -0.000110867 0)
(0.0999561 -5.98314e-05 0)
(0.0999388 -6.84345e-05 0)
(0.099925 -1.97821e-05 0)
(0.0999131 -4.10355e-05 0)
)
;
    }
    frontAndBack
    {
        type            empty;
    }
}


// ************************************************************************* //
