/*--------------------------------*- C++ -*----------------------------------*\
  =========                 |
  \\      /  F ield         | OpenFOAM: The Open Source CFD Toolbox
   \\    /   O peration     | Website:  https://openfoam.org
    \\  /    A nd           | Version:  9
     \\/     M anipulation  |
\*---------------------------------------------------------------------------*/
FoamFile
{
    format      ascii;
    class       volVectorField;
    location    "27";
    object      ddt0(hU);
}
// * * * * * * * * * * * * * * * * * * * * * * * * * * * * * * * * * * * * * //

dimensions      [0 2 -2 0 0 0 0];

internalField   nonuniform List<vector> 
400
(
(7.99083e-08 4.73547e-08 0)
(7.43114e-09 2.21309e-08 0)
(5.06282e-08 -3.72931e-08 0)
(2.01258e-07 -3.53629e-08 0)
(1.60902e-07 1.94347e-09 0)
(2.22747e-08 1.04243e-09 0)
(-5.18688e-08 -4.28651e-08 0)
(-5.5155e-08 -7.91259e-08 0)
(-2.29288e-08 -7.01627e-08 0)
(-2.12165e-08 -3.7559e-08 0)
(-6.89887e-08 -1.62538e-08 0)
(-1.24227e-07 -1.95819e-08 0)
(-1.28775e-07 -3.58703e-08 0)
(-5.90301e-08 -4.64518e-08 0)
(2.06714e-08 -3.44486e-08 0)
(8.19441e-08 -3.26607e-09 0)
(8.19464e-08 1.4801e-08 0)
(1.97176e-08 1.00231e-08 0)
(4.16489e-08 1.08934e-08 0)
(1.13303e-07 -1.05448e-09 0)
(7.41896e-08 1.27923e-07 0)
(-9.56511e-09 6.79525e-08 0)
(2.3885e-08 -8.03982e-08 0)
(1.7375e-07 -9.00703e-08 0)
(1.36647e-07 -3.22761e-09 0)
(9.17887e-09 1.63684e-09 0)
(-6.25119e-08 -1.03887e-07 0)
(-5.92079e-08 -1.9866e-07 0)
(-2.88108e-08 -1.78255e-07 0)
(-1.90092e-08 -9.61842e-08 0)
(-5.5435e-08 -3.8384e-08 0)
(-1.04548e-07 -5.80929e-08 0)
(-1.14189e-07 -1.15854e-07 0)
(-6.38265e-08 -1.3202e-07 0)
(1.88698e-08 -9.00947e-08 0)
(7.84861e-08 -1.1065e-08 0)
(8.85625e-08 5.41449e-08 0)
(6.82268e-08 -4.09099e-09 0)
(6.79861e-08 -1.02289e-07 0)
(9.30949e-08 -4.64326e-08 0)
(5.74266e-08 1.77815e-07 0)
(-2.05891e-08 9.10685e-08 0)
(6.18731e-09 -1.27556e-07 0)
(1.06498e-07 -1.39057e-07 0)
(7.30211e-08 -6.65769e-09 0)
(-1.68578e-08 7.93557e-09 0)
(-6.51875e-08 -1.48035e-07 0)
(-6.11099e-08 -2.8106e-07 0)
(-3.82403e-08 -2.53242e-07 0)
(-3.34394e-08 -1.19885e-07 0)
(-5.79565e-08 -4.21584e-08 0)
(-1.06046e-07 -7.51736e-08 0)
(-1.03145e-07 -1.63754e-07 0)
(-4.84694e-08 -1.91066e-07 0)
(2.3374e-08 -1.2581e-07 0)
(8.46124e-08 -1.55908e-08 0)
(8.10403e-08 7.23361e-08 0)
(3.18595e-08 9.47295e-09 0)
(8.29708e-08 -1.16385e-07 0)
(1.40686e-07 -6.6498e-08 0)
(3.84296e-08 2.02539e-07 0)
(-4.71968e-08 8.52479e-08 0)
(-3.44806e-08 -1.86511e-07 0)
(3.72034e-08 -1.83949e-07 0)
(8.51692e-09 -4.83353e-09 0)
(-5.44577e-08 1.72073e-08 0)
(-7.43685e-08 -1.70647e-07 0)
(-6.3912e-08 -3.28685e-07 0)
(-3.97759e-08 -2.90742e-07 0)
(-3.71635e-08 -1.2977e-07 0)
(-6.74476e-08 -1.30043e-08 0)
(-8.08805e-08 -7.01731e-08 0)
(-9.13205e-08 -1.77133e-07 0)
(-4.50559e-08 -2.16504e-07 0)
(2.09469e-08 -1.47312e-07 0)
(6.68854e-08 -7.77376e-09 0)
(1.07626e-07 1.01005e-07 0)
(1.33662e-07 6.07236e-09 0)
(1.05935e-07 -1.54436e-07 0)
(1.03511e-07 -9.00853e-08 0)
(1.67647e-08 2.06301e-07 0)
(-7.21704e-08 7.13548e-08 0)
(-6.84443e-08 -2.13162e-07 0)
(-4.18384e-08 -2.0584e-07 0)
(-6.60372e-08 -5.68718e-09 0)
(-8.13613e-08 3.2603e-08 0)
(-7.32794e-08 -1.59818e-07 0)
(-5.91857e-08 -3.31032e-07 0)
(-6.53072e-08 -2.7999e-07 0)
(-3.3724e-08 -1.10451e-07 0)
(-6.51139e-08 1.08685e-08 0)
(-9.62601e-08 -2.34646e-08 0)
(-6.16515e-08 -1.65809e-07 0)
(-3.53207e-08 -2.12298e-07 0)
(2.35367e-08 -1.49864e-07 0)
(7.65447e-08 -1.1498e-08 0)
(9.33906e-08 1.05752e-07 0)
(8.49432e-08 -2.38988e-09 0)
(1.30383e-07 -2.05649e-07 0)
(1.75784e-07 -1.08548e-07 0)
(-5.25683e-09 1.85752e-07 0)
(-9.2108e-08 4.88808e-08 0)
(-1.09487e-07 -2.23074e-07 0)
(-1.27441e-07 -2.08181e-07 0)
(-1.36167e-07 1.57946e-09 0)
(-1.1167e-07 5.50785e-08 0)
(-7.12417e-08 -1.31463e-07 0)
(-5.8887e-08 -2.98569e-07 0)
(-5.37468e-08 -2.62639e-07 0)
(-8.44591e-08 -3.12303e-08 0)
(-2.97213e-08 1.89123e-08 0)
(-8.09143e-08 1.90777e-08 0)
(-8.01346e-08 -1.26947e-07 0)
(-3.06129e-08 -2.04131e-07 0)
(2.19007e-09 -1.40325e-07 0)
(4.52105e-08 -5.23838e-09 0)
(1.1478e-07 1.07252e-07 0)
(1.7061e-07 2.36181e-08 0)
(1.55526e-07 -1.45325e-07 0)
(1.59316e-07 -9.15317e-08 0)
(-2.3886e-08 1.49091e-07 0)
(-1.09767e-07 2.39178e-08 0)
(-1.45459e-07 -2.11375e-07 0)
(-1.99113e-07 -1.87664e-07 0)
(-2.00083e-07 1.24143e-08 0)
(-1.33435e-07 6.74588e-08 0)
(-7.07444e-08 -8.85772e-08 0)
(-5.98373e-08 -2.25783e-07 0)
(-4.48434e-08 -1.68848e-07 0)
(-8.03026e-08 -3.36799e-09 0)
(-6.94746e-08 4.24992e-08 0)
(-4.7733e-09 -9.90592e-09 0)
(-9.5365e-08 -7.57801e-08 0)
(-5.48543e-08 -1.48039e-07 0)
(9.84944e-09 -1.14284e-07 0)
(5.32283e-08 1.01765e-08 0)
(1.15113e-07 1.16263e-07 0)
(1.77703e-07 1.02283e-08 0)
(1.76794e-07 -1.59371e-07 0)
(1.7911e-07 -9.2046e-08 0)
(-3.89314e-08 1.08208e-07 0)
(-1.22291e-07 1.04438e-08 0)
(-1.71966e-07 -1.66971e-07 0)
(-2.56117e-07 -1.45747e-07 0)
(-2.51655e-07 1.7357e-08 0)
(-1.51177e-07 6.63745e-08 0)
(-5.16075e-08 -5.89902e-08 0)
(-2.64015e-08 -1.61696e-07 0)
(-6.49977e-08 -1.04302e-07 0)
(-6.27497e-08 -3.38826e-08 0)
(-5.92685e-07 1.05376e-07 0)
(2.62118e-08 3.91567e-08 0)
(7.75492e-09 -7.67274e-08 0)
(-6.67917e-08 -9.3732e-08 0)
(-2.62243e-08 -5.94036e-08 0)
(3.56203e-08 2.86695e-08 0)
(1.14425e-07 1.03648e-07 0)
(2.0412e-07 2.39667e-08 0)
(2.07629e-07 -1.10283e-07 0)
(1.88851e-07 -7.10301e-08 0)
(-4.96757e-08 6.97757e-08 0)
(-1.2625e-07 6.45005e-09 0)
(-1.93422e-07 -1.02742e-07 0)
(-3.01847e-07 -8.42895e-08 0)
(-2.87305e-07 2.43067e-08 0)
(-1.66435e-07 6.28016e-08 0)
(-5.52418e-08 -1.8699e-08 0)
(-2.62808e-08 -8.42166e-08 0)
(-5.19396e-08 -5.37046e-08 0)
(-1.04867e-07 -3.05611e-08 0)
(4.60087e-07 1.15273e-07 0)
(-7.11346e-08 3.23926e-08 0)
(-5.97953e-08 -5.97987e-08 0)
(-1.36592e-08 -5.40324e-08 0)
(-1.41899e-08 -2.31332e-08 0)
(2.77448e-08 2.18355e-08 0)
(1.25891e-07 7.6763e-08 0)
(2.19982e-07 2.76432e-08 0)
(2.2099e-07 -7.09075e-08 0)
(1.96271e-07 -5.57054e-08 0)
(-5.79309e-08 3.16177e-08 0)
(-1.28399e-07 1.20304e-08 0)
(-1.97226e-07 -2.20698e-08 0)
(-3.19128e-07 -8.89984e-09 0)
(-3.04947e-07 3.12572e-08 0)
(-1.6298e-07 4.66514e-08 0)
(-3.32752e-08 1.83787e-08 0)
(-1.11361e-08 -1.35653e-08 0)
(-7.19061e-08 -6.56248e-09 0)
(-4.6758e-08 1.98546e-08 0)
(-4.46496e-08 -1.29039e-08 0)
(-1.17201e-07 1.23877e-10 0)
(1.13757e-08 2.33413e-08 0)
(-1.36784e-08 6.27235e-09 0)
(-3.41974e-08 2.77521e-09 0)
(1.9111e-08 1.95903e-08 0)
(1.16285e-07 3.56308e-08 0)
(2.2678e-07 1.52233e-08 0)
(2.33697e-07 -2.9596e-08 0)
(2.16456e-07 -3.55242e-08 0)
(-5.83638e-08 -9.84453e-09 0)
(-1.27862e-07 2.44002e-08 0)
(-1.96522e-07 6.9783e-08 0)
(-3.19695e-07 6.83341e-08 0)
(-3.07145e-07 2.92128e-08 0)
(-1.64831e-07 7.87565e-09 0)
(-3.8677e-08 2.08224e-08 0)
(-2.04965e-08 1.86524e-08 0)
(-4.58183e-08 -2.71428e-08 0)
(-9.26622e-08 3.12671e-08 0)
(-3.61149e-08 1.30577e-08 0)
(-5.1017e-09 8.74755e-09 0)
(-4.30919e-08 2.77428e-08 0)
(-6.2218e-08 3.50385e-08 0)
(-4.19682e-08 5.0405e-08 0)
(1.50897e-08 4.55711e-08 0)
(1.226e-07 1.47741e-08 0)
(2.3207e-07 1.76438e-08 0)
(2.34599e-07 2.93103e-08 0)
(2.21053e-07 -5.58535e-09 0)
(-5.40948e-08 -5.17123e-08 0)
(-1.26569e-07 2.76323e-08 0)
(-1.89122e-07 1.45968e-07 0)
(-3.01982e-07 1.36835e-07 0)
(-2.93983e-07 3.0996e-08 0)
(-1.74778e-07 -1.25342e-08 0)
(-6.27857e-08 5.78082e-08 0)
(-2.75382e-08 1.14897e-07 0)
(-2.25217e-08 7.64289e-08 0)
(3.5531e-08 -6.78768e-08 0)
(-1.75688e-07 -1.53564e-07 0)
(-9.00073e-08 -7.66568e-08 0)
(-6.42024e-08 2.22862e-09 0)
(-6.73986e-08 7.85374e-08 0)
(-4.68286e-08 8.56815e-08 0)
(1.4115e-08 5.54653e-08 0)
(1.2898e-07 -1.89788e-09 0)
(2.29819e-07 1.79131e-08 0)
(2.26048e-07 7.74597e-08 0)
(2.11924e-07 2.22907e-08 0)
(-4.29838e-08 -9.59467e-08 0)
(-1.21036e-07 1.93488e-08 0)
(-1.71247e-07 2.0568e-07 0)
(-2.59807e-07 1.89928e-07 0)
(-2.57783e-07 3.39736e-08 0)
(-1.57437e-07 -1.71304e-08 0)
(-5.14809e-08 1.03491e-07 0)
(-2.35426e-08 2.01062e-07 0)
(-8.01825e-08 1.41933e-07 0)
(-1.82655e-07 -4.93979e-08 0)
(9.59298e-08 -1.91481e-07 0)
(1.49974e-08 -1.08084e-07 0)
(-2.2453e-08 2.74864e-08 0)
(-4.29343e-08 1.15481e-07 0)
(-3.39614e-08 1.1342e-07 0)
(3.02688e-08 5.41477e-08 0)
(1.1538e-07 -3.37841e-08 0)
(1.99553e-07 1.80207e-08 0)
(2.08055e-07 1.26089e-07 0)
(2.02515e-07 4.69398e-08 0)
(-2.68714e-08 -1.41957e-07 0)
(-1.10549e-07 -2.29271e-09 0)
(-1.44997e-07 2.42369e-07 0)
(-2.02403e-07 2.23335e-07 0)
(-2.04771e-07 3.02984e-08 0)
(-1.40794e-07 -2.13633e-08 0)
(-7.49434e-08 1.29748e-07 0)
(-4.90801e-08 2.5493e-07 0)
(-6.2521e-08 1.79359e-07 0)
(-3.07283e-08 3.84487e-08 0)
(-1.28477e-07 -2.67323e-08 0)
(-4.19755e-08 -4.8086e-08 0)
(-2.83071e-08 8.49109e-08 0)
(-4.49123e-08 1.66057e-07 0)
(-1.19264e-08 1.49191e-07 0)
(3.50109e-08 4.59702e-08 0)
(1.10295e-07 -6.21472e-08 0)
(1.79322e-07 1.58922e-08 0)
(1.87662e-07 1.60578e-07 0)
(1.88596e-07 6.41131e-08 0)
(-8.44345e-09 -1.79941e-07 0)
(-9.74255e-08 -3.49116e-08 0)
(-1.12202e-07 2.47792e-07 0)
(-1.28697e-07 2.37008e-07 0)
(-1.39339e-07 2.96333e-08 0)
(-1.17761e-07 -1.55675e-08 0)
(-7.45686e-08 1.70999e-07 0)
(-5.29886e-08 3.24406e-07 0)
(-5.64009e-08 2.52089e-07 0)
(-7.28818e-08 5.2874e-08 0)
(-4.83561e-08 -8.00054e-08 0)
(-5.58644e-08 2.57014e-09 0)
(-6.7033e-08 1.34475e-07 0)
(-5.21223e-08 2.12345e-07 0)
(-1.80402e-08 1.67408e-07 0)
(3.77649e-08 4.93222e-08 0)
(1.07573e-07 -6.58247e-08 0)
(1.54739e-07 1.54917e-08 0)
(1.66233e-07 1.76148e-07 0)
(1.74397e-07 7.45932e-08 0)
(1.12755e-08 -2.08962e-07 0)
(-7.95551e-08 -7.07155e-08 0)
(-7.21986e-08 2.24885e-07 0)
(-4.72717e-08 2.25114e-07 0)
(-6.85151e-08 2.53466e-08 0)
(-8.45978e-08 -5.03152e-09 0)
(-7.58731e-08 1.96188e-07 0)
(-6.34247e-08 3.54748e-07 0)
(-5.39595e-08 2.85346e-07 0)
(-5.67471e-08 8.64917e-08 0)
(-6.45208e-08 -3.20512e-08 0)
(-7.33754e-08 6.12169e-09 0)
(-9.29542e-08 1.40777e-07 0)
(-6.97748e-08 2.15303e-07 0)
(-4.3027e-09 1.73412e-07 0)
(6.0822e-08 5.25188e-08 0)
(1.03764e-07 -6.77885e-08 0)
(1.22866e-07 2.10839e-08 0)
(1.45494e-07 1.84966e-07 0)
(1.6242e-07 7.74948e-08 0)
(3.68619e-08 -2.22231e-07 0)
(-5.57116e-08 -9.78866e-08 0)
(-3.39411e-08 1.7787e-07 0)
(3.77339e-08 1.88238e-07 0)
(1.17741e-08 2.20533e-08 0)
(-4.37101e-08 2.81014e-09 0)
(-6.61431e-08 1.91545e-07 0)
(-6.20135e-08 3.44642e-07 0)
(-4.83823e-08 2.95484e-07 0)
(-4.93424e-08 1.22252e-07 0)
(-7.49217e-08 2.28171e-08 0)
(-1.09708e-07 5.03333e-08 0)
(-1.10513e-07 1.66278e-07 0)
(-6.08673e-08 2.28311e-07 0)
(6.52784e-09 1.74216e-07 0)
(6.60832e-08 4.98381e-08 0)
(1.04962e-07 -6.24603e-08 0)
(1.05593e-07 2.26983e-08 0)
(1.19723e-07 1.71834e-07 0)
(1.42064e-07 7.16228e-08 0)
(5.75732e-08 -1.93027e-07 0)
(-3.51232e-08 -8.67113e-08 0)
(-3.65169e-09 1.47068e-07 0)
(1.17771e-07 1.50348e-07 0)
(8.78396e-08 1.75858e-08 0)
(-1.0171e-08 7.95107e-09 0)
(-5.9738e-08 1.6828e-07 0)
(-5.4776e-08 2.99254e-07 0)
(-2.85293e-08 2.63434e-07 0)
(-2.38355e-08 1.27428e-07 0)
(-6.92911e-08 3.47336e-08 0)
(-1.24218e-07 6.66041e-08 0)
(-1.31398e-07 1.5946e-07 0)
(-8.51e-08 1.99454e-07 0)
(-2.44533e-09 1.49884e-07 0)
(7.36901e-08 4.97882e-08 0)
(1.00992e-07 -4.16622e-08 0)
(7.67152e-08 1.68183e-08 0)
(9.83208e-08 1.33623e-07 0)
(1.3012e-07 5.96188e-08 0)
(7.20696e-08 -1.2738e-07 0)
(7.3493e-10 -6.75082e-08 0)
(2.79153e-08 8.57261e-08 0)
(1.6206e-07 9.64872e-08 0)
(1.31958e-07 1.49249e-08 0)
(1.6978e-08 1.01735e-08 0)
(-4.77106e-08 1.10145e-07 0)
(-4.73675e-08 1.96665e-07 0)
(-2.49645e-08 1.74384e-07 0)
(-3.38682e-08 8.94718e-08 0)
(-8.3352e-08 3.25871e-08 0)
(-1.36781e-07 5.30096e-08 0)
(-1.42623e-07 1.09849e-07 0)
(-7.75479e-08 1.36601e-07 0)
(1.36216e-08 1.07838e-07 0)
(8.32361e-08 3.93512e-08 0)
(9.45392e-08 -2.55149e-08 0)
(5.47441e-08 1.46567e-08 0)
(8.2325e-08 9.39633e-08 0)
(1.1776e-07 4.17756e-08 0)
(8.32844e-08 -4.54137e-08 0)
(2.92242e-10 -3.42611e-08 0)
(4.33062e-08 1.39056e-08 0)
(2.0686e-07 2.88836e-08 0)
(1.68325e-07 9.01417e-09 0)
(2.85798e-08 5.27194e-09 0)
(-4.9638e-08 3.30439e-08 0)
(-5.03657e-08 6.00315e-08 0)
(-1.71115e-08 5.43621e-08 0)
(-1.37282e-08 3.17346e-08 0)
(-7.19522e-08 2.44915e-08 0)
(-1.39883e-07 3.02359e-08 0)
(-1.50555e-07 5.01153e-08 0)
(-8.75471e-08 5.57913e-08 0)
(4.09968e-09 4.08366e-08 0)
(7.49818e-08 1.37638e-08 0)
(8.9407e-08 -9.70201e-09 0)
(4.70843e-08 6.97574e-09 0)
(6.93751e-08 3.62542e-08 0)
(1.04698e-07 1.54777e-08 0)
)
;

boundaryField
{
    sides
    {
        type            calculated;
        value           nonuniform List<vector> 
40
(
(8.32844e-08 0 0)
(2.92242e-10 0 0)
(4.33062e-08 0 0)
(2.0686e-07 0 0)
(1.68325e-07 0 0)
(2.85798e-08 0 0)
(-4.9638e-08 0 0)
(-5.03657e-08 0 0)
(-1.71115e-08 0 0)
(-1.37282e-08 0 0)
(-7.19522e-08 0 0)
(-1.39883e-07 0 0)
(-1.50555e-07 0 0)
(-8.75471e-08 0 0)
(4.09968e-09 0 0)
(7.49818e-08 0 0)
(8.9407e-08 0 0)
(4.70843e-08 0 0)
(6.93751e-08 0 0)
(1.04698e-07 0 0)
(7.99083e-08 0 0)
(7.43114e-09 0 0)
(5.06282e-08 0 0)
(2.01258e-07 0 0)
(1.60902e-07 0 0)
(2.22747e-08 0 0)
(-5.18688e-08 0 0)
(-5.5155e-08 0 0)
(-2.29288e-08 0 0)
(-2.12165e-08 0 0)
(-6.89887e-08 0 0)
(-1.24227e-07 0 0)
(-1.28775e-07 0 0)
(-5.90301e-08 0 0)
(2.06714e-08 0 0)
(8.19441e-08 0 0)
(8.19464e-08 0 0)
(1.97176e-08 0 0)
(4.16489e-08 0 0)
(1.13303e-07 0 0)
)
;
    }
    inlet
    {
        type            calculated;
        value           uniform (0 0 0);
    }
    outlet
    {
        type            calculated;
        value           nonuniform List<vector> 
20
(
(1.13303e-07 -1.05448e-09 0)
(9.30949e-08 -4.64326e-08 0)
(1.40686e-07 -6.6498e-08 0)
(1.03511e-07 -9.00853e-08 0)
(1.75784e-07 -1.08548e-07 0)
(1.59316e-07 -9.15317e-08 0)
(1.7911e-07 -9.2046e-08 0)
(1.88851e-07 -7.10301e-08 0)
(1.96271e-07 -5.57054e-08 0)
(2.16456e-07 -3.55242e-08 0)
(2.21053e-07 -5.58535e-09 0)
(2.11924e-07 2.22907e-08 0)
(2.02515e-07 4.69398e-08 0)
(1.88596e-07 6.41131e-08 0)
(1.74397e-07 7.45932e-08 0)
(1.6242e-07 7.74948e-08 0)
(1.42064e-07 7.16228e-08 0)
(1.3012e-07 5.96188e-08 0)
(1.1776e-07 4.17756e-08 0)
(1.04698e-07 1.54777e-08 0)
)
;
    }
    frontAndBack
    {
        type            empty;
    }
}


// ************************************************************************* //
