/*--------------------------------*- C++ -*----------------------------------*\
  =========                 |
  \\      /  F ield         | OpenFOAM: The Open Source CFD Toolbox
   \\    /   O peration     | Website:  https://openfoam.org
    \\  /    A nd           | Version:  9
     \\/     M anipulation  |
\*---------------------------------------------------------------------------*/
FoamFile
{
    format      ascii;
    class       volScalarField;
    location    "27";
    object      h_0;
}
// * * * * * * * * * * * * * * * * * * * * * * * * * * * * * * * * * * * * * //

dimensions      [0 1 0 0 0 0 0];

internalField   nonuniform List<scalar> 
400
(
0.01
0.01
0.00999993
0.00999975
0.00999953
0.00999928
0.00999906
0.00999887
0.00999872
0.00999862
0.00999861
0.00999871
0.00999894
0.00999926
0.00999962
0.00999993
0.0100001
0.0100002
0.0100002
0.0100001
0.00999997
0.00999996
0.00999986
0.00999969
0.00999947
0.00999922
0.00999898
0.00999877
0.00999859
0.00999845
0.00999841
0.00999852
0.00999878
0.00999914
0.00999953
0.00999985
0.01
0.0100001
0.01
0.01
0.00999995
0.00999995
0.00999986
0.00999972
0.00999952
0.00999926
0.00999901
0.00999876
0.00999852
0.00999833
0.00999825
0.00999835
0.00999863
0.00999907
0.00999955
0.00999995
0.0100002
0.0100003
0.0100002
0.0100001
0.00999998
0.00999998
0.00999992
0.0099998
0.00999961
0.00999935
0.00999905
0.00999871
0.00999835
0.00999802
0.00999786
0.00999796
0.00999837
0.00999899
0.00999963
0.0100001
0.0100002
0.0100002
0.0100001
0.00999999
0.0100001
0.0100001
0.01
0.00999995
0.00999979
0.00999952
0.00999914
0.00999866
0.00999812
0.00999758
0.00999722
0.00999732
0.00999791
0.00999889
0.00999989
0.0100005
0.0100007
0.0100005
0.0100002
0.01
0.0100002
0.0100002
0.0100002
0.0100002
0.0100001
0.00999979
0.0099993
0.00999861
0.00999777
0.00999696
0.00999641
0.00999644
0.00999733
0.00999877
0.0100001
0.0100008
0.0100008
0.0100004
0.0100001
0.00999997
0.0100004
0.0100004
0.0100005
0.0100005
0.0100005
0.0100002
0.0099997
0.00999872
0.00999723
0.00999542
0.0099943
0.00999471
0.00999697
0.00999987
0.0100018
0.010002
0.0100012
0.0100003
0.00999991
0.00999993
0.0100005
0.0100006
0.0100007
0.0100009
0.010001
0.0100009
0.0100004
0.00999936
0.00999745
0.00999436
0.00999061
0.00999043
0.00999477
0.0100006
0.0100038
0.0100035
0.0100017
0.0100002
0.00999968
0.00999989
0.0100006
0.0100007
0.010001
0.0100014
0.0100018
0.010002
0.0100015
0.00999958
0.00999557
0.00998979
0.00998689
0.00998991
0.00999834
0.0100041
0.0100049
0.0100029
0.0100007
0.00999967
0.00999963
0.00999994
0.0100006
0.0100008
0.0100011
0.0100018
0.0100027
0.0100041
0.010006
0.0100079
0.0100049
0.00897854
0.00895245
0.00997604
0.0100091
0.0100182
0.0100109
0.0100028
0.0099993
0.00999925
0.00999998
0.0100002
0.0100006
0.0100007
0.0100011
0.0100017
0.0100026
0.0100041
0.0100059
0.0100079
0.0100049
0.00897846
0.00895247
0.00997595
0.010009
0.0100181
0.0100109
0.0100028
0.0099993
0.00999924
0.00999996
0.0100002
0.0100004
0.0100005
0.0100008
0.0100012
0.0100016
0.0100018
0.0100013
0.00999939
0.00999539
0.00998957
0.00998661
0.00998972
0.00999817
0.0100039
0.0100048
0.0100028
0.0100006
0.00999966
0.00999966
0.00999996
0.0100001
0.0100002
0.0100004
0.0100005
0.0100007
0.0100005
0.0100001
0.00999904
0.00999714
0.00999411
0.00999039
0.00999015
0.00999451
0.0100003
0.0100035
0.0100033
0.0100015
0.0100001
0.00999966
0.00999988
0.00999983
0.00999986
0.00999992
0.00999998
0.00999995
0.00999973
0.00999921
0.00999823
0.00999674
0.00999499
0.00999384
0.00999433
0.00999661
0.00999954
0.0100015
0.0100018
0.010001
0.0100002
0.00999981
0.00999989
0.00999952
0.00999953
0.00999953
0.00999951
0.0099994
0.00999913
0.00999867
0.009998
0.00999718
0.0099964
0.00999589
0.00999595
0.00999687
0.00999837
0.00999978
0.0100005
0.0100006
0.0100003
0.00999997
0.00999993
0.00999925
0.00999925
0.00999921
0.00999913
0.00999898
0.00999872
0.00999836
0.0099979
0.00999738
0.00999686
0.00999655
0.00999668
0.00999732
0.00999835
0.0099994
0.0100001
0.0100003
0.0100002
0.01
0.00999997
0.00999903
0.00999903
0.00999896
0.00999884
0.00999866
0.00999841
0.00999812
0.0099978
0.00999747
0.00999721
0.00999711
0.00999725
0.00999769
0.00999837
0.0099991
0.00999965
0.00999992
0.00999997
0.00999995
0.00999995
0.00999887
0.00999886
0.00999877
0.00999862
0.00999842
0.00999818
0.00999793
0.00999769
0.00999747
0.00999731
0.00999726
0.00999743
0.00999779
0.00999831
0.00999886
0.00999934
0.00999965
0.00999981
0.00999988
0.00999995
0.00999874
0.00999873
0.00999863
0.00999846
0.00999825
0.00999801
0.00999779
0.00999761
0.00999747
0.00999738
0.0099974
0.00999755
0.00999786
0.0099983
0.00999878
0.00999921
0.00999952
0.00999972
0.00999984
0.00999994
0.00999863
0.00999861
0.00999849
0.00999831
0.00999809
0.00999785
0.00999763
0.00999747
0.00999735
0.00999729
0.00999732
0.00999748
0.00999779
0.00999819
0.00999863
0.00999903
0.00999934
0.00999955
0.00999972
0.00999988
)
;

boundaryField
{
    sides
    {
        type            zeroGradient;
    }
    inlet
    {
        type            zeroGradient;
    }
    outlet
    {
        type            fixedValue;
        value           uniform 0.01;
    }
    frontAndBack
    {
        type            empty;
    }
}


// ************************************************************************* //
