/*--------------------------------*- C++ -*----------------------------------*\
  =========                 |
  \\      /  F ield         | OpenFOAM: The Open Source CFD Toolbox
   \\    /   O peration     | Website:  https://openfoam.org
    \\  /    A nd           | Version:  9
     \\/     M anipulation  |
\*---------------------------------------------------------------------------*/
FoamFile
{
    format      ascii;
    class       volScalarField;
    location    "27";
    object      hTotal;
}
// * * * * * * * * * * * * * * * * * * * * * * * * * * * * * * * * * * * * * //

dimensions      [0 1 0 0 0 0 0];

internalField   nonuniform List<scalar> 
400
(
0.0100001
0.0100001
0.00999996
0.00999978
0.00999956
0.00999933
0.00999912
0.00999894
0.00999878
0.00999868
0.00999867
0.00999878
0.00999901
0.00999934
0.00999967
0.00999995
0.0100001
0.0100002
0.0100001
0.0100001
0.01
0.01
0.00999989
0.00999972
0.0099995
0.00999927
0.00999904
0.00999883
0.00999864
0.0099985
0.00999847
0.00999858
0.00999885
0.00999921
0.00999958
0.00999987
0.01
0.0100001
0.01
0.01
0.01
0.00999999
0.0099999
0.00999975
0.00999954
0.00999931
0.00999906
0.00999881
0.00999856
0.00999837
0.0099983
0.0099984
0.00999869
0.00999912
0.00999958
0.00999996
0.0100002
0.0100002
0.0100002
0.0100001
0.01
0.01
0.00999995
0.00999983
0.00999964
0.00999939
0.00999909
0.00999874
0.00999837
0.00999805
0.00999789
0.00999801
0.00999842
0.00999903
0.00999965
0.0100001
0.0100002
0.0100002
0.01
0.00999999
0.0100001
0.0100001
0.0100001
0.00999998
0.00999981
0.00999954
0.00999915
0.00999867
0.00999812
0.00999759
0.00999725
0.00999735
0.00999796
0.00999892
0.00999991
0.0100005
0.0100007
0.0100005
0.0100002
0.01
0.0100002
0.0100002
0.0100002
0.0100002
0.0100001
0.00999978
0.00999929
0.0099986
0.00999776
0.00999694
0.00999643
0.00999646
0.00999735
0.0099988
0.0100002
0.0100008
0.0100008
0.0100004
0.0100001
0.00999996
0.0100003
0.0100004
0.0100005
0.0100005
0.0100005
0.0100002
0.00999966
0.00999869
0.00999718
0.00999542
0.00999428
0.00999476
0.009997
0.00999989
0.0100018
0.010002
0.0100012
0.0100003
0.00999988
0.00999992
0.0100005
0.0100006
0.0100007
0.0100009
0.010001
0.0100008
0.0100003
0.00999929
0.0099974
0.00999437
0.00999046
0.00999046
0.00999483
0.0100006
0.0100038
0.0100035
0.0100017
0.0100001
0.00999965
0.00999988
0.0100006
0.0100007
0.010001
0.0100014
0.0100018
0.0100019
0.0100014
0.00999951
0.00999553
0.00998976
0.00998707
0.00998997
0.00999839
0.0100041
0.0100049
0.0100029
0.0100007
0.00999964
0.0099996
0.00999993
0.0100006
0.0100008
0.0100011
0.0100017
0.0100026
0.0100041
0.0100059
0.0100078
0.0100049
0.00997851
0.00995252
0.00997606
0.0100092
0.0100183
0.010011
0.0100028
0.00999929
0.00999922
0.00999996
0.0100002
0.0100005
0.0100007
0.010001
0.0100017
0.0100025
0.010004
0.0100058
0.0100078
0.0100048
0.00997844
0.00995249
0.00997601
0.0100091
0.0100182
0.0100109
0.0100028
0.00999929
0.00999921
0.00999993
0.0100002
0.0100004
0.0100005
0.0100008
0.0100012
0.0100016
0.0100017
0.0100012
0.00999932
0.00999532
0.00998957
0.00998669
0.00998978
0.00999822
0.010004
0.0100048
0.0100028
0.0100006
0.00999963
0.00999963
0.00999994
0.0100001
0.0100002
0.0100003
0.0100005
0.0100006
0.0100005
0.01
0.00999898
0.00999711
0.00999408
0.00999036
0.00999019
0.00999456
0.0100004
0.0100035
0.0100033
0.0100015
0.0100001
0.00999963
0.00999987
0.00999982
0.00999986
0.00999992
0.00999998
0.00999994
0.00999971
0.00999917
0.0099982
0.00999671
0.00999501
0.00999384
0.00999437
0.00999666
0.00999957
0.0100015
0.0100018
0.010001
0.0100002
0.00999978
0.00999988
0.00999953
0.00999955
0.00999955
0.00999952
0.0099994
0.00999913
0.00999865
0.00999798
0.00999717
0.0099964
0.00999591
0.009996
0.00999691
0.0099984
0.0099998
0.0100005
0.0100006
0.0100002
0.00999995
0.00999992
0.00999927
0.00999928
0.00999924
0.00999915
0.00999899
0.00999873
0.00999837
0.00999791
0.00999739
0.00999688
0.00999658
0.00999672
0.00999737
0.00999839
0.00999942
0.0100001
0.0100003
0.0100002
0.01
0.00999997
0.00999907
0.00999906
0.00999899
0.00999886
0.00999869
0.00999844
0.00999816
0.00999784
0.0099975
0.00999723
0.00999714
0.00999729
0.00999774
0.00999841
0.00999912
0.00999965
0.00999991
0.00999996
0.00999994
0.00999995
0.00999892
0.0099989
0.0099988
0.00999864
0.00999845
0.00999822
0.00999798
0.00999775
0.00999752
0.00999735
0.00999731
0.00999748
0.00999786
0.00999836
0.0099989
0.00999935
0.00999964
0.00999979
0.00999987
0.00999994
0.00999879
0.00999877
0.00999865
0.00999848
0.00999828
0.00999806
0.00999785
0.00999768
0.00999753
0.00999744
0.00999746
0.00999762
0.00999794
0.00999837
0.00999883
0.00999923
0.00999952
0.0099997
0.00999983
0.00999994
0.00999868
0.00999864
0.00999852
0.00999833
0.00999811
0.00999789
0.00999769
0.00999754
0.00999741
0.00999735
0.00999738
0.00999756
0.00999787
0.00999827
0.00999869
0.00999906
0.00999934
0.00999954
0.00999972
0.00999988
)
;

boundaryField
{
    sides
    {
        type            calculated;
        value           nonuniform List<scalar> 
40
(
0.00999868
0.00999864
0.00999852
0.00999833
0.00999811
0.00999789
0.00999769
0.00999754
0.00999741
0.00999735
0.00999738
0.00999756
0.00999787
0.00999827
0.00999869
0.00999906
0.00999934
0.00999954
0.00999972
0.00999988
0.0100001
0.0100001
0.00999996
0.00999978
0.00999956
0.00999933
0.00999912
0.00999894
0.00999878
0.00999868
0.00999867
0.00999878
0.00999901
0.00999934
0.00999967
0.00999995
0.0100001
0.0100002
0.0100001
0.0100001
)
;
    }
    inlet
    {
        type            calculated;
        value           nonuniform List<scalar> 
20
(
0.0100001
0.01
0.01
0.01
0.0100001
0.0100002
0.0100003
0.0100005
0.0100006
0.0100006
0.0100005
0.0100004
0.0100001
0.00999982
0.00999953
0.00999927
0.00999907
0.00999892
0.00999879
0.00999868
)
;
    }
    outlet
    {
        type            calculated;
        value           uniform 0.01;
    }
    frontAndBack
    {
        type            empty;
    }
}


// ************************************************************************* //
