/*--------------------------------*- C++ -*----------------------------------*\
  =========                 |
  \\      /  F ield         | OpenFOAM: The Open Source CFD Toolbox
   \\    /   O peration     | Website:  https://openfoam.org
    \\  /    A nd           | Version:  9
     \\/     M anipulation  |
\*---------------------------------------------------------------------------*/
FoamFile
{
    format      ascii;
    class       volVectorField;
    location    "27";
    object      hU;
}
// * * * * * * * * * * * * * * * * * * * * * * * * * * * * * * * * * * * * * //

dimensions      [0 2 -1 0 0 0 0];

internalField   nonuniform List<vector> 
400
(
(0.000999999 -2.84595e-08 0)
(0.00100001 -9.43104e-08 0)
(0.00100014 -1.25933e-07 0)
(0.00100024 -1.4235e-07 0)
(0.00100034 -1.7768e-07 0)
(0.00100052 -2.29971e-07 0)
(0.00100074 -2.65533e-07 0)
(0.00100096 -2.66114e-07 0)
(0.00100114 -2.39196e-07 0)
(0.00100126 -2.07403e-07 0)
(0.0010013 -1.75451e-07 0)
(0.00100129 -1.44683e-07 0)
(0.00100119 -1.17133e-07 0)
(0.001001 -1.03271e-07 0)
(0.00100074 -9.80354e-08 0)
(0.00100048 -1.28513e-07 0)
(0.00100025 -1.55084e-07 0)
(0.00100018 -2.01952e-07 0)
(0.00100016 -1.88077e-07 0)
(0.00100023 -2.64614e-07 0)
(0.000999997 -3.38925e-08 0)
(0.00100002 -1.3824e-07 0)
(0.00100015 -1.6817e-07 0)
(0.00100026 -1.58635e-07 0)
(0.00100037 -1.94041e-07 0)
(0.00100056 -2.77554e-07 0)
(0.0010008 -3.26829e-07 0)
(0.00100105 -2.85677e-07 0)
(0.00100126 -1.75425e-07 0)
(0.00100141 -4.87486e-08 0)
(0.00100147 7.48206e-08 0)
(0.00100144 1.98751e-07 0)
(0.00100131 3.37474e-07 0)
(0.00100108 4.52276e-07 0)
(0.00100079 5.11708e-07 0)
(0.00100051 4.72956e-07 0)
(0.00100032 3.72172e-07 0)
(0.00100022 1.98322e-07 0)
(0.00100022 1.63033e-07 0)
(0.00100017 8.37417e-08 0)
(0.000999996 -6.2627e-08 0)
(0.00100002 -2.46465e-07 0)
(0.00100014 -3.28574e-07 0)
(0.00100025 -3.54083e-07 0)
(0.00100038 -4.47308e-07 0)
(0.0010006 -6.13825e-07 0)
(0.00100086 -7.28969e-07 0)
(0.00100114 -6.99266e-07 0)
(0.0010014 -5.51328e-07 0)
(0.00100159 -3.52914e-07 0)
(0.00100169 -1.35504e-07 0)
(0.00100167 9.13313e-08 0)
(0.0010015 3.26282e-07 0)
(0.0010012 4.87253e-07 0)
(0.00100082 5.13356e-07 0)
(0.00100047 3.8586e-07 0)
(0.00100019 1.95284e-07 0)
(0.00100011 -2.59906e-08 0)
(0.00100013 -5.56561e-08 0)
(0.00100021 -1.10802e-07 0)
(0.000999992 -9.10107e-08 0)
(0.00100002 -3.36521e-07 0)
(0.00100013 -4.54019e-07 0)
(0.00100024 -5.05957e-07 0)
(0.0010004 -6.49502e-07 0)
(0.00100065 -8.87182e-07 0)
(0.00100097 -1.04909e-06 0)
(0.00100132 -1.0132e-06 0)
(0.00100168 -7.94097e-07 0)
(0.00100199 -4.70056e-07 0)
(0.00100216 -5.33139e-08 0)
(0.00100212 4.08141e-07 0)
(0.00100184 8.48624e-07 0)
(0.00100136 1.10606e-06 0)
(0.00100085 1.08147e-06 0)
(0.00100045 7.90799e-07 0)
(0.00100028 4.13866e-07 0)
(0.00100023 7.35212e-08 0)
(0.00100028 3.32998e-08 0)
(0.00100023 9.40056e-09 0)
(0.00099999 -1.15531e-07 0)
(0.00100002 -4.09211e-07 0)
(0.00100011 -5.71139e-07 0)
(0.00100022 -6.7546e-07 0)
(0.0010004 -8.94277e-07 0)
(0.00100069 -1.23063e-06 0)
(0.00100107 -1.48049e-06 0)
(0.00100153 -1.48111e-06 0)
(0.00100204 -1.22002e-06 0)
(0.00100254 -7.75607e-07 0)
(0.00100286 -1.96247e-07 0)
(0.00100282 4.95862e-07 0)
(0.00100237 1.14004e-06 0)
(0.00100158 1.47753e-06 0)
(0.00100075 1.40448e-06 0)
(0.00100017 1.01853e-06 0)
(0.000999987 5.72395e-07 0)
(0.00100009 1.99686e-07 0)
(0.00100028 1.75107e-07 0)
(0.00100034 1.73873e-07 0)
(0.000999986 -1.34031e-07 0)
(0.00100001 -4.55232e-07 0)
(0.00100007 -6.61437e-07 0)
(0.00100015 -8.32389e-07 0)
(0.00100034 -1.1532e-06 0)
(0.00100066 -1.62196e-06 0)
(0.00100113 -2.04501e-06 0)
(0.00100176 -2.19943e-06 0)
(0.00100252 -1.95382e-06 0)
(0.00100325 -1.18585e-06 0)
(0.00100376 6.55962e-08 0)
(0.00100373 1.46793e-06 0)
(0.00100302 2.35703e-06 0)
(0.00100182 2.28825e-06 0)
(0.00100071 1.47288e-06 0)
(0.00100008 5.51055e-07 0)
(0.00100007 9.4953e-09 0)
(0.00100027 -1.79017e-07 0)
(0.00100053 -1.78701e-08 0)
(0.00100045 5.17336e-08 0)
(0.000999984 -1.353e-07 0)
(0.00099999 -4.60987e-07 0)
(0.00099999 -6.95841e-07 0)
(0.00100003 -9.55989e-07 0)
(0.00100017 -1.38068e-06 0)
(0.00100047 -2.03944e-06 0)
(0.00100099 -2.65959e-06 0)
(0.00100186 -3.21696e-06 0)
(0.0010032 -3.27237e-06 0)
(0.00100473 -2.86678e-06 0)
(0.00100573 -6.77739e-07 0)
(0.00100533 2.50057e-06 0)
(0.00100344 4.7729e-06 0)
(0.00100103 4.73381e-06 0)
(0.000999493 3.08563e-06 0)
(0.000999257 1.33295e-06 0)
(0.000999908 4.26346e-07 0)
(0.00100046 2.21214e-07 0)
(0.00100082 4.78083e-07 0)
(0.00100057 5.33095e-07 0)
(0.000999978 -1.2097e-07 0)
(0.000999956 -3.91663e-07 0)
(0.000999865 -6.54809e-07 0)
(0.000999815 -9.57343e-07 0)
(0.000999843 -1.57309e-06 0)
(0.00100009 -2.42534e-06 0)
(0.0010005 -3.54747e-06 0)
(0.00100151 -4.23855e-06 0)
(0.00100307 -4.4055e-06 0)
(0.00100603 -2.54165e-06 0)
(0.00100911 7.52075e-07 0)
(0.00100914 4.23447e-06 0)
(0.00100544 4.68816e-06 0)
(0.00100064 2.78887e-06 0)
(0.000998044 7.84456e-07 0)
(0.000998163 -2.12648e-07 0)
(0.000999708 -2.85021e-07 0)
(0.00100079 -8.87056e-08 0)
(0.00100123 1.43616e-07 0)
(0.00100076 9.75497e-08 0)
(0.000999977 -6.83464e-08 0)
(0.000999903 -2.70191e-07 0)
(0.000999706 -4.36758e-07 0)
(0.000999465 -7.36993e-07 0)
(0.000999256 -1.33747e-06 0)
(0.000999212 -2.53437e-06 0)
(0.00099971 -4.78268e-06 0)
(0.00100139 -8.1437e-06 0)
(0.00100492 -1.33096e-05 0)
(0.0010096 -1.49098e-05 0)
(0.00101194 3.84404e-06 0)
(0.00100894 1.87119e-05 0)
(0.00100216 1.57703e-05 0)
(0.000997472 5.76074e-06 0)
(0.000996777 -2.85007e-07 0)
(0.000998356 -1.22568e-06 0)
(0.00100019 -9.27349e-08 0)
(0.00100092 5.81847e-07 0)
(0.00100097 5.93996e-07 0)
(0.00100045 2.302e-07 0)
(0.000999786 -2.5194e-08 0)
(0.00100016 -8.75902e-08 0)
(0.000999162 -1.66061e-07 0)
(0.000999834 -2.47079e-07 0)
(0.000997493 -5.92069e-07 0)
(0.000998855 -1.15229e-06 0)
(0.000993353 -2.91999e-06 0)
(0.000997521 -5.62622e-06 0)
(0.000991666 -1.15631e-05 0)
(0.000915856 -1.27142e-05 0)
(0.000951504 2.78376e-07 0)
(0.00101022 1.46512e-05 0)
(0.000990902 1.31031e-05 0)
(0.00098388 5.16668e-06 0)
(0.000989472 2.19891e-07 0)
(0.00099618 -7.61634e-07 0)
(0.000999159 -1.1563e-07 0)
(0.000999332 2.18959e-07 0)
(0.00099855 1.31502e-07 0)
(0.000998416 -2.04079e-07 0)
(0.000999786 2.43811e-08 0)
(0.00100016 7.46997e-08 0)
(0.000999163 1.39419e-07 0)
(0.000999834 2.03583e-07 0)
(0.000997491 5.27418e-07 0)
(0.000998849 1.06112e-06 0)
(0.000993344 2.80272e-06 0)
(0.000997507 5.47559e-06 0)
(0.000991652 1.13871e-05 0)
(0.000915833 1.25429e-05 0)
(0.000951472 -4.75905e-07 0)
(0.00101021 -1.489e-05 0)
(0.00099089 -1.33718e-05 0)
(0.000983867 -5.49993e-06 0)
(0.000989453 -6.24129e-07 0)
(0.00099614 2.51655e-07 0)
(0.000999116 -4.83644e-07 0)
(0.000999286 -1.00647e-06 0)
(0.000998536 -1.01379e-06 0)
(0.000998365 -9.14813e-07 0)
(0.000999976 6.72286e-08 0)
(0.000999906 2.57886e-07 0)
(0.00099971 4.10749e-07 0)
(0.00099947 6.93426e-07 0)
(0.00099926 1.27292e-06 0)
(0.000999217 2.44221e-06 0)
(0.000999711 4.66216e-06 0)
(0.00100139 7.98923e-06 0)
(0.0010049 1.31301e-05 0)
(0.0010096 1.46942e-05 0)
(0.00101191 -4.06413e-06 0)
(0.00100889 -1.89599e-05 0)
(0.00100209 -1.60343e-05 0)
(0.000997382 -6.08152e-06 0)
(0.000996704 -7.62072e-08 0)
(0.000998303 7.56269e-07 0)
(0.00100009 -4.4468e-07 0)
(0.00100077 -1.28695e-06 0)
(0.00100077 -1.38619e-06 0)
(0.00100027 -1.28063e-06 0)
(0.000999977 1.19602e-07 0)
(0.000999959 3.80791e-07 0)
(0.00099987 6.29632e-07 0)
(0.000999819 9.13316e-07 0)
(0.000999843 1.50396e-06 0)
(0.00100008 2.32513e-06 0)
(0.00100048 3.41034e-06 0)
(0.00100147 4.07131e-06 0)
(0.00100302 4.21896e-06 0)
(0.00100596 2.34031e-06 0)
(0.00100904 -9.70219e-07 0)
(0.00100905 -4.4745e-06 0)
(0.00100536 -4.9368e-06 0)
(0.00100056 -3.08273e-06 0)
(0.000997946 -1.13463e-06 0)
(0.00099803 -2.88746e-07 0)
(0.000999534 -3.42385e-07 0)
(0.00100055 -6.99142e-07 0)
(0.00100096 -9.58198e-07 0)
(0.00100045 -1.10852e-06 0)
(0.000999983 1.3413e-07 0)
(0.000999993 4.51262e-07 0)
(0.000999995 6.72005e-07 0)
(0.00100003 9.12534e-07 0)
(0.00100017 1.31483e-06 0)
(0.00100046 1.94809e-06 0)
(0.00100097 2.54493e-06 0)
(0.00100184 3.08152e-06 0)
(0.00100317 3.12651e-06 0)
(0.00100468 2.70839e-06 0)
(0.00100567 5.1787e-07 0)
(0.00100524 -2.68045e-06 0)
(0.00100332 -4.97863e-06 0)
(0.00100087 -5.01526e-06 0)
(0.000999299 -3.4601e-06 0)
(0.000999012 -1.84175e-06 0)
(0.000999649 -1.0364e-06 0)
(0.00100016 -9.94192e-07 0)
(0.00100051 -1.284e-06 0)
(0.00100013 -1.55258e-06 0)
(0.000999985 1.33561e-07 0)
(0.00100001 4.47687e-07 0)
(0.00100007 6.40891e-07 0)
(0.00100016 7.94001e-07 0)
(0.00100034 1.09455e-06 0)
(0.00100065 1.54065e-06 0)
(0.00100111 1.94186e-06 0)
(0.00100172 2.06962e-06 0)
(0.00100245 1.79819e-06 0)
(0.00100315 1.00838e-06 0)
(0.00100363 -2.50486e-07 0)
(0.00100359 -1.67014e-06 0)
(0.00100285 -2.58341e-06 0)
(0.00100161 -2.56465e-06 0)
(0.00100046 -1.78444e-06 0)
(0.000999791 -9.38107e-07 0)
(0.000999752 -4.35371e-07 0)
(0.000999875 -3.708e-07 0)
(0.00100011 -5.83073e-07 0)
(0.0009999 -8.84987e-07 0)
(0.000999987 1.15096e-07 0)
(0.00100002 4.03763e-07 0)
(0.00100012 5.53375e-07 0)
(0.00100022 6.42076e-07 0)
(0.00100039 8.43699e-07 0)
(0.00100067 1.16156e-06 0)
(0.00100104 1.39103e-06 0)
(0.00100148 1.37261e-06 0)
(0.00100197 1.09591e-06 0)
(0.00100245 6.39572e-07 0)
(0.00100276 4.75181e-08 0)
(0.00100268 -6.68302e-07 0)
(0.00100218 -1.32781e-06 0)
(0.00100136 -1.70316e-06 0)
(0.00100051 -1.66614e-06 0)
(0.000999882 -1.38575e-06 0)
(0.000999668 -1.03138e-06 0)
(0.000999648 -8.52465e-07 0)
(0.000999781 -9.08658e-07 0)
(0.000999656 -1.14439e-06 0)
(0.00099999 8.83112e-08 0)
(0.00100002 3.29503e-07 0)
(0.00100014 4.37932e-07 0)
(0.00100025 4.78721e-07 0)
(0.0010004 6.09149e-07 0)
(0.00100063 8.31581e-07 0)
(0.00100093 9.81195e-07 0)
(0.00100126 9.36596e-07 0)
(0.0010016 7.16142e-07 0)
(0.00100186 3.94879e-07 0)
(0.00100199 -1.50509e-08 0)
(0.00100192 -4.77558e-07 0)
(0.00100162 -9.17746e-07 0)
(0.0010011 -1.21366e-06 0)
(0.00100053 -1.22834e-06 0)
(0.00100003 -1.02791e-06 0)
(0.000999776 -7.0001e-07 0)
(0.000999609 -4.75946e-07 0)
(0.000999643 -4.51185e-07 0)
(0.000999442 -6.29066e-07 0)
(0.000999993 6.1575e-08 0)
(0.00100002 2.42285e-07 0)
(0.00100015 3.0806e-07 0)
(0.00100026 3.1244e-07 0)
(0.00100038 3.87342e-07 0)
(0.00100058 5.32153e-07 0)
(0.00100084 6.20162e-07 0)
(0.0010011 5.57365e-07 0)
(0.00100134 3.77432e-07 0)
(0.00100151 1.46067e-07 0)
(0.00100158 -8.69929e-08 0)
(0.0010015 -3.35167e-07 0)
(0.00100128 -5.83035e-07 0)
(0.00100092 -7.85205e-07 0)
(0.00100051 -8.44864e-07 0)
(0.00100008 -7.92711e-07 0)
(0.000999797 -6.34859e-07 0)
(0.000999549 -5.3394e-07 0)
(0.000999519 -5.29976e-07 0)
(0.000999265 -7.06394e-07 0)
(0.000999996 3.80699e-08 0)
(0.00100001 1.59713e-07 0)
(0.00100014 2.12393e-07 0)
(0.00100024 2.25304e-07 0)
(0.00100035 2.79464e-07 0)
(0.00100052 3.78661e-07 0)
(0.00100074 4.4424e-07 0)
(0.00100095 4.22102e-07 0)
(0.00100113 3.30669e-07 0)
(0.00100123 2.18732e-07 0)
(0.00100126 1.03081e-07 0)
(0.0010012 -1.83075e-08 0)
(0.00100105 -1.42838e-07 0)
(0.00100076 -2.57558e-07 0)
(0.00100041 -3.05747e-07 0)
(0.00100002 -2.94459e-07 0)
(0.000999734 -1.99219e-07 0)
(0.000999464 -1.25933e-07 0)
(0.000999407 -9.79035e-08 0)
(0.000999123 -2.13349e-07 0)
(0.000999997 -5.05119e-09 0)
(0.00100002 5.82693e-09 0)
(0.00100016 9.72505e-10 0)
(0.00100026 -1.56519e-08 0)
(0.00100035 -2.19373e-08 0)
(0.00100051 -1.33332e-08 0)
(0.00100072 -1.05528e-08 0)
(0.00100092 -3.28973e-08 0)
(0.00100108 -7.21907e-08 0)
(0.00100116 -1.17722e-07 0)
(0.00100117 -1.57532e-07 0)
(0.00100109 -2.06905e-07 0)
(0.00100095 -2.65003e-07 0)
(0.0010007 -3.2738e-07 0)
(0.0010004 -3.58118e-07 0)
(0.00100003 -3.72362e-07 0)
(0.000999773 -3.40017e-07 0)
(0.000999455 -3.35937e-07 0)
(0.00099941 -3.19866e-07 0)
(0.000999003 -4.15487e-07 0)
)
;

boundaryField
{
    sides
    {
        type            slip;
    }
    inlet
    {
        type            fixedValue;
        value           uniform (0.001 0 0);
    }
    outlet
    {
        type            zeroGradient;
    }
    frontAndBack
    {
        type            empty;
    }
}


// ************************************************************************* //
