/*--------------------------------*- C++ -*----------------------------------*\
  =========                 |
  \\      /  F ield         | OpenFOAM: The Open Source CFD Toolbox
   \\    /   O peration     | Website:  https://openfoam.org
    \\  /    A nd           | Version:  9
     \\/     M anipulation  |
\*---------------------------------------------------------------------------*/
FoamFile
{
    format      ascii;
    class       surfaceScalarField;
    location    "27";
    object      phi;
}
// * * * * * * * * * * * * * * * * * * * * * * * * * * * * * * * * * * * * * //

dimensions      [0 4 -1 0 0 0 0];

internalField   nonuniform List<scalar> 
760
(
4.99997e-06
-1.12481e-10
5.00037e-06
-4.91521e-10
5.00095e-06
-6.36977e-10
5.00154e-06
-6.52543e-10
5.00225e-06
-8.11494e-10
5.00322e-06
-1.1274e-09
5.00437e-06
-1.32854e-09
5.00542e-06
-1.23118e-09
5.00615e-06
-9.02777e-10
5.00652e-06
-5.3109e-10
5.00654e-06
-1.83094e-10
5.00614e-06
2.11453e-10
5.00527e-06
6.69995e-10
5.00407e-06
1.01395e-09
5.00275e-06
1.19527e-09
5.00168e-06
1.03288e-09
5.00099e-06
7.09536e-10
5.00098e-06
4.45168e-11
5.00102e-06
-1.51166e-11
-3.76333e-10
5.00001e-06
-2.51474e-10
5.00042e-06
-9.91996e-10
5.001e-06
-1.28573e-09
5.00163e-06
-1.34322e-09
5.00241e-06
-1.6879e-09
5.00348e-06
-2.33757e-09
5.00475e-06
-2.76995e-09
5.00597e-06
-2.61649e-09
5.00689e-06
-1.98781e-09
5.00739e-06
-1.16838e-09
5.00729e-06
-2.34178e-10
5.00674e-06
5.96664e-10
5.00571e-06
1.51165e-09
5.00431e-06
2.2582e-09
5.00292e-06
2.48498e-09
5.00195e-06
1.97277e-09
5.00149e-06
1.19301e-09
5.00128e-06
2.86898e-10
5.00112e-06
1.54115e-10
-1.1454e-10
5.00001e-06
-3.92735e-10
5.00038e-06
-1.45964e-09
5.00094e-06
-1.93091e-09
5.00162e-06
-2.10028e-09
5.00251e-06
-2.66672e-09
5.00371e-06
-3.65747e-09
5.00515e-06
-4.34474e-09
5.00658e-06
-4.17699e-09
5.00773e-06
-3.25558e-09
5.00842e-06
-1.96602e-09
5.00853e-06
-4.60474e-10
5.00781e-06
1.1736e-09
5.00637e-06
2.80317e-09
5.00455e-06
3.94814e-09
5.00279e-06
4.18574e-09
5.00148e-06
3.2672e-09
5.00085e-06
1.85721e-09
5.0009e-06
2.68149e-10
5.00102e-06
2.87155e-11
-1.91743e-10
5.00003e-06
-5.28737e-10
5.00034e-06
-1.88077e-09
5.00088e-06
-2.55404e-09
5.00162e-06
-2.90796e-09
5.00265e-06
-3.77445e-09
5.00408e-06
-5.17812e-09
5.00587e-06
-6.21663e-09
5.00783e-06
-6.22073e-09
5.00968e-06
-5.16573e-09
5.01083e-06
-3.19206e-09
5.01088e-06
-5.72981e-10
5.00959e-06
2.34329e-09
5.00716e-06
5.11839e-09
5.00455e-06
6.46591e-09
5.0028e-06
5.89333e-09
5.00202e-06
4.05965e-09
5.00187e-06
2.05218e-09
5.00171e-06
4.69543e-10
5.00143e-06
3.44648e-10
3.6213e-10
5.00003e-06
-6.47892e-10
5.00025e-06
-2.1971e-09
5.00071e-06
-3.09622e-09
5.00148e-06
-3.74119e-09
5.00268e-06
-5.02727e-09
5.0044e-06
-6.94202e-09
5.00666e-06
-8.49808e-09
5.00931e-06
-8.88429e-09
5.01228e-06
-8.14827e-09
5.01463e-06
-5.54449e-09
5.0146e-06
-6.25513e-10
5.01252e-06
4.37622e-09
5.00824e-06
9.31179e-09
5.00404e-06
1.05908e-08
5.00159e-06
8.32318e-09
5.00103e-06
4.63484e-09
5.00135e-06
1.77499e-09
5.00176e-06
1.19318e-10
5.0016e-06
5.35915e-10
6.57283e-10
5.00001e-06
-7.13915e-10
5.00008e-06
-2.3481e-09
5.00036e-06
-3.43982e-09
5.00103e-06
-4.4491e-09
5.00225e-06
-6.26484e-09
5.0044e-06
-9.06184e-09
5.00749e-06
-1.15507e-08
5.01157e-06
-1.29159e-08
5.01546e-06
-1.19943e-08
5.01898e-06
-8.9996e-09
5.02008e-06
-1.76116e-09
5.01572e-06
8.64551e-09
5.00905e-06
1.59453e-08
5.00366e-06
1.59387e-08
5.00158e-06
1.03739e-08
5.00195e-06
4.29743e-09
5.00277e-06
1.02e-09
5.00286e-06
9.12757e-11
5.00231e-06
1.1407e-09
1.42641e-09
4.99996e-06
-6.90656e-10
4.99979e-06
-2.22499e-09
4.99979e-06
-3.47781e-09
5.00015e-06
-4.80988e-09
5.00109e-06
-7.16201e-09
5.00283e-06
-1.07094e-08
5.00673e-06
-1.53242e-08
5.01386e-06
-1.99489e-08
5.02377e-06
-2.17548e-08
5.03091e-06
-1.61832e-08
5.02871e-06
5.72434e-10
5.01654e-06
2.06882e-08
5.00379e-06
2.85888e-08
4.99819e-06
2.15011e-08
4.99997e-06
8.57688e-09
5.00229e-06
2.00067e-09
5.00323e-06
1.49348e-10
5.00316e-06
2.47076e-10
5.00259e-06
1.77294e-09
1.66556e-09
4.99986e-06
-5.19571e-10
4.99939e-06
-1.75782e-09
4.99884e-06
-2.93796e-09
4.99862e-06
-4.54951e-09
4.99923e-06
-7.66365e-09
5.00032e-06
-1.16449e-08
5.00359e-06
-1.8407e-08
5.00977e-06
-2.59552e-08
5.02494e-06
-3.68172e-08
5.05623e-06
-4.74663e-08
5.05003e-06
6.42522e-09
5.02302e-06
4.77133e-08
4.99778e-06
5.36924e-08
4.99297e-06
2.62025e-08
4.99888e-06
2.62627e-09
5.00356e-06
-2.65926e-09
5.00443e-06
-6.5577e-10
5.00328e-06
1.48947e-09
5.00305e-06
2.06907e-09
9.28498e-10
4.99977e-06
-2.22075e-10
4.99897e-06
-9.30734e-10
4.99761e-06
-1.54988e-09
4.99587e-06
-2.73283e-09
4.99393e-06
-5.57305e-09
4.99372e-06
-1.12235e-08
4.99944e-06
-2.38818e-08
5.01716e-06
-4.3484e-08
5.05581e-06
-7.53309e-08
5.067e-06
-5.8627e-08
5.04988e-06
2.38082e-08
4.99637e-06
1.00995e-07
4.98892e-06
6.10192e-08
4.99538e-06
1.9629e-08
4.99962e-06
-1.68248e-09
5.00243e-06
-5.47762e-09
5.0021e-06
-2.39701e-10
5.00138e-06
2.28899e-09
5.00208e-06
1.44406e-09
9.49057e-13
4.99987e-06
-1.52514e-12
4.99901e-06
-3.21784e-11
4.99758e-06
-6.79806e-11
4.99506e-06
-1.15202e-10
4.98984e-06
-1.75317e-10
4.9791e-06
-2.50596e-10
4.9558e-06
-3.24937e-10
4.91297e-06
-4.21021e-10
4.83821e-06
-4.97801e-10
4.78018e-06
-4.68633e-10
4.80434e-06
-6.12624e-10
4.90592e-06
-6.28719e-10
4.96741e-06
-6.04837e-10
4.98765e-06
-7.55144e-10
4.9869e-06
-1.01397e-09
4.98278e-06
-1.37097e-09
4.98418e-06
-1.6057e-09
4.98846e-06
-1.9112e-09
4.99203e-06
-2.05637e-09
-2.69474e-09
4.99987e-06
2.17262e-10
4.99902e-06
8.64845e-10
4.99758e-06
1.41832e-09
4.99506e-06
2.50667e-09
4.98982e-06
5.23404e-09
4.97906e-06
1.07338e-08
4.95574e-06
2.32433e-08
4.91289e-06
4.26587e-08
4.83815e-06
7.44023e-08
4.77993e-06
5.77615e-08
4.80436e-06
-2.50476e-08
4.90586e-06
-1.02294e-07
4.96736e-06
-6.22822e-08
4.9875e-06
-2.1029e-08
4.98678e-06
-3.70942e-10
4.98245e-06
2.95452e-09
4.98403e-06
-3.1335e-09
4.98845e-06
-6.25202e-09
4.99189e-06
-5.43547e-09
-5.12242e-09
4.99978e-06
5.13085e-10
4.99898e-06
1.69837e-09
4.99763e-06
2.80369e-09
4.99589e-06
4.31746e-09
4.99396e-06
7.30512e-09
4.99374e-06
1.11513e-08
4.99942e-06
1.77781e-08
5.01708e-06
2.52039e-08
5.05571e-06
3.59481e-08
5.06721e-06
4.62661e-08
5.04954e-06
-7.98838e-09
4.99597e-06
-4.88591e-08
4.98845e-06
-5.49163e-08
4.99514e-06
-2.78212e-08
4.99958e-06
-4.86587e-09
5.00184e-06
6.91003e-10
5.00124e-06
-2.49062e-09
5.00045e-06
-5.37902e-09
5.00121e-06
-6.13264e-09
-6.1138e-09
4.99988e-06
6.82847e-10
4.99941e-06
2.16993e-09
4.99887e-06
3.35055e-09
4.99864e-06
4.58373e-09
4.9992e-06
6.83032e-09
5.00025e-06
1.02513e-08
5.00341e-06
1.47832e-08
5.00956e-06
1.92323e-08
5.02464e-06
2.09481e-08
5.05571e-06
1.52762e-08
5.0498e-06
-1.58929e-09
5.02263e-06
-2.18034e-08
4.99744e-06
-2.9819e-08
4.99259e-06
-2.30791e-08
4.99805e-06
-1.03762e-08
5.00296e-06
-4.20617e-09
5.00328e-06
-2.75323e-09
5.00188e-06
-3.90127e-09
5.00168e-06
-5.86876e-09
-6.71432e-09
4.99998e-06
7.08732e-10
4.99982e-06
2.30286e-09
4.99981e-06
3.32769e-09
5.00015e-06
4.24722e-09
5.00105e-06
5.96275e-09
5.00274e-06
8.64067e-09
5.00663e-06
1.09988e-08
5.01375e-06
1.22252e-08
5.02356e-06
1.12066e-08
5.03068e-06
8.16304e-09
5.02829e-06
7.39512e-10
5.01603e-06
-9.57824e-09
5.00309e-06
-1.70049e-08
4.99723e-06
-1.73005e-08
4.99883e-06
-1.2013e-08
5.00108e-06
-6.43169e-09
5.00192e-06
-3.52378e-09
5.00163e-06
-3.53641e-09
5.0007e-06
-4.87369e-09
-6.16306e-09
5.00003e-06
6.47997e-10
5.00011e-06
2.1659e-09
5.00038e-06
3.00163e-09
5.00103e-06
3.562e-09
5.00222e-06
4.75142e-09
5.00431e-06
6.56301e-09
5.00733e-06
8.01844e-09
5.0113e-06
8.30442e-09
5.01505e-06
7.50515e-09
5.01842e-06
4.76884e-09
5.01942e-06
-2.69904e-10
5.01493e-06
-5.20314e-09
5.00808e-06
-1.02505e-08
5.00254e-06
-1.18327e-08
5.00028e-06
-9.77353e-09
5.00044e-06
-6.56412e-09
5.00101e-06
-4.03394e-09
5.00079e-06
-3.24195e-09
4.99984e-06
-3.87386e-09
-5.16032e-09
5.00005e-06
5.25083e-10
5.00028e-06
1.85203e-09
5.00073e-06
2.47057e-09
5.00147e-06
2.75499e-09
5.00263e-06
3.54397e-09
5.00429e-06
4.86331e-09
5.00645e-06
5.82391e-09
5.009e-06
5.73918e-09
5.01193e-06
4.56514e-09
5.01424e-06
2.42123e-09
5.01385e-06
4.34844e-11
5.01168e-06
-3.12913e-09
5.00726e-06
-5.92703e-09
5.00291e-06
-7.5696e-09
5.0003e-06
-7.19252e-09
4.99949e-06
-5.72507e-09
4.99949e-06
-3.98527e-09
4.99933e-06
-3.02094e-09
4.99865e-06
-3.15611e-09
-4.33622e-09
5.00004e-06
3.72505e-10
5.00037e-06
1.43256e-09
5.0009e-06
1.86441e-09
5.00162e-06
1.97172e-09
5.00261e-06
2.48238e-09
5.00397e-06
3.40793e-09
5.00567e-06
4.03016e-09
5.00751e-06
3.80973e-09
5.00913e-06
2.87035e-09
5.00995e-06
1.53124e-09
5.01007e-06
-1.6642e-10
5.0086e-06
-1.77705e-09
5.00601e-06
-3.46499e-09
5.0031e-06
-4.75345e-09
5.00088e-06
-5.0275e-09
4.99965e-06
-4.48523e-09
4.99903e-06
-3.32712e-09
4.99857e-06
-2.52455e-09
4.9979e-06
-2.45741e-09
-3.34871e-09
5.00003e-06
2.35724e-10
5.00041e-06
9.68956e-10
5.00098e-06
1.24224e-09
5.00163e-06
1.26632e-09
5.00247e-06
1.56497e-09
5.00361e-06
2.15125e-09
5.00497e-06
2.52224e-09
5.00633e-06
2.31068e-09
5.00743e-06
1.64242e-09
5.00804e-06
8.06128e-10
5.00772e-06
1.38838e-11
5.0068e-06
-1.00566e-09
5.00514e-06
-1.96145e-09
5.00307e-06
-2.81841e-09
5.0011e-06
-3.14197e-09
4.99959e-06
-2.98633e-09
4.99858e-06
-2.3023e-09
4.9979e-06
-1.81822e-09
4.99717e-06
-1.70212e-09
-2.37103e-09
5e-06
1.23409e-10
5.00039e-06
4.93491e-10
5.00095e-06
6.22734e-10
5.00155e-06
6.19744e-10
5.00227e-06
7.57103e-10
5.00324e-06
1.05076e-09
5.00436e-06
1.2355e-09
5.00537e-06
1.12352e-09
5.00607e-06
7.81031e-10
5.00637e-06
3.52581e-10
5.0063e-06
-7.9409e-11
5.00556e-06
-4.44023e-10
5.00427e-06
-8.70248e-10
5.00256e-06
-1.28791e-09
5.00078e-06
-1.46983e-09
4.99922e-06
-1.47073e-09
4.99809e-06
-1.17015e-09
4.99729e-06
-9.90786e-10
4.99649e-06
-9.02095e-10
-1.47159e-09
5.00002e-06
5.00044e-06
5.00103e-06
5.0016e-06
5.00227e-06
5.00317e-06
5.00423e-06
5.00516e-06
5.00577e-06
5.00595e-06
5.00569e-06
5.00504e-06
5.00395e-06
5.00247e-06
5.00086e-06
4.99934e-06
4.99817e-06
4.99719e-06
4.99629e-06
)
;

boundaryField
{
    sides
    {
        type            calculated;
        value           uniform 0;
    }
    inlet
    {
        type            calculated;
        value           nonuniform List<scalar> 
20
(
-5e-06
-5e-06
-5e-06
-5e-06
-5e-06
-5e-06
-5e-06
-5e-06
-5e-06
-5e-06
-5e-06
-5e-06
-5e-06
-5e-06
-5e-06
-5e-06
-5e-06
-5e-06
-5e-06
-5e-06
)
;
    }
    outlet
    {
        type            calculated;
        value           nonuniform List<scalar> 
20
(
5.00141e-06
5.00085e-06
5.00111e-06
5.00089e-06
5.00132e-06
5.00156e-06
5.00237e-06
5.00382e-06
5.00303e-06
4.99475e-06
4.99435e-06
5.00223e-06
5.00231e-06
5.00017e-06
4.99886e-06
4.99784e-06
4.99692e-06
4.99619e-06
4.9956e-06
4.99482e-06
)
;
    }
    frontAndBack
    {
        type            empty;
        value           nonuniform List<scalar> 0();
    }
}


// ************************************************************************* //
