/*--------------------------------*- C++ -*----------------------------------*\
  =========                 |
  \\      /  F ield         | OpenFOAM: The Open Source CFD Toolbox
   \\    /   O peration     | Website:  https://openfoam.org
    \\  /    A nd           | Version:  9
     \\/     M anipulation  |
\*---------------------------------------------------------------------------*/
FoamFile
{
    format      ascii;
    class       surfaceScalarField;
    location    "27";
    object      phi_0;
}
// * * * * * * * * * * * * * * * * * * * * * * * * * * * * * * * * * * * * * //

dimensions      [0 4 -1 0 0 0 0];

internalField   nonuniform List<scalar> 
760
(
4.99996e-06
-1.50981e-10
5.00035e-06
-5.23037e-10
5.00088e-06
-6.15415e-10
5.00145e-06
-6.18745e-10
5.00219e-06
-8.0697e-10
5.00323e-06
-1.12883e-09
5.0044e-06
-1.29915e-09
5.00543e-06
-1.16744e-09
5.00615e-06
-8.44594e-10
5.00653e-06
-4.98387e-10
5.00658e-06
-1.72306e-10
5.0062e-06
2.30848e-10
5.00532e-06
7.0748e-10
5.00408e-06
1.05697e-09
5.00272e-06
1.22636e-09
5.00162e-06
1.03611e-09
5.00095e-06
6.90112e-10
5.00096e-06
4.10998e-11
5.00099e-06
1.06236e-11
-3.61524e-10
5.00001e-06
-3.27008e-10
5.0004e-06
-1.03762e-09
5.00095e-06
-1.23606e-09
5.00156e-06
-1.28295e-09
5.00237e-06
-1.6836e-09
5.00349e-06
-2.34493e-09
5.00478e-06
-2.71632e-09
5.00599e-06
-2.50211e-09
5.0069e-06
-1.88068e-09
5.0074e-06
-1.11438e-09
5.00732e-06
-2.1152e-10
5.0068e-06
6.18757e-10
5.00576e-06
1.57331e-09
5.00432e-06
2.33478e-09
5.00289e-06
2.53708e-09
5.00189e-06
1.98141e-09
5.00143e-06
1.1646e-09
5.00124e-06
2.81692e-10
5.00109e-06
1.94169e-10
-7.2915e-11
5.00002e-06
-4.85562e-10
5.00038e-06
-1.51638e-09
5.00091e-06
-1.86179e-09
5.00158e-06
-2.01502e-09
5.00249e-06
-2.65666e-09
5.00373e-06
-3.66866e-09
5.00518e-06
-4.27743e-09
5.0066e-06
-4.03516e-09
5.00774e-06
-3.12058e-09
5.00844e-06
-1.9024e-09
5.00858e-06
-4.47145e-10
5.00787e-06
1.20167e-09
5.00641e-06
2.87583e-09
5.00456e-06
4.04594e-09
5.00275e-06
4.25348e-09
5.00143e-06
3.27182e-09
5.00081e-06
1.80561e-09
5.00087e-06
2.56996e-10
5.00096e-06
1.27065e-10
-1.55686e-10
5.00004e-06
-6.29477e-10
5.00036e-06
-1.93358e-09
5.00087e-06
-2.46411e-09
5.0016e-06
-2.80715e-09
5.00266e-06
-3.76645e-09
5.00411e-06
-5.19757e-09
5.0059e-06
-6.1544e-09
5.00786e-06
-6.06899e-09
5.0097e-06
-5.02889e-09
5.01086e-06
-3.12674e-09
5.01092e-06
-5.79266e-10
5.00964e-06
2.35951e-09
5.0072e-06
5.19721e-09
5.00456e-06
6.56806e-09
5.00277e-06
5.9701e-09
5.00197e-06
4.07174e-09
5.0018e-06
2.0081e-09
5.00164e-06
4.59375e-10
5.0014e-06
4.15665e-10
4.09852e-10
5.00005e-06
-7.47152e-10
5.00028e-06
-2.24435e-09
5.00074e-06
-3.00218e-09
5.00151e-06
-3.63687e-09
5.00271e-06
-5.0219e-09
5.00444e-06
-6.97708e-09
5.0067e-06
-8.44864e-09
5.00933e-06
-8.74791e-09
5.01231e-06
-8.01516e-09
5.01465e-06
-5.51303e-09
5.01465e-06
-6.32582e-10
5.01257e-06
4.36142e-09
5.00827e-06
9.37572e-09
5.00404e-06
1.06981e-08
5.00155e-06
8.40097e-09
5.00098e-06
4.64278e-09
5.0013e-06
1.71521e-09
5.0017e-06
1.06117e-10
5.00153e-06
6.22246e-10
7.09056e-10
5.00004e-06
-8.00171e-10
5.00013e-06
-2.38406e-09
5.00042e-06
-3.34569e-09
5.00109e-06
-4.35043e-09
5.00231e-06
-6.27057e-09
5.00444e-06
-9.10825e-09
5.00752e-06
-1.15213e-08
5.01161e-06
-1.28001e-08
5.01549e-06
-1.18974e-08
5.01902e-06
-8.99536e-09
5.0201e-06
-1.78585e-09
5.01578e-06
8.65127e-09
5.00909e-06
1.59807e-08
5.00367e-06
1.60198e-08
5.00157e-06
1.04439e-08
5.0019e-06
4.30676e-09
5.00269e-06
9.67916e-10
5.00278e-06
7.55304e-11
5.00224e-06
1.21469e-09
1.47358e-09
5e-06
-7.58639e-10
4.99985e-06
-2.24907e-09
4.99989e-06
-3.39608e-09
5.00025e-06
-4.72907e-09
5.00117e-06
-7.17309e-09
5.00288e-06
-1.07613e-08
5.00676e-06
-1.53138e-08
5.0139e-06
-1.98711e-08
5.02378e-06
-2.16953e-08
5.03098e-06
-1.61323e-08
5.02875e-06
3.99758e-10
5.01657e-06
2.06837e-08
5.00383e-06
2.86483e-08
4.9982e-06
2.15719e-08
4.99995e-06
8.62837e-09
5.00224e-06
2.00074e-09
5.00316e-06
9.74645e-11
5.00307e-06
2.3073e-10
5.00251e-06
1.83554e-09
1.70697e-09
4.9999e-06
-5.6772e-10
4.99946e-06
-1.77308e-09
4.99896e-06
-2.87922e-09
4.99875e-06
-4.49526e-09
4.99932e-06
-7.6784e-09
5.00037e-06
-1.16872e-08
5.00361e-06
-1.84097e-08
5.0098e-06
-2.59133e-08
5.025e-06
-3.67591e-08
5.05625e-06
-4.74862e-08
5.05018e-06
7.63843e-09
5.02304e-06
4.7683e-08
4.9978e-06
5.37217e-08
4.993e-06
2.6254e-08
4.99888e-06
2.66214e-09
5.00352e-06
-2.66067e-09
5.00434e-06
-6.89895e-10
5.00317e-06
1.47526e-09
5.00297e-06
2.1147e-09
9.63212e-10
4.99981e-06
-2.49833e-10
4.99905e-06
-9.41617e-10
4.99774e-06
-1.52366e-09
4.99602e-06
-2.71112e-09
4.99404e-06
-5.59074e-09
4.99377e-06
-1.12591e-08
4.99945e-06
-2.38855e-08
5.01719e-06
-4.34628e-08
5.05584e-06
-7.53223e-08
5.06709e-06
-5.85847e-08
5.0498e-06
2.36743e-08
4.99641e-06
1.00988e-07
4.98895e-06
6.10478e-08
4.99539e-06
1.9648e-08
4.99961e-06
-1.67264e-09
5.00239e-06
-5.484e-09
5.002e-06
-2.98051e-10
5.00127e-06
2.2792e-09
5.00198e-06
1.46596e-09
2.32182e-11
4.99991e-06
-6.97219e-12
4.9991e-06
-4.20067e-11
4.99772e-06
-8.10435e-11
4.99522e-06
-1.30377e-10
4.98995e-06
-1.9122e-10
4.97915e-06
-2.6448e-10
4.95581e-06
-3.34105e-10
4.91299e-06
-4.17896e-10
4.83828e-06
-4.95922e-10
4.78019e-06
-4.99215e-10
4.8044e-06
-5.85117e-10
4.90597e-06
-6.31614e-10
4.96742e-06
-6.31195e-10
4.98766e-06
-7.7261e-10
4.9869e-06
-1.0277e-09
4.98274e-06
-1.38675e-09
4.98409e-06
-1.61682e-09
4.98834e-06
-1.91969e-09
4.99192e-06
-2.0583e-09
-2.68505e-09
4.99991e-06
2.34708e-10
4.9991e-06
8.57794e-10
4.99772e-06
1.3692e-09
4.99522e-06
2.4566e-09
4.98993e-06
5.2223e-09
4.97912e-06
1.07418e-08
4.95576e-06
2.32298e-08
4.91291e-06
4.26265e-08
4.83818e-06
7.43886e-08
4.77999e-06
5.77626e-08
4.80439e-06
-2.50697e-08
4.90588e-06
-1.02274e-07
4.96739e-06
-6.22992e-08
4.98752e-06
-2.10592e-08
4.98679e-06
-4.08009e-10
4.98241e-06
2.92764e-09
4.98394e-06
-3.13788e-09
4.98833e-06
-6.26092e-09
4.99179e-06
-5.46133e-09
-5.12798e-09
4.99982e-06
5.53059e-10
4.99906e-06
1.69661e-09
4.99776e-06
2.72264e-09
4.99604e-06
4.2372e-09
4.99408e-06
7.29342e-09
4.9938e-06
1.11707e-08
4.99945e-06
1.77569e-08
5.0171e-06
2.51401e-08
5.05573e-06
3.591e-08
5.0672e-06
4.63133e-08
5.0496e-06
-7.23425e-09
4.996e-06
-4.88402e-08
4.98849e-06
-5.49024e-08
4.99517e-06
-2.78668e-08
4.99959e-06
-4.92799e-09
5.00179e-06
6.70167e-10
5.00115e-06
-2.48606e-09
5.00033e-06
-5.38846e-09
5.00111e-06
-6.18387e-09
-6.13336e-09
4.99992e-06
7.46098e-10
4.99948e-06
2.17997e-09
4.99898e-06
3.25135e-09
4.99877e-06
4.48257e-09
4.9993e-06
6.81793e-09
5.0003e-06
1.02793e-08
5.00344e-06
1.47493e-08
5.00958e-06
1.91336e-08
5.0247e-06
2.08641e-08
5.05581e-06
1.52794e-08
5.04981e-06
-1.61289e-09
5.02267e-06
-2.17432e-08
4.99746e-06
-2.98522e-08
4.99262e-06
-2.31574e-08
4.99805e-06
-1.04476e-08
5.00292e-06
-4.23734e-09
5.00319e-06
-2.73717e-09
5.00177e-06
-3.90532e-09
5.00159e-06
-5.93795e-09
-6.74393e-09
5.00002e-06
7.92335e-10
4.99988e-06
2.32962e-09
4.99991e-06
3.22061e-09
5.00025e-06
4.13355e-09
5.00113e-06
5.94835e-09
5.00279e-06
8.66349e-09
5.00667e-06
1.09474e-08
5.01378e-06
1.20984e-08
5.02361e-06
1.11039e-08
5.0307e-06
8.12376e-09
5.02837e-06
7.95876e-10
5.01605e-06
-9.57322e-09
5.00312e-06
-1.70547e-08
4.99724e-06
-1.73935e-08
4.99882e-06
-1.20971e-08
5.00104e-06
-6.46493e-09
5.00184e-06
-3.4957e-09
5.00154e-06
-3.53756e-09
5.00061e-06
-4.95405e-09
-6.19993e-09
5.00006e-06
7.45784e-10
5.00015e-06
2.20966e-09
5.00044e-06
2.89706e-09
5.0011e-06
3.44458e-09
5.00228e-06
4.73298e-09
5.00436e-06
6.57907e-09
5.00736e-06
7.95044e-09
5.01133e-06
8.15473e-09
5.01508e-06
7.37518e-09
5.01847e-06
4.73535e-09
5.01946e-06
-2.85446e-10
5.01497e-06
-5.19484e-09
5.00811e-06
-1.031e-08
5.00256e-06
-1.1939e-08
5.00027e-06
-9.86341e-09
5.0004e-06
-6.59387e-09
5.00094e-06
-3.99838e-09
5.00071e-06
-3.24197e-09
4.99977e-06
-3.95918e-09
-5.20082e-09
5.00007e-06
6.34388e-10
5.00031e-06
1.91223e-09
5.00076e-06
2.38261e-09
5.0015e-06
2.64918e-09
5.00267e-06
3.52736e-09
5.00433e-06
4.87204e-09
5.00649e-06
5.74641e-09
5.00903e-06
5.57817e-09
5.01195e-06
4.42407e-09
5.01428e-06
2.36665e-09
5.01389e-06
3.80597e-11
5.01173e-06
-3.13727e-09
5.0073e-06
-5.99684e-09
5.00293e-06
-7.67729e-09
5.00029e-06
-7.27966e-09
4.99944e-06
-5.75388e-09
4.99943e-06
-3.95274e-09
4.99926e-06
-3.02098e-09
4.99858e-06
-3.23752e-09
-4.37572e-09
5.00006e-06
4.76841e-10
5.00038e-06
1.49357e-09
5.00089e-06
1.79399e-09
5.0016e-06
1.88363e-09
5.00261e-06
2.46733e-09
5.004e-06
3.41109e-09
5.0057e-06
3.95357e-09
5.00754e-06
3.65912e-09
5.00915e-06
2.73221e-09
5.00999e-06
1.4682e-09
5.01011e-06
-1.73625e-10
5.00866e-06
-1.79543e-09
5.00606e-06
-3.5336e-09
5.00311e-06
-4.85272e-09
5.00086e-06
-5.10804e-09
4.99959e-06
-4.51279e-09
4.99897e-06
-3.30041e-09
4.99851e-06
-2.52759e-09
4.99784e-06
-2.53024e-09
-3.38361e-09
5.00003e-06
3.11143e-10
5.00041e-06
1.01803e-09
5.00095e-06
1.19097e-09
5.00158e-06
1.20031e-09
5.00245e-06
1.54956e-09
5.00363e-06
2.14771e-09
5.00501e-06
2.46034e-09
5.00635e-06
2.19288e-09
5.00744e-06
1.5344e-09
5.00805e-06
7.54325e-10
5.00777e-06
1.85161e-13
5.00687e-06
-1.02669e-09
5.0052e-06
-2.01971e-09
5.00309e-06
-2.8965e-09
5.00108e-06
-3.20322e-09
4.99953e-06
-3.00711e-09
4.99852e-06
-2.28299e-09
4.99786e-06
-1.82192e-09
4.99711e-06
-1.75777e-09
-2.39793e-09
4.99999e-06
1.6885e-10
5.00037e-06
5.18229e-10
5.0009e-06
5.97974e-10
5.00147e-06
5.86732e-10
5.00223e-06
7.49761e-10
5.00325e-06
1.04756e-09
5.00439e-06
1.20145e-09
5.00539e-06
1.05861e-09
5.00608e-06
7.20864e-10
5.0064e-06
3.17187e-10
5.00636e-06
-8.77474e-11
5.00563e-06
-4.586e-10
5.00433e-06
-9.03128e-10
5.00258e-06
-1.33001e-09
5.00075e-06
-1.50385e-09
4.99916e-06
-1.48379e-09
4.99804e-06
-1.1616e-09
4.99725e-06
-9.93187e-10
4.99645e-06
-9.31835e-10
-1.48681e-09
5.00001e-06
5.00043e-06
5.00096e-06
5.0015e-06
5.00221e-06
5.00318e-06
5.00426e-06
5.00518e-06
5.00577e-06
5.00596e-06
5.00574e-06
5.00511e-06
5.00402e-06
5.00249e-06
5.00084e-06
4.99928e-06
4.99811e-06
4.99716e-06
4.99625e-06
)
;

boundaryField
{
    sides
    {
        type            calculated;
        value           uniform 0;
    }
    inlet
    {
        type            calculated;
        value           nonuniform List<scalar> 
20
(
-5e-06
-5e-06
-5e-06
-5e-06
-5e-06
-5e-06
-5e-06
-5e-06
-5e-06
-5e-06
-5e-06
-5e-06
-5e-06
-5e-06
-5e-06
-5e-06
-5e-06
-5e-06
-5e-06
-5e-06
)
;
    }
    outlet
    {
        type            calculated;
        value           nonuniform List<scalar> 
20
(
5.00137e-06
5.00081e-06
5.00106e-06
5.00084e-06
5.00124e-06
5.00149e-06
5.0023e-06
5.00374e-06
5.00295e-06
4.99466e-06
4.99426e-06
5.00214e-06
5.00223e-06
5.00009e-06
4.99878e-06
4.99777e-06
4.99686e-06
4.99614e-06
4.99555e-06
4.99478e-06
)
;
    }
    frontAndBack
    {
        type            empty;
        value           nonuniform List<scalar> 0();
    }
}


// ************************************************************************* //
