/*--------------------------------*- C++ -*----------------------------------*\
  =========                 |
  \\      /  F ield         | OpenFOAM: The Open Source CFD Toolbox
   \\    /   O peration     | Website:  https://openfoam.org
    \\  /    A nd           | Version:  9
     \\/     M anipulation  |
\*---------------------------------------------------------------------------*/
FoamFile
{
    format      ascii;
    class       volVectorField;
    location    "27";
    object      U;
}
// * * * * * * * * * * * * * * * * * * * * * * * * * * * * * * * * * * * * * //

dimensions      [0 1 -1 0 0 0 0];

internalField   nonuniform List<vector> 
400
(
(0.0999988 -2.84592e-06 0)
(0.1 -9.43097e-06 0)
(0.100015 -1.25933e-05 0)
(0.100026 -1.42353e-05 0)
(0.100038 -1.77688e-05 0)
(0.100059 -2.29986e-05 0)
(0.100083 -2.65556e-05 0)
(0.100107 -2.66143e-05 0)
(0.100126 -2.39225e-05 0)
(0.100139 -2.0743e-05 0)
(0.100144 -1.75474e-05 0)
(0.100141 -1.44701e-05 0)
(0.100129 -1.17144e-05 0)
(0.100107 -1.03277e-05 0)
(0.100077 -9.80386e-06 0)
(0.100049 -1.28514e-05 0)
(0.100024 -1.55083e-05 0)
(0.100016 -2.01949e-05 0)
(0.100014 -1.88074e-05 0)
(0.100022 -2.64613e-05 0)
(0.0999994 -3.38924e-06 0)
(0.100002 -1.3824e-05 0)
(0.100016 -1.68172e-05 0)
(0.100029 -1.58639e-05 0)
(0.100042 -1.94051e-05 0)
(0.100063 -2.77574e-05 0)
(0.10009 -3.2686e-05 0)
(0.100117 -2.85711e-05 0)
(0.10014 -1.75449e-05 0)
(0.100156 -4.87559e-06 0)
(0.100163 7.48321e-06 0)
(0.100158 1.98779e-05 0)
(0.100142 3.37512e-05 0)
(0.100116 4.52312e-05 0)
(0.100083 5.11729e-05 0)
(0.100052 4.72963e-05 0)
(0.100032 3.72171e-05 0)
(0.100021 1.98321e-05 0)
(0.100022 1.63032e-05 0)
(0.100017 8.37416e-06 0)
(0.0999995 -6.26269e-06 0)
(0.100002 -2.46466e-05 0)
(0.100015 -3.28578e-05 0)
(0.100028 -3.54092e-05 0)
(0.100043 -4.47328e-05 0)
(0.100066 -6.13867e-05 0)
(0.100096 -7.29038e-05 0)
(0.100126 -6.9935e-05 0)
(0.100154 -5.51407e-05 0)
(0.100176 -3.52971e-05 0)
(0.100186 -1.35527e-05 0)
(0.100183 9.13459e-06 0)
(0.100163 3.26324e-05 0)
(0.100129 4.87296e-05 0)
(0.100086 5.13377e-05 0)
(0.100047 3.85862e-05 0)
(0.100018 1.95281e-05 0)
(0.100009 -2.599e-06 0)
(0.100011 -5.5655e-06 0)
(0.10002 -1.10802e-05 0)
(0.099999 -9.10104e-06 0)
(0.100002 -3.36521e-05 0)
(0.100014 -4.54021e-05 0)
(0.100026 -5.05965e-05 0)
(0.100044 -6.49526e-05 0)
(0.100071 -8.87236e-05 0)
(0.100106 -0.000104919 0)
(0.100145 -0.000101333 0)
(0.100184 -7.94226e-05 0)
(0.100218 -4.70148e-05 0)
(0.100237 -5.33252e-06 0)
(0.100232 4.08222e-05 0)
(0.1002 8.48759e-05 0)
(0.100146 0.000110617 0)
(0.100088 0.000108151 0)
(0.100044 7.90793e-05 0)
(0.100026 4.13857e-05 0)
(0.100021 7.352e-06 0)
(0.100028 3.32996e-06 0)
(0.100023 9.40057e-07 0)
(0.099998 -1.1553e-05 0)
(0.100001 -4.09207e-05 0)
(0.10001 -5.71135e-05 0)
(0.100022 -6.75462e-05 0)
(0.100042 -8.94294e-05 0)
(0.100074 -0.000123069 0)
(0.100116 -0.000148062 0)
(0.100166 -0.00014813 0)
(0.100223 -0.000122025 0)
(0.100278 -7.75793e-05 0)
(0.100314 -1.96301e-05 0)
(0.100309 4.95993e-05 0)
(0.100257 0.000114028 0)
(0.100169 0.000147768 0)
(0.100075 0.00014045 0)
(0.100012 0.000101848 0)
(0.0999919 5.72356e-05 0)
(0.100004 1.99676e-05 0)
(0.100026 1.75103e-05 0)
(0.100034 1.73873e-05 0)
(0.0999966 -1.34029e-05 0)
(0.0999988 -4.55222e-05 0)
(0.100004 -6.61422e-05 0)
(0.100013 -8.32372e-05 0)
(0.100033 -0.000115319 0)
(0.100068 -0.000162199 0)
(0.10012 -0.000204515 0)
(0.10019 -0.000219973 0)
(0.100274 -0.000195426 0)
(0.100355 -0.000118621 0)
(0.100411 6.56196e-06 0)
(0.100409 0.000146845 0)
(0.100329 0.000235766 0)
(0.100194 0.000228852 0)
(0.100069 0.000147286 0)
(0.0999992 5.51009e-05 0)
(0.099999 9.49453e-07 0)
(0.100022 -1.79009e-05 0)
(0.100052 -1.787e-06 0)
(0.100045 5.17338e-06 0)
(0.0999949 -1.35295e-05 0)
(0.0999951 -4.60968e-05 0)
(0.0999944 -6.95809e-05 0)
(0.0999974 -9.5594e-05 0)
(0.100013 -0.000138061 0)
(0.100045 -0.00020394 0)
(0.100102 -0.000265968 0)
(0.1002 -0.000321738 0)
(0.100348 -0.000327329 0)
(0.100519 -0.00028681 0)
(0.100631 -6.78127e-05 0)
(0.100586 0.000250189 0)
(0.100374 0.000477434 0)
(0.100104 0.000473386 0)
(0.0999316 0.000308508 0)
(0.0999059 0.000133268 0)
(0.0999791 4.26296e-05 0)
(0.100043 2.21207e-05 0)
(0.100084 4.78088e-05 0)
(0.100057 5.33099e-05 0)
(0.0999929 -1.20964e-05 0)
(0.0999898 -3.9164e-05 0)
(0.0999792 -6.54761e-05 0)
(0.0999723 -9.57255e-05 0)
(0.0999743 -0.000157293 0)
(0.100001 -0.000242513 0)
(0.100047 -0.000354735 0)
(0.100158 -0.000423885 0)
(0.100333 -0.000440665 0)
(0.10066 -0.000254308 0)
(0.101008 7.52792e-05 0)
(0.10101 0.000423852 0)
(0.100596 0.000469059 0)
(0.100058 0.000278869 0)
(0.0997665 7.84158e-05 0)
(0.0997809 -2.12572e-05 0)
(0.0999541 -2.84974e-05 0)
(0.100078 -8.87044e-06 0)
(0.100127 1.43621e-05 0)
(0.100077 9.75509e-06 0)
(0.0999918 -6.83424e-06 0)
(0.0999831 -2.70171e-05 0)
(0.0999605 -4.36714e-05 0)
(0.0999325 -7.36889e-05 0)
(0.0999077 -0.000133723 0)
(0.0999017 -0.000253388 0)
(0.0999568 -0.0004782 0)
(0.100144 -0.00081441 0)
(0.100537 -0.00133156 0)
(0.101064 -0.0014925 0)
(0.101325 0.000384901 0)
(0.100995 0.00187307 0)
(0.100232 0.00157728 0)
(0.099706 0.000575836 0)
(0.0996286 -2.84866e-05 0)
(0.0998066 -0.000122533 0)
(0.100012 -9.27283e-06 0)
(0.100096 5.81868e-05 0)
(0.100101 5.9402e-05 0)
(0.100046 2.30202e-05 0)
(0.0999726 -2.51925e-06 0)
(0.100009 -8.75834e-06 0)
(0.0999051 -1.66042e-05 0)
(0.099966 -2.47036e-05 0)
(0.0997232 -5.91915e-05 0)
(0.099845 -0.000115183 0)
(0.0992769 -0.000291827 0)
(0.0996741 -0.000562183 0)
(0.0991181 -0.00115574 0)
(0.102005 -0.00141607 0)
(0.106283 3.10947e-05 0)
(0.101265 0.00146864 0)
(0.0989993 0.0013091 0)
(0.0982085 0.000515726 0)
(0.0988389 2.1965e-05 0)
(0.09959 -7.61419e-05 0)
(0.099923 -1.15638e-05 0)
(0.099941 2.18976e-05 0)
(0.0998554 1.31503e-05 0)
(0.0998396 -2.04074e-05 0)
(0.0999734 2.43799e-06 0)
(0.100009 7.46945e-06 0)
(0.099906 1.39405e-05 0)
(0.0999668 2.03549e-05 0)
(0.0997238 5.27284e-05 0)
(0.0998451 0.00010607 0)
(0.0992766 0.000280109 0)
(0.0996731 0.000547133 0)
(0.0991172 0.00113816 0)
(0.102004 0.001397 0)
(0.10628 -5.3159e-05 0)
(0.101264 -0.00149258 0)
(0.0989989 -0.00133596 0)
(0.098208 -0.000548995 0)
(0.0988374 -6.23449e-05 0)
(0.0995861 2.51584e-05 0)
(0.0999187 -4.83678e-05 0)
(0.0999365 -0.000100655 0)
(0.0998543 -0.000101379 0)
(0.0998347 -9.14796e-05 0)
(0.099994 6.72262e-06 0)
(0.0999856 2.57873e-05 0)
(0.0999633 4.10718e-05 0)
(0.0999354 6.93345e-05 0)
(0.0999105 0.000127272 0)
(0.0999045 0.000244179 0)
(0.0999589 0.000466159 0)
(0.100145 0.000798978 0)
(0.100537 0.00131363 0)
(0.101065 0.00147095 0)
(0.101326 -0.000406954 0)
(0.100993 -0.00189793 0)
(0.100227 -0.00160371 0)
(0.0996984 -0.000607909 0)
(0.0996227 -7.61707e-06 0)
(0.0998026 7.56059e-05 0)
(0.100003 -4.44652e-05 0)
(0.10008 -0.0001287 0)
(0.100081 -0.000138624 0)
(0.100028 -0.000128064 0)
(0.0999966 1.19601e-05 0)
(0.099994 3.80784e-05 0)
(0.0999836 6.29611e-05 0)
(0.0999766 9.13268e-05 0)
(0.0999781 0.000150387 0)
(0.100003 0.000232501 0)
(0.100048 0.000341033 0)
(0.100157 0.000407173 0)
(0.100331 0.000422018 0)
(0.100655 0.00023417 0)
(0.101002 -9.71155e-05 0)
(0.101004 -0.000447889 0)
(0.100591 -0.000493949 0)
(0.100053 -0.000308262 0)
(0.0997592 -0.000113423 0)
(0.0997696 -2.88649e-05 0)
(0.0999382 -3.42333e-05 0)
(0.100054 -6.99138e-05 0)
(0.1001 -9.58234e-05 0)
(0.100047 -0.000110853 0)
(0.1 1.34133e-05 0)
(0.100001 4.51268e-05 0)
(0.1 6.7201e-05 0)
(0.100003 9.12536e-05 0)
(0.100018 0.000131484 0)
(0.100049 0.000194815 0)
(0.100105 0.000254514 0)
(0.100202 0.000308208 0)
(0.10035 0.000312754 0)
(0.100519 0.000270974 0)
(0.100629 5.18189e-05 0)
(0.100581 -0.000268197 0)
(0.100366 -0.000498029 0)
(0.100091 -0.000501548 0)
(0.0999148 -0.000345958 0)
(0.0998836 -0.000184142 0)
(0.0999549 -0.00010363 0)
(0.100014 -9.94176e-05 0)
(0.100053 -0.000128403 0)
(0.100015 -0.00015526 0)
(0.100003 1.33567e-05 0)
(0.100006 4.47707e-05 0)
(0.100012 6.4092e-05 0)
(0.10002 7.94039e-05 0)
(0.100039 0.000109461 0)
(0.100073 0.000154078 0)
(0.100124 0.000194212 0)
(0.100192 0.000207004 0)
(0.100274 0.00017987 0)
(0.100351 0.000100874 0)
(0.100404 -2.50589e-05 0)
(0.100399 -0.000167081 0)
(0.100316 -0.000258421 0)
(0.100177 -0.000256506 0)
(0.100048 -0.000178447 0)
(0.0999737 -9.38057e-05 0)
(0.0999695 -4.35347e-05 0)
(0.0999852 -3.70792e-05 0)
(0.100012 -5.83076e-05 0)
(0.0999907 -8.84994e-05 0)
(0.100006 1.15104e-05 0)
(0.100009 4.03792e-05 0)
(0.100019 5.53417e-05 0)
(0.100031 6.4213e-05 0)
(0.10005 8.43784e-05 0)
(0.10008 0.00011617 0)
(0.10012 0.000139126 0)
(0.100169 0.000137289 0)
(0.100224 0.00010962 0)
(0.100277 6.39772e-05 0)
(0.10031 4.75343e-06 0)
(0.1003 -6.68521e-05 0)
(0.100245 -0.000132816 0)
(0.100152 -0.000170343 0)
(0.100057 -0.000166624 0)
(0.0999871 -0.000138573 0)
(0.0999636 -0.000103134 0)
(0.0999628 -8.52448e-05 0)
(0.0999778 -9.08656e-05 0)
(0.0999659 -0.00011444 0)
(0.100008 8.83194e-06 0)
(0.100012 3.29533e-05 0)
(0.100024 4.37977e-05 0)
(0.100036 4.78775e-05 0)
(0.100053 6.09229e-05 0)
(0.100079 8.3171e-05 0)
(0.100112 9.81376e-05 0)
(0.100148 9.36799e-05 0)
(0.100185 7.16321e-05 0)
(0.100214 3.94989e-05 0)
(0.100227 -1.50552e-06 0)
(0.100219 -4.77687e-05 0)
(0.100185 -9.17953e-05 0)
(0.100126 -0.000121385 0)
(0.100062 -0.000122845 0)
(0.100006 -0.000102795 0)
(0.0999785 -7.00016e-05 0)
(0.0999613 -4.75948e-05 0)
(0.0999649 -4.51188e-05 0)
(0.0999447 -6.29069e-05 0)
(0.10001 6.15817e-06 0)
(0.100013 2.42311e-05 0)
(0.100027 3.08097e-05 0)
(0.100039 3.12482e-05 0)
(0.100053 3.87402e-05 0)
(0.100076 5.32248e-05 0)
(0.100104 6.20287e-05 0)
(0.100133 5.5749e-05 0)
(0.100159 3.77525e-05 0)
(0.100177 1.46106e-05 0)
(0.100185 -8.70163e-06 0)
(0.100175 -3.35252e-05 0)
(0.10015 -5.8316e-05 0)
(0.100109 -7.85333e-05 0)
(0.100062 -8.44957e-05 0)
(0.100015 -7.92763e-05 0)
(0.0999832 -6.34882e-05 0)
(0.0999569 -5.33951e-05 0)
(0.0999532 -5.29982e-05 0)
(0.099927 -7.06399e-05 0)
(0.100012 3.80745e-06 0)
(0.100014 1.59733e-05 0)
(0.100028 2.12422e-05 0)
(0.10004 2.25338e-05 0)
(0.100052 2.79512e-05 0)
(0.100072 3.78734e-05 0)
(0.100096 4.44336e-05 0)
(0.100119 4.222e-05 0)
(0.100138 3.30751e-05 0)
(0.100149 2.18788e-05 0)
(0.100152 1.03107e-05 0)
(0.100144 -1.83119e-06 0)
(0.100126 -1.42867e-05 0)
(0.100093 -2.576e-05 0)
(0.100053 -3.05783e-05 0)
(0.100009 -2.94482e-05 0)
(0.0999782 -1.99229e-05 0)
(0.0999493 -1.25936e-05 0)
(0.0999424 -9.79051e-06 0)
(0.0999129 -2.13351e-05 0)
(0.100013 -5.05186e-07 0)
(0.100015 5.82772e-07 0)
(0.100031 9.72649e-08 0)
(0.100043 -1.56545e-06 0)
(0.100054 -2.19415e-06 0)
(0.100073 -1.3336e-06 0)
(0.100096 -1.05553e-06 0)
(0.100117 -3.29054e-06 0)
(0.100134 -7.22094e-06 0)
(0.100142 -1.17753e-05 0)
(0.100143 -1.57574e-05 0)
(0.100134 -2.06955e-05 0)
(0.100117 -2.6506e-05 0)
(0.100087 -3.27437e-05 0)
(0.100053 -3.58165e-05 0)
(0.100012 -3.72398e-05 0)
(0.0999839 -3.4004e-05 0)
(0.0999501 -3.35953e-05 0)
(0.0999439 -3.19875e-05 0)
(0.0999015 -4.15492e-05 0)
)
;

boundaryField
{
    sides
    {
        type            calculated;
        value           nonuniform List<vector> 
40
(
(0.100013 0 0)
(0.100015 0 0)
(0.100031 0 0)
(0.100043 0 0)
(0.100054 0 0)
(0.100073 0 0)
(0.100096 0 0)
(0.100117 0 0)
(0.100134 0 0)
(0.100142 0 0)
(0.100143 0 0)
(0.100134 0 0)
(0.100117 0 0)
(0.100087 0 0)
(0.100053 0 0)
(0.100012 0 0)
(0.0999839 0 0)
(0.0999501 0 0)
(0.0999439 0 0)
(0.0999015 0 0)
(0.0999988 0 0)
(0.1 0 0)
(0.100015 0 0)
(0.100026 0 0)
(0.100038 0 0)
(0.100059 0 0)
(0.100083 0 0)
(0.100107 0 0)
(0.100126 0 0)
(0.100139 0 0)
(0.100144 0 0)
(0.100141 0 0)
(0.100129 0 0)
(0.100107 0 0)
(0.100077 0 0)
(0.100049 0 0)
(0.100024 0 0)
(0.100016 0 0)
(0.100014 0 0)
(0.100022 0 0)
)
;
    }
    inlet
    {
        type            calculated;
        value           nonuniform List<vector> 
20
(
(0.099999 0 0)
(0.0999997 0 0)
(0.0999999 0 0)
(0.0999997 0 0)
(0.0999991 0 0)
(0.099998 0 0)
(0.0999965 0 0)
(0.0999951 0 0)
(0.0999941 0 0)
(0.099994 0 0)
(0.0999948 0 0)
(0.0999964 0 0)
(0.0999989 0 0)
(0.100002 0 0)
(0.100005 0 0)
(0.100007 0 0)
(0.100009 0 0)
(0.100011 0 0)
(0.100012 0 0)
(0.100013 0 0)
)
;
    }
    outlet
    {
        type            calculated;
        value           nonuniform List<vector> 
20
(
(0.100023 -2.64614e-05 0)
(0.100017 8.37417e-06 0)
(0.100021 -1.10802e-05 0)
(0.100023 9.40056e-07 0)
(0.100034 1.73873e-05 0)
(0.100045 5.17336e-06 0)
(0.100057 5.33095e-05 0)
(0.100076 9.75497e-06 0)
(0.100045 2.302e-05 0)
(0.0998416 -2.04079e-05 0)
(0.0998365 -9.14813e-05 0)
(0.100027 -0.000128063 0)
(0.100045 -0.000110852 0)
(0.100013 -0.000155258 0)
(0.09999 -8.84987e-05 0)
(0.0999656 -0.000114439 0)
(0.0999442 -6.29066e-05 0)
(0.0999265 -7.06394e-05 0)
(0.0999123 -2.13349e-05 0)
(0.0999003 -4.15487e-05 0)
)
;
    }
    frontAndBack
    {
        type            empty;
    }
}


// ************************************************************************* //
