/*--------------------------------*- C++ -*----------------------------------*\
  =========                 |
  \\      /  F ield         | OpenFOAM: The Open Source CFD Toolbox
   \\    /   O peration     | Website:  https://openfoam.org
    \\  /    A nd           | Version:  9
     \\/     M anipulation  |
\*---------------------------------------------------------------------------*/
FoamFile
{
    format      ascii;
    class       volScalarField;
    location    "280";
    object      k;
}
// * * * * * * * * * * * * * * * * * * * * * * * * * * * * * * * * * * * * * //

dimensions      [0 2 -2 0 0 0 0];

internalField   nonuniform List<scalar> 
26820
(
0.0472125
0.0464429
0.045782
0.0452136
0.0447236
0.0443002
0.043934
0.0472118
0.0464411
0.0457792
0.0452099
0.0447192
0.0442953
0.0439283
0.0472106
0.0464374
0.0457736
0.0452026
0.0447104
0.0442854
0.0439171
0.0472087
0.0464319
0.0457651
0.0451917
0.0446974
0.0442708
0.0439004
0.0472061
0.0464247
0.0457539
0.0451772
0.04468
0.0442512
0.0438781
0.047203
0.0464156
0.0457399
0.045159
0.0446584
0.0442269
0.0438504
0.0471992
0.0464047
0.0457231
0.0451374
0.0446325
0.0441978
0.0438172
0.0471949
0.0463921
0.0457036
0.0451122
0.0446024
0.044164
0.0437787
0.0471899
0.0463778
0.0456815
0.0450836
0.0445683
0.0441256
0.043735
0.0471843
0.0463618
0.0456567
0.0450516
0.0445301
0.0440827
0.0436861
0.0471781
0.046344
0.0456294
0.0450162
0.0444879
0.0440354
0.0436322
0.0471714
0.0463247
0.0455995
0.0449776
0.0444419
0.0439837
0.0435734
0.0471641
0.0463037
0.0455671
0.0449359
0.0443921
0.0439277
0.0435098
0.0471563
0.0462811
0.0455324
0.044891
0.0443386
0.0438677
0.0434416
0.0471479
0.046257
0.0454952
0.0448431
0.0442815
0.0438037
0.043369
0.047139
0.0462314
0.0454558
0.0447923
0.0442211
0.0437358
0.0432919
0.0471296
0.0462044
0.0454142
0.0447386
0.0441572
0.0436642
0.0432107
0.0471197
0.046176
0.0453705
0.0446822
0.0440902
0.0435889
0.0431254
0.0471093
0.0461461
0.0453246
0.0446231
0.0440202
0.0435099
0.0430367
0.0470985
0.046115
0.0452766
0.044561
0.0439466
0.0434255
0.0429463
0.0436005
0.0432865
0.0430089
0.042765
0.0425531
0.0423722
0.0422226
0.042106
0.0420254
0.041988
0.0419926
0.0420279
0.042092
0.0421857
0.0423105
0.0424689
0.0426638
0.042899
0.0431789
0.0435095
0.0438968
0.044353
0.0448692
0.045405
0.045957
0.0465324
0.0471431
0.0478062
0.0485468
0.0494031
0.0504366
0.0517574
0.0535633
0.0563563
0.061005
0.0676306
0.0774767
0.0800724
0.0358596
0.00279715
0.0435952
0.0432816
0.0430045
0.042761
0.0425495
0.0423689
0.0422195
0.0421031
0.0420226
0.0419853
0.0419901
0.0420256
0.04209
0.0421838
0.0423088
0.0424673
0.0426622
0.0428975
0.0431775
0.043508
0.0438953
0.0443513
0.0448683
0.045405
0.0459579
0.0465339
0.047145
0.0478086
0.0485495
0.0494061
0.0504397
0.0517606
0.0535659
0.0563563
0.0609873
0.0675895
0.077412
0.0800277
0.0364952
0.00319872
0.0435846
0.0432719
0.0429958
0.0427532
0.0425424
0.0423626
0.0422139
0.042098
0.042018
0.0419811
0.0419864
0.0420225
0.0420873
0.0421816
0.0423071
0.042466
0.0426613
0.0428969
0.0431773
0.0435083
0.0438959
0.0443523
0.0448701
0.0454078
0.0459617
0.0465387
0.0471508
0.0478152
0.0485571
0.0494148
0.0504496
0.051772
0.0535792
0.0563742
0.0609987
0.0675873
0.0773867
0.0799883
0.0373978
0.00376466
0.0435687
0.0432575
0.0429828
0.0427416
0.0425321
0.0423533
0.0422056
0.0420907
0.0420116
0.0419755
0.0419817
0.0420185
0.0420842
0.0421792
0.0423054
0.042465
0.0426612
0.0428975
0.0431786
0.0435103
0.0438988
0.0443558
0.0448751
0.0454141
0.0459693
0.0465476
0.0471611
0.047827
0.0485705
0.04943
0.0504673
0.0517932
0.0536053
0.0564128
0.061042
0.0676327
0.0774179
0.0799526
0.0383034
0.00435298
0.0435476
0.0432384
0.0429656
0.0427262
0.0425183
0.042341
0.0421946
0.042081
0.042003
0.0419681
0.0419755
0.0420135
0.0420802
0.0421763
0.0423034
0.042464
0.0426611
0.0428984
0.0431805
0.0435132
0.0439028
0.0443608
0.0448822
0.0454235
0.0459807
0.0465609
0.0471762
0.047844
0.0485897
0.0494521
0.050493
0.0518243
0.0536442
0.0564715
0.0611089
0.0677116
0.0774897
0.0799018
0.0390999
0.00490363
0.0435214
0.0432145
0.0429441
0.042707
0.0425011
0.0423256
0.042181
0.0420689
0.0419924
0.0419589
0.0419678
0.0420072
0.0420753
0.0421726
0.042301
0.0424628
0.042661
0.0428995
0.0431829
0.0435169
0.0439078
0.0443671
0.0448914
0.0454357
0.0459956
0.0465782
0.0471959
0.0478663
0.0486149
0.0494808
0.0505267
0.0518652
0.0536959
0.0565499
0.061197
0.0678174
0.0775922
0.0798277
0.0397572
0.00539758
0.04349
0.0431859
0.0429185
0.042684
0.0424805
0.0423073
0.0421647
0.0420544
0.0419798
0.041948
0.0419587
0.0419998
0.0420695
0.0421684
0.0422983
0.0424615
0.0426612
0.0429011
0.043186
0.0435215
0.0439141
0.0443748
0.0449026
0.0454504
0.0460137
0.0465994
0.0472202
0.0478937
0.0486459
0.0495164
0.0505683
0.0519159
0.0537604
0.0566481
0.0613066
0.0679483
0.0777206
0.0797263
0.0402771
0.00583267
0.0434535
0.0431528
0.0428887
0.0426573
0.0424567
0.042286
0.0421457
0.0420377
0.0419651
0.0419353
0.0419481
0.0419913
0.0420629
0.0421636
0.0422952
0.0424602
0.0426616
0.0429032
0.0431898
0.0435271
0.0439217
0.0443841
0.0449159
0.0454679
0.0460351
0.0466246
0.047249
0.0479263
0.0486829
0.0495588
0.0506181
0.0519768
0.053838
0.0567666
0.0614377
0.0681034
0.0778711
0.0795941
0.0406707
0.00621239
0.0434122
0.0431152
0.0428549
0.042627
0.0424296
0.0422618
0.0421242
0.0420187
0.0419485
0.041921
0.0419363
0.0419818
0.0420555
0.0421583
0.0422919
0.0424588
0.0426621
0.0429057
0.0431943
0.0435337
0.0439305
0.044395
0.0449315
0.0454883
0.04606
0.0466537
0.0472823
0.0479642
0.0487259
0.0496081
0.0506761
0.0520479
0.0539292
0.0569063
0.0615908
0.0682823
0.0780409
0.0794274
0.0409502
0.00654139
0.0433659
0.0430731
0.0428171
0.0425932
0.0423993
0.0422348
0.0421002
0.0419975
0.0419299
0.0419051
0.041923
0.0419711
0.0420474
0.0421525
0.0422884
0.0424575
0.042663
0.0429088
0.0431996
0.0435414
0.0439408
0.0444075
0.0449493
0.0455116
0.0460884
0.046687
0.0473204
0.0480074
0.048775
0.0496646
0.0507426
0.0521296
0.0540344
0.0570681
0.0617666
0.0684852
0.0782276
0.0792227
0.0411259
0.00682396
0.0433149
0.0430267
0.0427754
0.0425558
0.0423659
0.042205
0.0420737
0.0419741
0.0419095
0.0418875
0.0419085
0.0419596
0.0420385
0.0421463
0.0422846
0.0424562
0.0426642
0.0429124
0.0432058
0.0435502
0.0439524
0.0444216
0.0449695
0.045538
0.0461205
0.0467245
0.0473633
0.0480561
0.0488304
0.0497284
0.0508179
0.0522224
0.0541542
0.0572532
0.0619658
0.0687126
0.0784295
0.0789766
0.0412063
0.00706361
0.0432592
0.042976
0.0427298
0.042515
0.0423294
0.0421724
0.0420448
0.0419486
0.0418873
0.0418685
0.0418928
0.041947
0.042029
0.0421396
0.0422808
0.042455
0.0426657
0.0429167
0.0432129
0.0435601
0.0439656
0.0444376
0.0449923
0.0455676
0.0461565
0.0467665
0.0474112
0.0481104
0.0488922
0.0497998
0.0509023
0.0523266
0.0542896
0.0574632
0.0621895
0.0689652
0.0786449
0.0786856
0.0411977
0.00726312
0.043199
0.0429212
0.0426806
0.0424709
0.0422899
0.0421373
0.0420136
0.041921
0.0418633
0.0418479
0.0418759
0.0419336
0.0420189
0.0421326
0.0422768
0.042454
0.0426676
0.0429216
0.0432209
0.0435713
0.0439803
0.0444553
0.0450176
0.0456007
0.0461965
0.0468131
0.0474644
0.0481707
0.0489608
0.049879
0.0509961
0.0524429
0.0544412
0.0576993
0.0624386
0.0692436
0.0788719
0.0783467
0.0411049
0.00742464
0.0431344
0.0428624
0.0426277
0.0424235
0.0422476
0.0420995
0.0419801
0.0418915
0.0418376
0.0418259
0.0418579
0.0419194
0.0420083
0.0421254
0.0422728
0.0424533
0.0426701
0.0429273
0.0432299
0.0435838
0.0439966
0.0444752
0.0450435
0.0456363
0.0462407
0.0468646
0.0475231
0.0482372
0.0490365
0.0499664
0.0510999
0.0525718
0.0546101
0.0579666
0.0627156
0.0695488
0.0791084
0.0779453
0.0409303
0.00754983
0.0430656
0.0427997
0.0425713
0.042373
0.0422025
0.0420593
0.0419444
0.0418601
0.0418102
0.0418026
0.0418389
0.0419044
0.0419971
0.0421179
0.0422689
0.0424528
0.042673
0.0429338
0.04324
0.0435977
0.0440146
0.0444972
0.0450707
0.0456742
0.0462886
0.0469211
0.0475876
0.0483101
0.0491195
0.0500625
0.0512142
0.0527141
0.0547983
0.0582398
0.0630159
0.0698815
0.0793517
0.0774058
0.0406646
0.00763949
0.0429927
0.0427333
0.0425116
0.0423195
0.0421546
0.0420167
0.0419066
0.0418268
0.0417813
0.041778
0.0418189
0.0418888
0.0419856
0.0421103
0.042265
0.0424527
0.0426767
0.0429412
0.0432513
0.0436131
0.0440344
0.0445216
0.0450998
0.0457146
0.0463403
0.0469826
0.047658
0.0483899
0.0492103
0.0501676
0.0513395
0.0528708
0.0550081
0.058514
0.063334
0.0702412
0.0795983
0.0767343
0.0403039
0.00769369
0.0429158
0.0426633
0.0424486
0.0422631
0.0421042
0.0419717
0.0418667
0.0417918
0.0417509
0.0417522
0.041798
0.0418726
0.0419738
0.0421026
0.0422614
0.042453
0.042681
0.0429496
0.0432639
0.0436301
0.0440561
0.0445484
0.0451314
0.045758
0.0463959
0.0470492
0.0477347
0.0484768
0.0493093
0.0502824
0.0514767
0.0530426
0.0552416
0.0587951
0.0636676
0.0706269
0.0798438
0.0759466
0.0398479
0.00771268
0.0428351
0.0425898
0.0423825
0.0422039
0.0420513
0.0419246
0.041825
0.0417551
0.0417192
0.0417253
0.0417763
0.0418559
0.0419617
0.042095
0.042258
0.0424539
0.0426861
0.042959
0.0432779
0.0436488
0.0440798
0.0445777
0.0451657
0.0458047
0.0464557
0.0471211
0.0478178
0.0485712
0.0494169
0.0504074
0.0516265
0.0532309
0.0555008
0.0590891
0.064017
0.0710374
0.0800829
0.0750554
0.0392988
0.00769135
0.0427505
0.0425129
0.0423135
0.0421421
0.0419961
0.0418754
0.0417814
0.0417168
0.0416861
0.0416973
0.0417539
0.0418387
0.0419495
0.0420875
0.0422551
0.0424554
0.0426921
0.0429697
0.0432933
0.0436693
0.0441057
0.0446095
0.045203
0.0458554
0.0465202
0.0471986
0.0479076
0.0486736
0.0495338
0.0505433
0.0517898
0.0534369
0.0557879
0.0594009
0.0643836
0.0714722
0.0803095
0.074069
0.038658
0.00758933
0.0426664
0.0424328
0.042241
0.0420775
0.0419386
0.0418242
0.0417361
0.0416771
0.0416518
0.0416684
0.041731
0.0418213
0.0419373
0.0420802
0.0422526
0.0424577
0.0426992
0.0429816
0.0433104
0.0436917
0.0441339
0.0446441
0.0452434
0.0459104
0.0465899
0.0472822
0.0480044
0.0487842
0.0496604
0.0506908
0.0519677
0.0536622
0.056105
0.0597342
0.06477
0.0719308
0.0805165
0.0729917
0.0379268
0.00741808
0.0425598
0.0423581
0.0421695
0.0420109
0.0418788
0.0417712
0.0416891
0.0416359
0.0416163
0.0416387
0.0417075
0.0418037
0.0419251
0.0420732
0.0422507
0.0424608
0.0427074
0.042995
0.0433291
0.0437162
0.0441646
0.0446817
0.0452871
0.0459701
0.0466653
0.0473723
0.0481088
0.0489036
0.0497973
0.0508509
0.0521614
0.0539087
0.056456
0.0600926
0.0651787
0.0724133
0.0806955
0.0718246
0.0371064
0.00719282
0.0424526
0.0422755
0.0420971
0.0419433
0.0418172
0.0417162
0.0416407
0.0415936
0.0415799
0.0416083
0.0416836
0.041786
0.0419132
0.0420667
0.0422495
0.0424648
0.0427168
0.0430099
0.0433498
0.043743
0.0441978
0.0447222
0.0453344
0.0460351
0.0467471
0.0474695
0.0482213
0.0490324
0.0499453
0.0510244
0.0523722
0.0541791
0.056813
0.0604739
0.0656124
0.0729194
0.0808368
0.0705668
0.0361993
0.00692406
0.0423475
0.042186
0.0420216
0.0418745
0.0417541
0.0416596
0.0415907
0.04155
0.0415426
0.0415772
0.0416595
0.0417683
0.0419015
0.0420608
0.0422491
0.04247
0.0427276
0.0430265
0.0433725
0.0437721
0.0442339
0.0447661
0.0453855
0.0461022
0.0468351
0.0475745
0.0483426
0.0491712
0.0501053
0.0512124
0.0526018
0.054476
0.0571756
0.0608759
0.0660733
0.0734487
0.0809286
0.069214
0.0351968
0.00662669
0.0422435
0.0420923
0.0419422
0.0418041
0.0416898
0.0416016
0.0415394
0.0415053
0.0415045
0.0415457
0.0416352
0.0417508
0.0418903
0.0420555
0.0422497
0.0424764
0.0427399
0.043045
0.0433974
0.0438039
0.044273
0.0448135
0.0454408
0.0461716
0.046929
0.0476878
0.0484733
0.0493209
0.050278
0.0514163
0.0528518
0.0548041
0.0575487
0.0612978
0.0665629
0.0740002
0.0809575
0.06776
0.0340906
0.00631007
0.0421395
0.0419963
0.0418592
0.0417316
0.0416243
0.0415425
0.041487
0.0414597
0.0414656
0.0415138
0.041611
0.0417337
0.0418797
0.0420511
0.0422514
0.0424842
0.0427539
0.0430654
0.0434246
0.0438384
0.0443153
0.0448645
0.0455006
0.0462443
0.047029
0.0478099
0.0486143
0.0494823
0.0504646
0.0516373
0.0531245
0.0551557
0.0579363
0.0617402
0.067083
0.0745715
0.0809073
0.0661922
0.0328756
0.00597697
0.0420345
0.0418988
0.0417734
0.0416569
0.0415575
0.0414823
0.0414336
0.0414133
0.0414262
0.0414816
0.0415869
0.041717
0.0418698
0.0420477
0.0422543
0.0424935
0.0427697
0.043088
0.0434544
0.0438759
0.0443611
0.0449196
0.0455652
0.0463211
0.0471365
0.0479415
0.0487664
0.0496563
0.0506663
0.0518773
0.0534225
0.0555161
0.0583391
0.062205
0.0676352
0.0751585
0.0807603
0.0644904
0.0315856
0.00563117
0.0419281
0.0418001
0.0416853
0.04158
0.0414893
0.0414211
0.0413793
0.0413661
0.0413864
0.0414493
0.0415631
0.0417009
0.0418607
0.0420454
0.0422587
0.0425045
0.0427876
0.0431131
0.043487
0.0439166
0.0444107
0.044979
0.0456349
0.0464029
0.0472467
0.0480825
0.0489305
0.0498442
0.0508845
0.0521377
0.0537496
0.0558863
0.058758
0.0626941
0.0682215
0.0757555
0.0804963
0.0626596
0.0302294
0.0052762
0.0418201
0.0417004
0.0415956
0.0415013
0.0414198
0.0413591
0.0413243
0.0413184
0.0413463
0.0414171
0.0415399
0.0416856
0.0418528
0.0420445
0.0422646
0.0425174
0.0428077
0.0431407
0.0435226
0.0439608
0.0444642
0.0450429
0.0457101
0.0464906
0.0473599
0.0482341
0.0491075
0.0500471
0.0511205
0.0524228
0.0540866
0.0562676
0.0591945
0.06321
0.0688435
0.0763525
0.080089
0.0607162
0.0288104
0.00491545
0.0417104
0.0415998
0.0415046
0.041421
0.0413491
0.0412963
0.0412688
0.0412704
0.0413061
0.0413851
0.0415172
0.0416713
0.0418461
0.042045
0.0422723
0.0425324
0.0428302
0.0431711
0.0435614
0.0440087
0.044522
0.0451117
0.0457911
0.0465847
0.0474775
0.0483901
0.0492992
0.0502673
0.0513781
0.0527248
0.0544319
0.0566614
0.0596507
0.0637554
0.0695028
0.0769539
0.0794973
0.0586646
0.0273338
0.00455252
0.0415993
0.0414982
0.0414126
0.0413393
0.0412772
0.0412327
0.0412128
0.041222
0.0412658
0.0413535
0.0414955
0.0416581
0.0418407
0.0420472
0.0422819
0.0425497
0.0428553
0.0432045
0.0436037
0.0440606
0.0445844
0.0451859
0.0458782
0.046686
0.0476009
0.0485496
0.049498
0.0505013
0.0516484
0.0530351
0.0547863
0.0570694
0.0601289
0.0643336
0.0702031
0.0775756
0.0786703
0.0565015
0.0258063
0.00419138
0.0414868
0.0413956
0.0413198
0.0412567
0.0412044
0.0411685
0.0411565
0.0411736
0.0412257
0.0413224
0.0414748
0.0416464
0.041837
0.0420512
0.0422938
0.0425694
0.0428833
0.0432412
0.0436498
0.0441169
0.0446519
0.0452658
0.045972
0.0467949
0.0477315
0.0487139
0.0497012
0.0507414
0.0519255
0.0533531
0.0551516
0.057494
0.0606321
0.0649483
0.0709675
0.0781781
0.0775351
0.0542164
0.0242364
0.00383628
0.0413732
0.0412923
0.0412263
0.0411733
0.0411309
0.0411039
0.0410999
0.0411252
0.041186
0.0412921
0.0414554
0.0416362
0.0418352
0.0420574
0.042308
0.0425919
0.0429145
0.0432816
0.0437
0.0441779
0.0447247
0.0453518
0.0460729
0.0469121
0.0478705
0.0488848
0.0499097
0.0509874
0.0522096
0.0536802
0.0555297
0.0579377
0.061163
0.0656078
0.0718057
0.0787157
0.0760576
0.0518006
0.0226329
0.00349164
0.0412586
0.0411883
0.0411323
0.0410893
0.0410568
0.0410388
0.0410433
0.0410771
0.0411469
0.0412628
0.0414376
0.0416278
0.0418353
0.0420658
0.0423248
0.0426174
0.042949
0.0433258
0.0437547
0.0442439
0.0448033
0.0454446
0.0461815
0.0470383
0.0480188
0.0490638
0.050125
0.0512402
0.052502
0.054018
0.0559231
0.0584025
0.0617257
0.0663236
0.0727205
0.0791321
0.0742307
0.0492508
0.0210099
0.00316204
0.0411434
0.0410837
0.0410379
0.041005
0.0409823
0.0409736
0.0409869
0.0410293
0.0411084
0.0412347
0.0414215
0.0416215
0.0418378
0.0420769
0.0423445
0.0426461
0.0429873
0.0433742
0.0438142
0.0443155
0.0448883
0.0455445
0.0462984
0.0471742
0.0481776
0.0492524
0.0503488
0.0515015
0.0528044
0.0543686
0.0563337
0.0588918
0.062326
0.0671097
0.0737058
0.0793605
0.0720586
0.0465661
0.0193506
0.00285013
0.0410277
0.0409788
0.0409434
0.0409206
0.0409077
0.0409084
0.0409306
0.0409821
0.041071
0.041208
0.0414072
0.0416175
0.0418428
0.0420907
0.0423673
0.0426784
0.0430296
0.0434273
0.0438789
0.0443931
0.0449801
0.0456523
0.0464243
0.0473207
0.0483479
0.0494522
0.0505827
0.0517729
0.0531184
0.054734
0.0567645
0.0594093
0.062972
0.067982
0.0747427
0.0793259
0.0695576
0.0437475
0.0176509
0.00255696
0.0409116
0.0408736
0.0408488
0.0408361
0.0408332
0.0408434
0.0408748
0.0409357
0.0410347
0.0411831
0.0413951
0.041616
0.0418506
0.0421076
0.0423936
0.0427146
0.0430763
0.0434853
0.0439493
0.0444771
0.0450793
0.0457686
0.0465601
0.0474784
0.0485309
0.0496643
0.050828
0.0520561
0.0534461
0.055117
0.0572186
0.0599596
0.0636748
0.0689568
0.0757943
0.0789474
0.066755
0.0408007
0.0159318
0.00228324
0.0407955
0.0407685
0.0407544
0.0407518
0.0407588
0.0407787
0.0408196
0.0408902
0.0409998
0.0411603
0.0413856
0.0416173
0.0418614
0.0421278
0.0424237
0.042755
0.0431277
0.0435488
0.0440259
0.0445682
0.0451865
0.0458941
0.0467065
0.0476487
0.0487276
0.04989
0.0510864
0.0523529
0.0537899
0.0555202
0.0576996
0.0605483
0.0644504
0.070047
0.0768011
0.0781413
0.063681
0.0377382
0.0142203
0.00202922
0.0406795
0.0406636
0.0406602
0.0406679
0.0406849
0.0407146
0.0407652
0.0408459
0.0409666
0.0411398
0.0413791
0.0416219
0.0418756
0.0421518
0.0424579
0.0428
0.0431844
0.0436182
0.0441092
0.0446669
0.0453026
0.0460296
0.0468646
0.0478327
0.0489393
0.0501306
0.0513594
0.0526655
0.0541522
0.0559469
0.0582111
0.0611838
0.0653197
0.0712563
0.0776763
0.0768248
0.0603602
0.03458
0.012545
0.00179428
0.0405637
0.040559
0.0405666
0.0405846
0.0406116
0.0406512
0.0407118
0.0408031
0.0409355
0.0411221
0.0413759
0.0416299
0.0418935
0.0421799
0.0424967
0.0428502
0.0432469
0.0436941
0.0441999
0.0447741
0.0454283
0.0461763
0.0470356
0.0480317
0.0491674
0.0503875
0.0516489
0.052996
0.0545359
0.0564003
0.0587578
0.0618783
0.0663083
0.0725712
0.0782978
0.0749105
0.0568138
0.0313553
0.0109339
0.00157667
0.0404485
0.0404552
0.0404736
0.040502
0.040539
0.0405887
0.0406595
0.0407617
0.0409063
0.0411072
0.0413758
0.0416411
0.0419148
0.0422117
0.0425396
0.0429051
0.0433148
0.0437761
0.0442976
0.0448893
0.0455633
0.0463338
0.0472195
0.0482457
0.0494115
0.0506606
0.0519551
0.0533455
0.0549427
0.0568829
0.0593449
0.0626514
0.0674435
0.0739426
0.078517
0.0723931
0.0530014
0.0280955
0.0094077
0.00137197
0.047089
0.0460964
0.0452508
0.0445291
0.0439109
0.0433812
0.0429235
0.0470891
0.0460964
0.0452508
0.0445289
0.0439107
0.0433795
0.0429232
0.0470891
0.0460965
0.045251
0.0445292
0.0439111
0.0433798
0.0429231
0.0470891
0.0460966
0.0452511
0.0445294
0.0439112
0.0433798
0.0429227
0.0470891
0.0460966
0.0452512
0.0445294
0.0439112
0.0433797
0.0429224
0.0470891
0.0460966
0.0452512
0.0445294
0.0439112
0.0433795
0.042922
0.0470891
0.0460965
0.0452511
0.0445293
0.043911
0.0433792
0.0429216
0.047089
0.0460965
0.045251
0.0445292
0.0439108
0.0433788
0.042921
0.047089
0.0460964
0.0452508
0.0445289
0.0439104
0.0433784
0.0429204
0.047089
0.0460963
0.0452507
0.0445287
0.04391
0.0433778
0.0429197
0.0470889
0.0460962
0.0452505
0.0445284
0.0439096
0.0433773
0.042919
0.0470889
0.0460961
0.0452503
0.0445281
0.0439092
0.0433767
0.0429183
0.0470889
0.046096
0.0452501
0.0445279
0.0439089
0.0433763
0.0429177
0.0470889
0.0460959
0.04525
0.0445276
0.0439086
0.0433758
0.0429171
0.0470889
0.0460959
0.0452499
0.0445275
0.0439083
0.0433755
0.0429167
0.0470888
0.0460958
0.0452498
0.0445273
0.0439081
0.0433752
0.0429163
0.0470888
0.0460958
0.0452498
0.0445272
0.0439079
0.043375
0.042916
0.0470888
0.0460958
0.0452497
0.0445271
0.0439078
0.0433748
0.0429158
0.0470888
0.0460957
0.0452497
0.0445271
0.0439077
0.0433747
0.0429156
0.0470888
0.0460957
0.0452496
0.044527
0.0439076
0.0433746
0.0429155
0.0470888
0.0460957
0.0452496
0.044527
0.0439076
0.0433745
0.0429154
0.0470888
0.0460957
0.0452496
0.044527
0.0439075
0.0433744
0.0429153
0.0470888
0.0460957
0.0452496
0.0445269
0.0439075
0.0433744
0.0429153
0.0470888
0.0460957
0.0452496
0.0445269
0.0439075
0.0433744
0.0429152
0.0470888
0.0460957
0.0452496
0.0445269
0.0439075
0.0433744
0.0429152
0.0470888
0.0460957
0.0452496
0.0445269
0.0439075
0.0433743
0.0429152
0.0470888
0.0460957
0.0452496
0.0445269
0.0439075
0.0433743
0.0429152
0.0470888
0.0460957
0.0452496
0.0445269
0.0439075
0.0433743
0.0429151
0.0470888
0.0460957
0.0452496
0.0445269
0.0439075
0.0433743
0.0429151
0.0470888
0.0460957
0.0452496
0.0445269
0.0439075
0.0433743
0.0429151
0.0470888
0.0460957
0.0452496
0.0445269
0.0439075
0.0433743
0.0429151
0.0470888
0.0460957
0.0452496
0.0445269
0.0439075
0.0433743
0.0429151
0.0470888
0.0460957
0.0452496
0.0445269
0.0439075
0.0433743
0.0429151
0.0470888
0.0460957
0.0452496
0.0445269
0.0439075
0.0433743
0.0429151
0.0470888
0.0460957
0.0452496
0.0445269
0.0439074
0.0433743
0.0429151
0.0470888
0.0460957
0.0452496
0.0445269
0.0439074
0.0433743
0.0429151
0.0470888
0.0460957
0.0452496
0.0445269
0.0439074
0.0433743
0.0429151
0.0470888
0.0460957
0.0452496
0.0445269
0.0439074
0.0433743
0.0429151
0.0470888
0.0460957
0.0452496
0.0445269
0.0439074
0.0433743
0.0429151
0.0470888
0.0460957
0.0452496
0.0445269
0.0439074
0.0433743
0.0429151
0.0426664
0.0425697
0.04247
0.0423667
0.0422598
0.0421498
0.0420369
0.0419215
0.041804
0.0416847
0.0415639
0.041442
0.0413191
0.0411955
0.0410716
0.0409475
0.0408235
0.0406998
0.0405767
0.0404545
0.0426611
0.0425601
0.042456
0.0423489
0.0422392
0.042127
0.0420128
0.0418966
0.0417788
0.0416596
0.0415391
0.0414175
0.0412952
0.0411722
0.0410488
0.0409251
0.0408015
0.0406781
0.040555
0.0404327
0.0426608
0.0425598
0.042456
0.0423492
0.0422399
0.0421281
0.0420142
0.0418983
0.0417806
0.0416614
0.0415408
0.0414192
0.0412966
0.0411733
0.0410495
0.0409255
0.0408015
0.0406776
0.040554
0.0404311
0.0426602
0.042559
0.042455
0.042348
0.0422385
0.0421265
0.0420123
0.0418962
0.0417782
0.0416588
0.0415379
0.041416
0.0412932
0.0411697
0.0410457
0.0409214
0.0407971
0.0406729
0.0405491
0.0404259
0.0426596
0.0425583
0.0424541
0.0423471
0.0422374
0.0421253
0.042011
0.0418947
0.0417767
0.0416571
0.0415361
0.0414141
0.0412911
0.0411675
0.0410433
0.0409189
0.0407944
0.04067
0.040546
0.0404226
0.0426591
0.0425576
0.0424532
0.0423461
0.0422363
0.0421241
0.0420096
0.0418933
0.0417751
0.0416554
0.0415343
0.0414121
0.0412891
0.0411653
0.041041
0.0409164
0.0407918
0.0406673
0.040543
0.0404194
0.0426585
0.0425568
0.0424523
0.042345
0.0422351
0.0421228
0.0420083
0.0418918
0.0417735
0.0416537
0.0415325
0.0414103
0.0412871
0.0411632
0.0410388
0.0409141
0.0407894
0.0406647
0.0405404
0.0404167
0.0426578
0.042556
0.0424513
0.0423439
0.0422339
0.0421214
0.0420068
0.0418902
0.0417719
0.041652
0.0415308
0.0414084
0.0412851
0.0411612
0.0410367
0.040912
0.0407871
0.0406624
0.0405379
0.0404141
0.0426569
0.042555
0.0424502
0.0423427
0.0422325
0.04212
0.0420053
0.0418886
0.0417702
0.0416503
0.041529
0.0414065
0.0412832
0.0411592
0.0410347
0.0409099
0.040785
0.0406602
0.0405356
0.0404117
0.0426561
0.042554
0.0424491
0.0423414
0.0422312
0.0421186
0.0420038
0.041887
0.0417685
0.0416485
0.0415272
0.0414047
0.0412814
0.0411573
0.0410327
0.0409079
0.0407829
0.0406581
0.0405335
0.0404095
0.0426552
0.042553
0.0424479
0.0423401
0.0422298
0.0421171
0.0420022
0.0418854
0.0417669
0.0416468
0.0415254
0.0414029
0.0412795
0.0411555
0.0410309
0.040906
0.040781
0.0406561
0.0405315
0.0404075
0.0426544
0.042552
0.0424468
0.0423389
0.0422284
0.0421157
0.0420007
0.0418839
0.0417653
0.0416452
0.0415238
0.0414012
0.0412778
0.0411537
0.0410291
0.0409042
0.0407793
0.0406544
0.0405298
0.0404058
0.0426536
0.042551
0.0424457
0.0423377
0.0422271
0.0421143
0.0419993
0.0418823
0.0417637
0.0416436
0.0415221
0.0413996
0.0412762
0.0411521
0.0410275
0.0409026
0.0407777
0.0406528
0.0405282
0.0404042
0.0426529
0.0425502
0.0424447
0.0423365
0.0422259
0.0421129
0.0419979
0.0418809
0.0417622
0.0416421
0.0415206
0.0413981
0.0412747
0.0411506
0.041026
0.0409012
0.0407762
0.0406514
0.0405268
0.0404028
0.0426523
0.0425494
0.0424437
0.0423355
0.0422247
0.0421116
0.0419965
0.0418795
0.0417608
0.0416406
0.0415192
0.0413966
0.0412733
0.0411492
0.0410247
0.0408999
0.040775
0.0406502
0.0405256
0.0404017
0.0426518
0.0425487
0.0424429
0.0423344
0.0422235
0.0421104
0.0419952
0.0418781
0.0417594
0.0416392
0.0415178
0.0413953
0.0412719
0.0411479
0.0410234
0.0408987
0.0407738
0.0406491
0.0405246
0.0404007
0.0426514
0.042548
0.042442
0.0423334
0.0422224
0.0421092
0.0419939
0.0418768
0.041758
0.0416378
0.0415164
0.0413939
0.0412706
0.0411467
0.0410222
0.0408976
0.0407728
0.0406481
0.0405238
0.0404
0.042651
0.0425474
0.0424412
0.0423324
0.0422213
0.0421079
0.0419926
0.0418754
0.0417567
0.0416365
0.0415151
0.0413926
0.0412694
0.0411455
0.0410211
0.0408965
0.0407719
0.0406473
0.040523
0.0403993
0.0426507
0.0425468
0.0424404
0.0423314
0.0422201
0.0421067
0.0419913
0.041874
0.0417553
0.0416351
0.0415137
0.0413913
0.0412681
0.0411443
0.04102
0.0408955
0.040771
0.0406465
0.0405224
0.0403988
0.0426504
0.0425462
0.0424395
0.0423304
0.0422189
0.0421054
0.0419899
0.0418726
0.0417538
0.0416336
0.0415123
0.0413899
0.0412668
0.0411431
0.041019
0.0408946
0.0407701
0.0406458
0.0405218
0.0403984
0.0426501
0.0425456
0.0424387
0.0423293
0.0422177
0.042104
0.0419884
0.0418711
0.0417523
0.0416321
0.0415108
0.0413885
0.0412655
0.0411419
0.0410179
0.0408936
0.0407693
0.0406452
0.0405213
0.040398
0.0426498
0.042545
0.0424377
0.0423282
0.0422163
0.0421025
0.0419868
0.0418694
0.0417506
0.0416305
0.0415092
0.041387
0.0412641
0.0411406
0.0410167
0.0408926
0.0407685
0.0406445
0.0405208
0.0403977
0.0426495
0.0425443
0.0424368
0.0423269
0.0422149
0.0421009
0.0419851
0.0418677
0.0417488
0.0416287
0.0415075
0.0413854
0.0412626
0.0411392
0.0410155
0.0408916
0.0407676
0.0406439
0.0405204
0.0403975
0.0426493
0.0425436
0.0424357
0.0423256
0.0422133
0.0420992
0.0419833
0.0418658
0.0417469
0.0416268
0.0415057
0.0413837
0.041261
0.0411378
0.0410142
0.0408905
0.0407668
0.0406432
0.0405199
0.0403972
0.042649
0.0425429
0.0424346
0.0423241
0.0422116
0.0420973
0.0419812
0.0418637
0.0417448
0.0416247
0.0415036
0.0413817
0.0412592
0.0411362
0.0410128
0.0408893
0.0407658
0.0406425
0.0405195
0.040397
0.0426487
0.042542
0.0424333
0.0423225
0.0422097
0.0420952
0.041979
0.0418614
0.0417425
0.0416224
0.0415014
0.0413797
0.0412573
0.0411344
0.0410113
0.040888
0.0407648
0.0406417
0.040519
0.0403968
0.0426484
0.0425411
0.0424319
0.0423207
0.0422076
0.0420929
0.0419765
0.0418588
0.0417399
0.0416199
0.041499
0.0413774
0.0412552
0.0411325
0.0410096
0.0408866
0.0407637
0.0406409
0.0405185
0.0403966
0.042648
0.0425401
0.0424304
0.0423188
0.0422054
0.0420903
0.0419738
0.041856
0.0417371
0.0416171
0.0414963
0.0413749
0.0412528
0.0411304
0.0410078
0.0408851
0.0407624
0.04064
0.0405179
0.0403964
0.0426476
0.0425391
0.0424287
0.0423166
0.0422028
0.0420875
0.0419709
0.041853
0.041734
0.0416141
0.0414934
0.0413721
0.0412503
0.0411281
0.0410058
0.0408834
0.0407611
0.040639
0.0405173
0.0403962
0.0426472
0.0425379
0.0424269
0.0423142
0.0422001
0.0420845
0.0419676
0.0418496
0.0417306
0.0416107
0.0414901
0.041369
0.0412474
0.0411256
0.0410036
0.0408815
0.0407596
0.040638
0.0405167
0.040396
0.0426467
0.0425365
0.0424248
0.0423116
0.042197
0.042081
0.0419639
0.0418458
0.0417268
0.041607
0.0414866
0.0413656
0.0412443
0.0411228
0.0410011
0.0408795
0.040758
0.0406368
0.0405159
0.0403957
0.0426462
0.0425351
0.0424226
0.0423087
0.0421936
0.0420773
0.0419599
0.0418417
0.0417226
0.0416029
0.0414826
0.0413619
0.0412409
0.0411197
0.0409984
0.0408773
0.0407562
0.0406355
0.0405152
0.0403954
0.0426456
0.0425334
0.0424201
0.0423055
0.0421898
0.0420731
0.0419555
0.0418371
0.041718
0.0415983
0.0414782
0.0413578
0.0412371
0.0411163
0.0409955
0.0408748
0.0407543
0.0406341
0.0405143
0.0403951
0.042645
0.0425317
0.0424173
0.042302
0.0421857
0.0420685
0.0419506
0.041832
0.0417129
0.0415933
0.0414734
0.0413532
0.0412329
0.0411125
0.0409922
0.040872
0.0407521
0.0406325
0.0405134
0.0403948
0.0426443
0.0425297
0.0424143
0.0422981
0.0421811
0.0420634
0.0419452
0.0418264
0.0417073
0.0415878
0.041468
0.0413482
0.0412282
0.0411083
0.0409885
0.040869
0.0407497
0.0406308
0.0405123
0.0403945
0.0426435
0.0425275
0.0424109
0.0422938
0.042176
0.0420578
0.0419392
0.0418203
0.041701
0.0415816
0.0414621
0.0413426
0.0412231
0.0411037
0.0409845
0.0408656
0.040747
0.0406289
0.0405112
0.0403941
0.0426427
0.0425251
0.0424072
0.042289
0.0421705
0.0420516
0.0419326
0.0418134
0.0416942
0.0415749
0.0414556
0.0413364
0.0412174
0.0410986
0.0409801
0.0408619
0.0407441
0.0406267
0.0405099
0.0403937
0.0426418
0.0425224
0.0424031
0.0422837
0.0421643
0.0420448
0.0419253
0.0418059
0.0416866
0.0415674
0.0414484
0.0413296
0.0412112
0.041093
0.0409752
0.0408578
0.0407409
0.0406244
0.0405085
0.0403932
0.0426407
0.0425195
0.0423986
0.0422779
0.0421574
0.0420372
0.0419172
0.0417975
0.0416782
0.0415591
0.0414404
0.0413221
0.0412042
0.0410868
0.0409698
0.0408533
0.0407373
0.0406218
0.0405069
0.0403926
0.0426396
0.0425162
0.0423936
0.0422715
0.0421499
0.0420288
0.0419083
0.0417883
0.0416689
0.04155
0.0414316
0.0413138
0.0411966
0.0410799
0.0409638
0.0408483
0.0407333
0.040619
0.0405052
0.0403921
0.00118579
0.00106726
0.00098
0.000911812
0.000858219
0.000815754
0.000781061
0.000751466
0.000725238
0.000701464
0.000679746
0.000659896
0.000641787
0.000625268
0.000610154
0.000596262
0.000583461
0.000571684
0.000560906
0.000551143
0.000542428
0.000534757
0.000528099
0.000522411
0.000517681
0.000513888
0.000510962
0.000508828
0.000507406
0.000506609
0.000506338
0.000506498
0.000506983
0.000507689
0.000508515
0.000509328
0.000509977
0.000510332
0.000510258
0.00050961
0.000508236
0.000506003
0.000502795
0.000498528
0.000493144
0.000486623
0.000478978
0.000470258
0.00046054
0.000449926
0.000438527
0.000426446
0.000413791
0.000400684
0.000387248
0.000373603
0.000359854
0.000346104
0.000332425
0.000318878
0.000305512
0.00029237
0.000279487
0.000266894
0.000254618
0.000242683
0.000231106
0.000219898
0.000209067
0.000198618
0.000188553
0.000178878
0.000169591
0.000160691
0.000152175
0.000144029
0.000136243
0.000128815
0.000121741
0.000115022
0.00807745
0.00710498
0.00636953
0.00582642
0.00542605
0.00512269
0.00488067
0.00467661
0.00449766
0.0043378
0.00419423
0.00406516
0.00394887
0.00384365
0.00374783
0.00366008
0.00357951
0.00350567
0.00343838
0.00337764
0.00332349
0.00327586
0.00323454
0.00319924
0.00316987
0.00314633
0.00312814
0.00311484
0.00310594
0.0031009
0.00309911
0.00309999
0.00310289
0.00310717
0.00311223
0.00311724
0.00312128
0.00312355
0.00312324
0.00311944