/*--------------------------------*- C++ -*----------------------------------*\
  =========                 |
  \\      /  F ield         | OpenFOAM: The Open Source CFD Toolbox
   \\    /   O peration     | Website:  https://openfoam.org
    \\  /    A nd           | Version:  9
     \\/     M anipulation  |
\*---------------------------------------------------------------------------*/
FoamFile
{
    format      ascii;
    class       volScalarField;
    location    "280";
    object      nut;
}
// * * * * * * * * * * * * * * * * * * * * * * * * * * * * * * * * * * * * * //

dimensions      [0 2 -1 0 0 0 0];

internalField   nonuniform List<scalar> 
26820
(
0.00017987
0.000179633
0.000179426
0.000179246
0.00017909
0.000178955
0.000178839
0.00017987
0.000179632
0.000179425
0.000179245
0.000179089
0.000178954
0.000178837
0.00017987
0.000179631
0.000179423
0.000179243
0.000179086
0.000178951
0.000178834
0.000179869
0.000179629
0.000179421
0.000179239
0.000179082
0.000178946
0.000178828
0.000179868
0.000179627
0.000179417
0.000179235
0.000179077
0.00017894
0.000178821
0.000179867
0.000179624
0.000179413
0.000179229
0.00017907
0.000178932
0.000178812
0.000179866
0.000179621
0.000179408
0.000179222
0.000179061
0.000178923
0.000178802
0.000179865
0.000179617
0.000179402
0.000179214
0.000179052
0.000178912
0.000178789
0.000179863
0.000179613
0.000179395
0.000179205
0.000179041
0.000178899
0.000178775
0.000179862
0.000179608
0.000179387
0.000179195
0.000179029
0.000178886
0.000178759
0.00017986
0.000179603
0.000179379
0.000179184
0.000179015
0.00017887
0.000178742
0.000179858
0.000179597
0.000179369
0.000179172
0.000179001
0.000178854
0.000178723
0.000179856
0.00017959
0.000179359
0.000179159
0.000178985
0.000178836
0.000178702
0.000179853
0.000179583
0.000179348
0.000179145
0.000178968
0.000178816
0.00017868
0.000179851
0.000179576
0.000179337
0.000179129
0.000178949
0.000178796
0.000178656
0.000179848
0.000179568
0.000179324
0.000179113
0.00017893
0.000178774
0.000178631
0.000179845
0.00017956
0.000179311
0.000179096
0.000178909
0.00017875
0.000178605
0.000179842
0.000179551
0.000179298
0.000179078
0.000178888
0.000178726
0.000178577
0.000179839
0.000179542
0.000179283
0.00017906
0.000178866
0.0001787
0.000178549
0.000179836
0.000179532
0.000179268
0.00017904
0.000178842
0.000178672
0.000178521
0.000178734
0.000178637
0.000178555
0.000178487
0.000178434
0.000178397
0.00017838
0.000178387
0.000178429
0.000178534
0.000161301
0.000131921
0.000107985
8.84547e-05
7.24841e-05
5.94227e-05
4.87422e-05
4.00073e-05
3.28625e-05
2.70182e-05
2.22372e-05
1.83279e-05
1.51246e-05
1.24867e-05
1.03139e-05
8.52604e-06
7.0569e-06
5.85151e-06
4.86442e-06
4.05828e-06
3.40277e-06
2.87415e-06
2.45473e-06
2.1382e-06
1.92402e-06
1.78052e-06
1.71696e-06
1.51028e-06
1.12866e-07
1.03904e-09
0.000178732
0.000178636
0.000178553
0.000178485
0.000178432
0.000178396
0.000178378
0.000178385
0.000178428
0.000178532
0.000161795
0.000132339
0.000108322
8.87228e-05
7.26973e-05
5.95932e-05
4.88793e-05
4.01182e-05
3.29527e-05
2.7092e-05
2.22981e-05
1.83784e-05
1.51673e-05
1.25229e-05
1.03448e-05
8.55258e-06
7.07978e-06
5.87134e-06
4.88169e-06
4.0734e-06
3.41608e-06
2.88595e-06
2.46523e-06
2.14753e-06
1.93178e-06
1.78628e-06
1.7191e-06
1.50802e-06
1.14484e-07
1.18821e-09
0.000178729
0.000178632
0.00017855
0.000178483
0.00017843
0.000178393
0.000178376
0.000178383
0.000178426
0.00017853
0.000161924
0.000132437
0.000108397
8.87818e-05
7.27454e-05
5.96336e-05
4.8914e-05
4.01484e-05
3.29795e-05
2.7116e-05
2.23197e-05
1.83979e-05
1.51851e-05
1.25392e-05
1.03597e-05
8.56619e-06
7.09218e-06
5.88261e-06
4.89195e-06
4.08276e-06
3.42463e-06
2.89379e-06
2.47242e-06
2.15418e-06
1.93737e-06
1.7902e-06
1.71992e-06
1.50696e-06
1.17116e-07
1.39844e-09
0.000178724
0.000178628
0.000178546
0.000178479
0.000178426
0.00017839
0.000178373
0.000178381
0.000178424
0.000178528
0.000161929
0.000132442
0.000108406
8.87965e-05
7.27634e-05
5.96535e-05
4.89349e-05
4.01697e-05
3.30007e-05
2.71366e-05
2.23394e-05
1.84165e-05
1.52027e-05
1.25556e-05
1.03748e-05
8.57993e-06
7.10461e-06
5.89382e-06
4.90204e-06
4.09184e-06
3.43283e-06
2.90121e-06
2.47917e-06
2.16053e-06
1.94293e-06
1.79465e-06
1.72241e-06
1.50883e-06
1.19738e-07
1.61698e-09
0.000178717
0.000178621
0.00017854
0.000178474
0.000178422
0.000178386
0.000178369
0.000178378
0.000178421
0.000178526
0.000162123
0.000132611
0.000108554
8.89261e-05
7.28765e-05
5.97523e-05
4.90213e-05
4.02455e-05
3.30671e-05
2.71949e-05
2.23907e-05
1.84615e-05
1.52427e-05
1.2591e-05
1.0406e-05
8.6073e-06
7.1286e-06
5.91481e-06
4.92042e-06
4.10797e-06
3.44704e-06
2.91383e-06
2.49048e-06
2.17113e-06
1.95245e-06
1.8033e-06
1.72981e-06
1.51529e-06
1.21893e-07
1.82153e-09
0.000178708
0.000178614
0.000178533
0.000178467
0.000178416
0.000178381
0.000178365
0.000178374
0.000178418
0.000178524
0.000162349
0.000132811
0.000108729
8.90795e-05
7.30108e-05
5.98701e-05
4.91247e-05
4.03363e-05
3.3147e-05
2.72653e-05
2.24527e-05
1.85161e-05
1.52912e-05
1.26341e-05
1.0444e-05
8.64072e-06
7.15786e-06
5.9404e-06
4.94279e-06
4.12755e-06
3.46425e-06
2.92907e-06
2.50415e-06
2.18403e-06
1.9641e-06
1.81415e-06
1.73985e-06
1.52393e-06
1.23453e-07
2.00501e-09
0.000178698
0.000178604
0.000178525
0.00017846
0.000178409
0.000178375
0.00017836
0.000178369
0.000178415
0.000178521
0.000162577
0.000133014
0.000108911
8.9241e-05
7.31543e-05
5.99975e-05
4.92378e-05
4.04366e-05
3.32359e-05
2.73441e-05
2.25225e-05
1.85778e-05
1.53464e-05
1.26832e-05
1.04875e-05
8.67899e-06
7.19142e-06
5.96974e-06
4.9684e-06
4.14993e-06
3.48386e-06
2.94641e-06
2.51969e-06
2.19877e-06
1.97738e-06
1.82654e-06
1.75162e-06
1.53397e-06
1.24419e-07
2.16663e-09
0.000178686
0.000178593
0.000178515
0.000178451
0.000178401
0.000178368
0.000178354
0.000178364
0.00017841
0.000178518
0.000162831
0.000133241
0.000109114
8.94236e-05
7.33174e-05
6.01429e-05
4.93673e-05
4.05518e-05
3.33383e-05
2.7435e-05
2.26032e-05
1.86492e-05
1.54102e-05
1.27401e-05
1.05378e-05
8.72332e-06
7.23027e-06
6.00369e-06
4.99801e-06
4.17576e-06
3.50647e-06
2.96637e-06
2.53757e-06
2.21579e-06
1.99266e-06
1.84074e-06
1.76529e-06
1.54566e-06
1.24832e-07
2.30768e-09
0.000178673
0.000178581
0.000178504
0.000178441
0.000178393
0.00017836
0.000178347
0.000178358
0.000178406
0.000178515
0.000163116
0.000133497
0.000109344
8.96301e-05
7.35023e-05
6.03081e-05
4.95147e-05
4.06831e-05
3.34551e-05
2.75387e-05
2.26954e-05
1.87309e-05
1.54833e-05
1.28052e-05
1.05955e-05
8.77413e-06
7.27482e-06
6.04262e-06
5.03197e-06
4.20538e-06
3.5324e-06
2.98926e-06
2.55811e-06
2.2354e-06
2.01027e-06
1.85703e-06
1.78106e-06
1.55934e-06
1.24743e-07
2.4299e-09
0.000178658
0.000178567
0.000178491
0.00017843
0.000178383
0.000178351
0.000178339
0.000178352
0.000178401
0.000178511
0.000163431
0.000133781
0.000109599
8.98595e-05
7.37079e-05
6.04922e-05
4.96792e-05
4.08299e-05
3.35859e-05
2.76552e-05
2.2799e-05
1.88227e-05
1.55656e-05
1.28786e-05
1.06606e-05
8.83151e-06
7.32516e-06
6.08664e-06
5.07039e-06
4.23893e-06
3.56179e-06
3.01525e-06
2.58148e-06
2.25781e-06
2.03036e-06
1.87555e-06
1.79907e-06
1.57525e-06
1.24196e-07
2.53486e-09
0.000178641
0.000178552
0.000178478
0.000178417
0.000178372
0.000178342
0.000178331
0.000178345
0.000178395
0.000178508
0.000163776
0.000134092
0.000109879
9.01116e-05
7.39343e-05
6.06951e-05
4.98609e-05
4.09922e-05
3.37307e-05
2.77842e-05
2.29139e-05
1.89247e-05
1.56573e-05
1.29605e-05
1.07333e-05
8.89559e-06
7.38145e-06
6.13591e-06
5.11344e-06
4.27656e-06
3.5948e-06
3.04449e-06
2.60785e-06
2.28321e-06
2.05309e-06
1.89645e-06
1.81944e-06
1.59366e-06
1.23233e-07
2.62388e-09
0.000178623
0.000178535
0.000178463
0.000178404
0.00017836
0.000178331
0.000178322
0.000178337
0.000178389
0.000178504
0.00016415
0.00013443
0.000110185
9.03872e-05
7.41819e-05
6.09173e-05
5.00599e-05
4.11703e-05
3.38898e-05
2.79262e-05
2.30405e-05
1.90372e-05
1.57584e-05
1.3051e-05
1.08137e-05
8.96663e-06
7.4439e-06
6.19064e-06
5.16133e-06
4.31847e-06
3.63163e-06
3.07719e-06
2.63742e-06
2.31181e-06
2.07867e-06
1.91989e-06
1.84235e-06
1.61494e-06
1.21889e-07
2.69799e-09
0.000178603
0.000178517
0.000178446
0.000178389
0.000178347
0.00017832
0.000178312
0.000178329
0.000178383
0.000178499
0.000164553
0.000134797
0.000110516
9.06863e-05
7.44509e-05
6.11589e-05
5.02767e-05
4.13644e-05
3.40634e-05
2.80813e-05
2.31789e-05
1.91603e-05
1.58694e-05
1.31505e-05
1.09022e-05
9.04486e-06
7.51276e-06
6.25106e-06
5.21427e-06
4.36489e-06
3.6725e-06
3.11355e-06
2.67042e-06
2.34386e-06
2.10729e-06
1.94603e-06
1.86801e-06
1.63967e-06
1.20192e-07
2.75799e-09
0.000178582
0.000178498
0.000178429
0.000178374
0.000178333
0.000178308
0.000178301
0.00017832
0.000178376
0.000178495
0.000164986
0.000135191
0.000110873
9.1009e-05
7.47415e-05
6.14201e-05
5.05111e-05
4.15745e-05
3.42515e-05
2.82495e-05
2.33293e-05
1.92943e-05
1.59895e-05
1.32588e-05
1.09989e-05
9.13051e-06
7.58826e-06
6.31742e-06
5.27251e-06
4.41604e-06
3.71764e-06
3.15381e-06
2.70709e-06
2.37976e-06
2.1392e-06
1.97509e-06
1.89662e-06
1.6499e-06
1.18165e-07
2.8045e-09
0.000178559
0.000178477
0.00017841
0.000178357
0.000178318
0.000178295
0.00017829
0.000178311
0.000178369
0.000178491
0.000165449
0.000135613
0.000111256
9.13553e-05
7.50536e-05
6.17009e-05
5.07633e-05
4.18008e-05
3.44544e-05
2.84311e-05
2.34918e-05
1.94394e-05
1.61192e-05
1.3376e-05
1.11039e-05
9.22384e-06
7.67069e-06
6.38997e-06
5.33629e-06
4.47218e-06
3.76729e-06
3.19822e-06
2.74772e-06
2.41871e-06
2.17444e-06
2.00743e-06
1.92845e-06
1.57852e-06
1.15792e-07
2.8378e-09
0.000178535
0.000178455
0.000178391
0.00017834
0.000178303
0.000178281
0.000178278
0.000178301
0.000178361
0.000178486
0.00016594
0.000136062
0.000111664
9.17252e-05
7.53873e-05
6.20014e-05
5.10335e-05
4.20434e-05
3.4672e-05
2.86263e-05
2.36666e-05
1.95958e-05
1.6259e-05
1.35024e-05
1.12175e-05
9.32507e-06
7.7603e-06
6.46901e-06
5.40592e-06
4.5336e-06
3.82175e-06
3.24707e-06
2.79268e-06
2.46069e-06
2.21307e-06
2.04328e-06
1.96382e-06
1.50372e-06
1.13081e-07
2.85794e-09
0.00017851
0.000178432
0.00017837
0.000178321
0.000178286
0.000178267
0.000178266
0.000178291
0.000178354
0.000178482
0.000166459
0.000136538
0.000112098
9.21187e-05
7.57426e-05
6.23215e-05
5.13216e-05
4.23024e-05
3.49046e-05
2.8835e-05
2.38539e-05
1.97636e-05
1.6409e-05
1.36383e-05
1.134e-05
9.43447e-06
7.85739e-06
6.55483e-06
5.4817e-06
4.6006e-06
3.88132e-06
3.30068e-06
2.84234e-06
2.50619e-06
2.25524e-06
2.08284e-06
2.00312e-06
1.42644e-06
1.10051e-07
2.86499e-09
0.000178483
0.000178408
0.000178348
0.000178302
0.000178269
0.000178252
0.000178253
0.00017828
0.000178346
0.000178477
0.000167007
0.000137042
0.000112557
9.25357e-05
7.61195e-05
6.26614e-05
5.16278e-05
4.25779e-05
3.51523e-05
2.90576e-05
2.40538e-05
1.99431e-05
1.65698e-05
1.3784e-05
1.14715e-05
9.55233e-06
7.96228e-06
6.64779e-06
5.56396e-06
4.67352e-06
3.94636e-06
3.35941e-06
2.8971e-06
2.55572e-06
2.30124e-06
2.12633e-06
2.04673e-06
1.34754e-06
1.0673e-07
2.85707e-09
0.000178456
0.000178383
0.000178326
0.000178282
0.000178252
0.000178237
0.00017824
0.000178269
0.000178338
0.000178473
0.000167584
0.000137573
0.000113042
9.29763e-05
7.65179e-05
6.30211e-05
5.19521e-05
4.28699e-05
3.54152e-05
2.92941e-05
2.42665e-05
2.01345e-05
1.67414e-05
1.394e-05
1.16126e-05
9.67899e-06
8.0753e-06
6.74822e-06
5.65309e-06
4.75276e-06
4.01725e-06
3.42366e-06
2.9574e-06
2.60977e-06
2.35142e-06
2.17403e-06
2.09511e-06
1.26776e-06
1.03141e-07
2.81917e-09
0.000178429
0.000178357
0.000178302
0.000178261
0.000178233
0.000178221
0.000178226
0.000178258
0.00017833
0.000178469
0.000168188
0.00013813
0.000113551
9.34402e-05
7.69379e-05
6.34005e-05
5.22944e-05
4.31786e-05
3.56934e-05
2.95447e-05
2.44923e-05
2.03379e-05
1.69241e-05
1.41066e-05
1.17635e-05
9.81482e-06
8.19683e-06
6.85652e-06
5.74948e-06
4.83871e-06
4.09442e-06
3.49389e-06
3.02376e-06
2.66882e-06
2.40619e-06
2.22631e-06
2.14885e-06
1.18775e-06
9.93094e-08
2.75556e-09
0.000178394
0.000178332
0.000178279
0.000178239
0.000178214
0.000178204
0.000178212
0.000178247
0.000178322
0.000178465
0.00016882
0.000138715
0.000114086
9.39275e-05
7.73793e-05
6.37996e-05
5.26549e-05
4.35039e-05
3.59869e-05
2.98096e-05
2.47313e-05
2.05535e-05
1.71183e-05
1.42841e-05
1.19248e-05
9.96024e-06
8.32727e-06
6.9731e-06
5.85357e-06
4.93185e-06
4.17836e-06
3.57061e-06
3.09679e-06
2.73341e-06
2.46602e-06
2.2836e-06
2.20867e-06
1.10806e-06
9.52545e-08
2.67188e-09
0.000178358
0.000178305
0.000178255
0.000178218
0.000178195
0.000178187
0.000178198
0.000178236
0.000178314
0.000178462
0.000169481
0.000139327
0.000114647
9.44382e-05
7.78422e-05
6.42184e-05
5.30334e-05
4.38459e-05
3.62959e-05
3.00888e-05
2.49836e-05
2.07817e-05
1.73241e-05
1.4473e-05
1.20968e-05
1.01157e-05
8.46707e-06
7.09844e-06
5.96584e-06
5.03267e-06
4.26959e-06
3.65444e-06
3.17543e-06
2.80386e-06
2.53143e-06
2.34639e-06
2.27562e-06
1.02934e-06
9.10439e-08
2.57204e-09
0.000178324
0.000178275
0.00017823
0.000178195
0.000178175
0.00017817
0.000178184
0.000178224
0.000178306
0.000178459
0.00017017
0.000139965
0.000115232
9.4972e-05
7.83264e-05
6.46569e-05
5.34301e-05
4.42047e-05
3.66204e-05
3.03825e-05
2.52494e-05
2.10225e-05
1.75419e-05
1.46725e-05
1.22798e-05
1.02817e-05
8.61673e-06
7.23302e-06
6.08683e-06
5.14173e-06
4.36874e-06
3.74608e-06
3.2601e-06
2.88055e-06
2.60302e-06
2.41531e-06
2.35101e-06
9.51606e-07
8.63259e-08
2.46158e-09
0.00017829
0.000178245
0.000178203
0.000178172
0.000178154
0.000178152
0.000178169
0.000178212
0.000178299
0.000178456
0.000170887
0.00014063
0.000115842
9.5529e-05
7.88318e-05
6.51149e-05
5.38449e-05
4.45802e-05
3.69606e-05
3.06907e-05
2.55289e-05
2.12762e-05
1.77719e-05
1.48828e-05
1.2474e-05
1.04586e-05
8.77676e-06
7.37739e-06
6.2171e-06
5.25966e-06
4.47648e-06
3.84641e-06
3.3516e-06
2.96395e-06
2.68144e-06
2.49107e-06
2.43604e-06
8.7523e-07
8.10234e-08
2.34397e-09
0.000178256
0.000178214
0.000178176
0.000178148
0.000178133
0.000178134
0.000178154
0.000178201
0.000178291
0.000178454
0.000171634
0.000141323
0.000116478
9.61091e-05
7.93584e-05
6.55924e-05
5.42776e-05
4.49725e-05
3.73163e-05
3.10137e-05
2.58223e-05
2.15431e-05
1.80144e-05
1.51045e-05
1.26798e-05
1.0647e-05
8.94772e-06
7.53214e-06
6.35728e-06
5.38713e-06
4.59358e-06
3.95555e-06
3.45074e-06
3.0547e-06
2.76745e-06
2.57499e-06
2.53227e-06
7.9745e-07
7.54196e-08
2.22024e-09
0.000178222
0.000178182
0.000178149
0.000178124
0.000178112
0.000178116
0.000178139
0.000178189
0.000178284
0.000178453
0.00017241
0.000142043
0.000117138
9.67121e-05
7.99061e-05
6.60893e-05
5.47283e-05
4.53815e-05
3.76878e-05
3.13513e-05
2.61297e-05
2.18232e-05
1.82697e-05
1.53379e-05
1.28978e-05
1.08473e-05
9.13019e-06
7.6979e-06
6.50807e-06
5.52492e-06
4.72093e-06
4.07309e-06
3.55823e-06
3.1536e-06
2.86183e-06
2.66863e-06
2.63892e-06
7.3617e-07
6.95055e-08
2.09178e-09
0.000178186
0.000178151
0.00017812
0.000178099
0.00017809
0.000178097
0.000178124
0.000178178
0.000178278
0.000178453
0.000173216
0.000142791
0.000117824
9.7338e-05
8.04747e-05
6.66055e-05
5.51969e-05
4.58071e-05
3.80748e-05
3.17038e-05
2.64511e-05
2.21168e-05
1.8538e-05
1.55836e-05
1.31269e-05
1.106e-05
9.32479e-06
7.87536e-06
6.67022e-06
5.67384e-06
4.85959e-06
4.19975e-06
3.67487e-06
3.2616e-06
2.96553e-06
2.77341e-06
2.75652e-06
6.89257e-07
6.35446e-08
1.95992e-09
0.000178151
0.000178118
0.000178092
0.000178074
0.000178068
0.000178078
0.000178108
0.000178167
0.000178272
0.000178454
0.000174052
0.000143567
0.000118534
9.79866e-05
8.1064e-05
6.71408e-05
5.56832e-05
4.62493e-05
3.84776e-05
3.20712e-05
2.67867e-05
2.24241e-05
1.88195e-05
1.58421e-05
1.33676e-05
1.12857e-05
9.53216e-06
8.06522e-06
6.84451e-06
5.83503e-06
5.0086e-06
4.33638e-06
3.80154e-06
3.3798e-06
3.07981e-06
2.8884e-06
2.89154e-06
6.47622e-07
5.77715e-08
1.82592e-09
0.000178114
0.000178085
0.000178063
0.000178048
0.000178046
0.000178059
0.000178093
0.000178156
0.000178266
0.000178457
0.00017492
0.00014437
0.000119269
9.86579e-05
8.1674e-05
6.76951e-05
5.61872e-05
4.6708e-05
3.88958e-05
3.24534e-05
2.71366e-05
2.27451e-05
1.91146e-05
1.61136e-05
1.36202e-05
1.15232e-05
9.75312e-06
8.26844e-06
7.03211e-06
6.00839e-06
5.16852e-06
4.48388e-06
3.93926e-06
3.50944e-06
3.20576e-06
3.01404e-06
3.05834e-06
6.06236e-07
5.23215e-08
1.6911e-09
0.000178077
0.000178052
0.000178034
0.000178023
0.000178023
0.00017804
0.000178078
0.000178145
0.000178262
0.00017846
0.000175822
0.000145202
0.000120029
9.93516e-05
8.23045e-05
6.82681e-05
5.67085e-05
4.71831e-05
3.93296e-05
3.28504e-05
2.75009e-05
2.30801e-05
1.94233e-05
1.63985e-05
1.38855e-05
1.17726e-05
9.98661e-06
8.48501e-06
7.23247e-06
6.19364e-06
5.34018e-06
4.64329e-06
4.08913e-06
3.65182e-06
3.3435e-06
3.1529e-06
3.27849e-06
5.62696e-07
4.72536e-08
1.55695e-09
0.00017804
0.000178019
0.000178004
0.000177997
0.000178001
0.000178021
0.000178063
0.000178135
0.000178258
0.000178465
0.000176758
0.000146061
0.000120814
0.000100068
8.29552e-05
6.88598e-05
5.72471e-05
4.76743e-05
3.97788e-05
3.32622e-05
2.78795e-05
2.34291e-05
1.97458e-05
1.66972e-05
1.41639e-05
1.20344e-05
1.02325e-05
8.71415e-06
7.4454e-06
6.3914e-06
5.52455e-06
4.81571e-06
4.25238e-06
3.80821e-06
3.49469e-06
3.30628e-06
3.27419e-06
5.16145e-07
4.25812e-08
1.42504e-09
0.000178002
0.000177985
0.000177975
0.000177971
0.000177979
0.000178003
0.000178048
0.000178125
0.000178256
0.000178473
0.00017774
0.000146947
0.000121622
0.000100806
8.36261e-05
6.94699e-05
5.78027e-05
4.81815e-05
4.02433e-05
3.36888e-05
2.82725e-05
2.37922e-05
2.00824e-05
1.70098e-05
1.44561e-05
1.23094e-05
1.04911e-05
8.95623e-06
7.67145e-06
6.60248e-06
5.72262e-06
5.00245e-06
4.43023e-06
3.98012e-06
3.66046e-06
3.47776e-06
3.17873e-06
4.67029e-07
3.82936e-08
1.29702e-09
0.000177964
0.00017795
0.000177945
0.000177945
0.000177956
0.000177984
0.000178034
0.000178116
0.000178254
0.000178482
0.000178777
0.000147865
0.000122453
0.000101566
8.4317e-05
7.00981e-05
5.83751e-05
4.87046e-05
4.07228e-05
3.413e-05
2.86798e-05
2.41696e-05
2.04331e-05
1.73367e-05
1.47623e-05
1.2598e-05
1.07633e-05
9.21181e-06
7.91128e-06
6.82781e-06
5.93549e-06
5.20498e-06
4.62427e-06
4.16891e-06
3.84127e-06
3.67606e-06
3.07093e-06
4.16724e-07
3.43766e-08
1.17459e-09
0.000177925
0.000177916
0.000177915
0.00017792
0.000177934
0.000177966
0.00017802
0.000178108
0.000178254
0.000178494
0.000178859
0.000148815
0.000123311
0.000102349
8.50278e-05
7.07442e-05
5.8964e-05
4.92431e-05
4.12172e-05
3.45857e-05
2.91014e-05
2.45611e-05
2.07981e-05
1.76781e-05
1.50831e-05
1.29007e-05
1.10492e-05
9.48147e-06
8.16565e-06
7.06848e-06
6.16444e-06
5.42484e-06
4.83643e-06
4.37551e-06
4.03732e-06
3.91831e-06
2.92223e-06
3.66991e-07
3.07614e-08
1.05872e-09
0.000177887
0.000177882
0.000177885
0.000177894
0.000177913
0.000177948
0.000178007
0.000178101
0.000178256
0.000178508
0.000178891
0.000149797
0.000124198
0.000103155
8.57585e-05
7.14082e-05
5.95693e-05
4.97971e-05
4.17265e-05
3.50559e-05
2.95374e-05
2.4967e-05
2.11775e-05
1.80341e-05
1.54185e-05
1.3218e-05
1.13497e-05
9.76605e-06
8.43568e-06
7.32574e-06
6.41077e-06
5.66358e-06
5.06863e-06
4.60006e-06
4.24956e-06
4.23785e-06
2.70777e-06
3.19507e-07
2.7401e-08
9.49823e-10
0.000177849
0.000177847
0.000177855
0.000177868
0.000177891
0.00017793
0.000177994
0.000178095
0.00017826
0.000178526
0.000178927
0.000150807
0.000125112
0.000103982
8.65075e-05
7.20883e-05
6.01895e-05
5.03651e-05
4.22493e-05
3.55394e-05
2.99866e-05
2.53863e-05
2.15707e-05
1.84043e-05
1.57686e-05
1.35504e-05
1.16655e-05
1.00663e-05
8.722e-06
7.60027e-06
6.67564e-06
5.92293e-06
5.32255e-06
4.84131e-06
4.48195e-06
4.70182e-06
2.41896e-06
2.75574e-07
2.4287e-08
8.48143e-10
0.00017781
0.000177813
0.000177825
0.000177843
0.00017787
0.000177914
0.000177982
0.00017809
0.000178266
0.000178547
0.000178966
0.000151853
0.000126063
0.000104838
8.72813e-05
7.27899e-05
6.08289e-05
5.09508e-05
4.27888e-05
3.60389e-05
3.04515e-05
2.58213e-05
2.198e-05
1.87913e-05
1.61359e-05
1.38995e-05
1.19978e-05
1.03833e-05
9.02557e-06
7.89327e-06
6.961e-06
6.20533e-06
5.59917e-06
5.09707e-06
4.74562e-06
5.46262e-06
2.07294e-06
2.35992e-07
2.14174e-08
7.53784e-10
0.000177772
0.000177779
0.000177796
0.000177818
0.000177849
0.000177898
0.000177972
0.000178087
0.000178274
0.000178573
0.000179011
0.000152893
0.000127013
0.000105691
8.80524e-05
7.34897e-05
6.1468e-05
5.15378e-05
4.33314e-05
3.65435e-05
3.09236e-05
2.62652e-05
2.23995e-05
1.919e-05
1.65156e-05
1.42614e-05
1.23433e-05
1.07145e-05
9.3448e-06
8.20407e-06
7.26731e-06
6.51164e-06
5.89631e-06
5.36409e-06
5.0635e-06
6.95654e-06
1.70754e-06
2.01074e-07
1.87895e-08
6.66511e-10
0.000177734
0.000177745
0.000177767
0.000177794
0.000177829
0.000177883
0.000177962
0.000178086
0.000178286
0.000178603
0.00017906
0.000154081
0.00012809
0.000106645
8.89076e-05
7.42594e-05
6.21665e-05
5.21755e-05
4.39179e-05
3.70867e-05
3.14298e-05
2.67399e-05
2.28473e-05
1.9615e-05
1.692e-05
1.46466e-05
1.27112e-05
1.10681e-05
9.68716e-06
8.53965e-06
7.60185e-06
6.84748e-06
6.21228e-06
5.64441e-06
5.49047e-06
9.06907e-06
1.364e-06
1.70778e-07
1.63995e-08
5.85678e-10
0.000177696
0.000177712
0.000177738
0.000177769
0.00017781
0.000177868
0.000177954
0.000178087
0.0001783
0.000178638
0.000179114
0.000155276
0.000129181
0.000107617
8.97809e-05
7.50476e-05
6.28819e-05
5.28289e-05
4.45186e-05
3.76424e-05
3.19473e-05
2.72246e-05
2.33046e-05
2.00491e-05
1.73329e-05
1.50394e-05
1.30863e-05
1.1429e-05
1.00378e-05
8.88566e-06
7.95086e-06
7.19531e-06
6.52249e-06
5.93646e-06
6.11791e-06
7.5853e-06
1.06467e-06
1.44645e-07
1.42277e-08
5.09636e-10
0.000179833
0.000179526
0.00017926
0.000179029
0.00017883
0.000178658
0.000178509
0.000179833
0.000179527
0.00017926
0.00017903
0.00017883
0.000178657
0.000178508
0.000179833
0.000179527
0.000179261
0.00017903
0.00017883
0.000178657
0.000178507
0.000179833
0.000179527
0.000179261
0.00017903
0.00017883
0.000178657
0.000178506
0.000179833
0.000179527
0.000179261
0.000179031
0.00017883
0.000178657
0.000178506
0.000179833
0.000179527
0.000179261
0.000179031
0.00017883
0.000178657
0.000178505
0.000179833
0.000179527
0.000179261
0.000179031
0.00017883
0.000178656
0.000178505
0.000179833
0.000179527
0.000179261
0.00017903
0.00017883
0.000178656
0.000178505
0.000179833
0.000179527
0.000179261
0.00017903
0.00017883
0.000178655
0.000178504
0.000179833
0.000179527
0.000179261
0.00017903
0.000178829
0.000178655
0.000178503
0.000179833
0.000179527
0.000179261
0.00017903
0.000178829
0.000178654
0.000178503
0.000179833
0.000179527
0.00017926
0.000179029
0.000178829
0.000178654
0.000178502
0.000179833
0.000179527
0.00017926
0.000179029
0.000178828
0.000178653
0.000178501
0.000179833
0.000179527
0.00017926
0.000179029
0.000178828
0.000178653
0.000178501
0.000179833
0.000179526
0.00017926
0.000179029
0.000178828
0.000178653
0.000178501
0.000179833
0.000179526
0.00017926
0.000179029
0.000178828
0.000178653
0.0001785
0.000179833
0.000179526
0.00017926
0.000179029
0.000178828
0.000178652
0.0001785
0.000179833
0.000179526
0.00017926
0.000179029
0.000178827
0.000178652
0.0001785
0.000179833
0.000179526
0.00017926
0.000179028
0.000178827
0.000178652
0.0001785
0.000179833
0.000179526
0.00017926
0.000179028
0.000178827
0.000178652
0.0001785
0.000179833
0.000179526
0.00017926
0.000179028
0.000178827
0.000178652
0.0001785
0.000179833
0.000179526
0.00017926
0.000179028
0.000178827
0.000178652
0.0001785
0.000179833
0.000179526
0.00017926
0.000179028
0.000178827
0.000178652
0.0001785
0.000179833
0.000179526
0.00017926
0.000179028
0.000178827
0.000178652
0.0001785
0.000179833
0.000179526
0.00017926
0.000179028
0.000178827
0.000178652
0.0001785
0.000179833
0.000179526
0.00017926
0.000179028
0.000178827
0.000178652
0.0001785
0.000179833
0.000179526
0.00017926
0.000179028
0.000178827
0.000178652
0.0001785
0.000179833
0.000179526
0.00017926
0.000179028
0.000178827
0.000178652
0.0001785
0.000179833
0.000179526
0.00017926
0.000179028
0.000178827
0.000178652
0.0001785
0.000179833
0.000179526
0.00017926
0.000179028
0.000178827
0.000178652
0.0001785
0.000179833
0.000179526
0.00017926
0.000179028
0.000178827
0.000178652
0.0001785
0.000179833
0.000179526
0.00017926
0.000179028
0.000178827
0.000178652
0.0001785
0.000179833
0.000179526
0.00017926
0.000179028
0.000178827
0.000178652
0.0001785
0.000179833
0.000179526
0.00017926
0.000179028
0.000178827
0.000178652
0.0001785
0.000179833
0.000179526
0.00017926
0.000179028
0.000178827
0.000178652
0.0001785
0.000179833
0.000179526
0.00017926
0.000179028
0.000178827
0.000178652
0.0001785
0.000179833
0.000179526
0.00017926
0.000179028
0.000178827
0.000178652
0.0001785
0.000179833
0.000179526
0.00017926
0.000179028
0.000178827
0.000178652
0.0001785
0.000179833
0.000179526
0.00017926
0.000179028
0.000178827
0.000178652
0.0001785
0.000179833
0.000179526
0.00017926
0.000179028
0.000178827
0.000178652
0.0001785
0.000178424
0.000178392
0.000178359
0.000178325
0.000178289
0.000178253
0.000178215
0.000178177
0.000178137
0.000178097
0.000178057
0.000178016
0.000177975
0.000177934
0.000177892
0.000177851
0.000177809
0.000177768
0.000177726
0.000177686
0.000178421
0.000178388
0.000178353
0.000178318
0.000178281
0.000178244
0.000178205
0.000178167
0.000178127
0.000178087
0.000178046
0.000178006
0.000177964
0.000177923
0.000177881
0.000177839
0.000177797
0.000177756
0.000177714
0.000177673
0.00017842
0.000178387
0.000178352
0.000178317
0.00017828
0.000178243
0.000178204
0.000178166
0.000178126
0.000178086
0.000178045
0.000178004
0.000177962
0.000177921
0.000177879
0.000177836
0.000177794
0.000177752
0.00017771
0.000177668
0.000178419
0.000178385
0.000178351
0.000178315
0.000178278
0.000178241
0.000178202
0.000178163
0.000178123
0.000178083
0.000178042
0.000178001
0.000177959
0.000177917
0.000177874
0.000177832
0.000177789
0.000177746
0.000177704
0.000177661
0.000178418
0.000178385
0.00017835
0.000178314
0.000178277
0.00017824
0.000178201
0.000178162
0.000178122
0.000178081
0.00017804
0.000177999
0.000177957
0.000177914
0.000177872
0.000177829
0.000177786
0.000177743
0.0001777
0.000177658
0.000178418
0.000178384
0.000178349
0.000178313
0.000178276
0.000178238
0.0001782
0.00017816
0.00017812
0.00017808
0.000178038
0.000177997
0.000177955
0.000177912
0.000177869
0.000177826
0.000177783
0.00017774
0.000177697
0.000177654
0.000178417
0.000178383
0.000178348
0.000178312
0.000178275
0.000178237
0.000178199
0.000178159
0.000178119
0.000178078
0.000178037
0.000177995
0.000177953
0.00017791
0.000177867
0.000177824
0.000177781
0.000177738
0.000177694
0.000177651
0.000178417
0.000178382
0.000178347
0.000178311
0.000178274
0.000178236
0.000178197
0.000178158
0.000178118
0.000178077
0.000178035
0.000177993
0.000177951
0.000177908
0.000177865
0.000177822
0.000177779
0.000177735
0.000177692
0.000177649
0.000178416
0.000178382
0.000178346
0.00017831
0.000178273
0.000178235
0.000178196
0.000178157
0.000178116
0.000178075
0.000178034
0.000177992
0.000177949
0.000177907
0.000177863
0.00017782
0.000177777
0.000177733
0.00017769
0.000177646
0.000178415
0.000178381
0.000178346
0.000178309
0.000178272
0.000178234
0.000178195
0.000178155
0.000178115
0.000178074
0.000178032
0.00017799
0.000177948
0.000177905
0.000177862
0.000177819
0.000177775
0.000177732
0.000177688
0.000177644
0.000178414
0.00017838
0.000178345
0.000178308
0.000178271
0.000178233
0.000178194
0.000178154
0.000178114
0.000178073
0.000178031
0.000177989
0.000177946
0.000177904
0.00017786
0.000177817
0.000177774
0.00017773
0.000177686
0.000177643
0.000178414
0.000178379
0.000178344
0.000178307
0.00017827
0.000178232
0.000178193
0.000178153
0.000178113
0.000178072
0.00017803
0.000177988
0.000177945
0.000177902
0.000177859
0.000177816
0.000177772
0.000177729
0.000177685
0.000177641
0.000178413
0.000178379
0.000178343
0.000178307
0.000178269
0.000178231
0.000178192
0.000178152
0.000178112
0.000178071
0.000178029
0.000177987
0.000177944
0.000177901
0.000177858
0.000177815
0.000177771
0.000177728
0.000177684
0.00017764
0.000178412
0.000178378
0.000178342
0.000178306
0.000178269
0.00017823
0.000178191
0.000178151
0.000178111
0.00017807
0.000178028
0.000177986
0.000177943
0.000177901
0.000177857
0.000177814
0.00017777
0.000177727
0.000177683
0.000177639
0.000178412
0.000178378
0.000178342
0.000178305
0.000178268
0.00017823
0.000178191
0.000178151
0.00017811
0.000178069
0.000178027
0.000177985
0.000177943
0.0001779
0.000177857
0.000177813
0.00017777
0.000177726
0.000177682
0.000177639
0.000178412
0.000178377
0.000178342
0.000178305
0.000178267
0.000178229
0.00017819
0.00017815
0.00017811
0.000178068
0.000178027
0.000177985
0.000177942
0.000177899
0.000177856
0.000177813
0.000177769
0.000177725
0.000177682
0.000177638
0.000178412
0.000178377
0.000178341
0.000178305
0.000178267
0.000178229
0.000178189
0.00017815
0.000178109
0.000178068
0.000178026
0.000177984
0.000177942
0.000177899
0.000177855
0.000177812
0.000177769
0.000177725
0.000177681
0.000177638
0.000178411
0.000178377
0.000178341
0.000178304
0.000178267
0.000178228
0.000178189
0.000178149
0.000178108
0.000178067
0.000178026
0.000177984
0.000177941
0.000177898
0.000177855
0.000177812
0.000177768
0.000177725
0.000177681
0.000177637
0.000178411
0.000178376
0.00017834
0.000178304
0.000178266
0.000178228
0.000178188
0.000178149
0.000178108
0.000178067
0.000178025
0.000177983
0.00017794
0.000177898
0.000177855
0.000177811
0.000177768
0.000177724
0.000177681
0.000177637
0.000178411
0.000178376
0.00017834
0.000178303
0.000178266
0.000178227
0.000178188
0.000178148
0.000178107
0.000178066
0.000178025
0.000177983
0.00017794
0.000177897
0.000177854
0.000177811
0.000177767
0.000177724
0.00017768
0.000177637
0.000178411
0.000178376
0.00017834
0.000178303
0.000178265
0.000178227
0.000178187
0.000178147
0.000178107
0.000178066
0.000178024
0.000177982
0.00017794
0.000177897
0.000177854
0.00017781
0.000177767
0.000177724
0.00017768
0.000177637
0.000178411
0.000178376
0.00017834
0.000178303
0.000178265
0.000178226
0.000178187
0.000178147
0.000178106
0.000178065
0.000178024
0.000177981
0.000177939
0.000177896
0.000177853
0.00017781
0.000177767
0.000177723
0.00017768
0.000177637
0.000178411
0.000178375
0.000178339
0.000178302
0.000178264
0.000178226
0.000178186
0.000178146
0.000178106
0.000178065
0.000178023