/*--------------------------------*- C++ -*----------------------------------*\
  =========                 |
  \\      /  F ield         | OpenFOAM: The Open Source CFD Toolbox
   \\    /   O peration     | Website:  https://openfoam.org
    \\  /    A nd           | Version:  9
     \\/     M anipulation  |
\*---------------------------------------------------------------------------*/
FoamFile
{
    format      ascii;
    class       volScalarField;
    location    "280";
    object      omega;
}
// * * * * * * * * * * * * * * * * * * * * * * * * * * * * * * * * * * * * * //

dimensions      [0 0 -1 0 0 0 0];

internalField   nonuniform List<scalar> 
26820
(
262.481
258.543
255.158
252.243
249.726
247.549
245.662
262.477
258.534
255.144
252.224
249.704
247.523
245.633
262.471
258.515
255.115
252.187
249.659
247.473
245.575
262.461
258.487
255.072
252.131
249.592
247.397
245.489
262.448
258.45
255.014
252.056
249.502
247.297
245.374
262.432
258.404
254.942
251.963
249.391
247.172
245.231
262.413
258.348
254.856
251.851
249.258
247.022
245.061
262.39
258.283
254.756
251.722
249.103
246.848
244.862
262.365
258.21
254.642
251.575
248.928
246.651
244.637
262.336
258.128
254.515
251.41
248.731
246.43
244.385
262.305
258.037
254.375
251.229
248.514
246.186
244.108
262.27
257.937
254.221
251.031
248.278
245.92
243.805
262.233
257.83
254.055
250.816
248.021
245.632
243.477
262.193
257.714
253.877
250.585
247.746
245.323
243.125
262.15
257.59
253.686
250.339
247.453
244.993
242.751
262.104
257.459
253.484
250.078
247.142
244.644
242.353
262.056
257.321
253.27
249.802
246.813
244.275
241.935
262.006
257.175
253.046
249.512
246.468
243.887
241.495
261.952
257.022
252.81
249.208
246.107
243.48
241.036
261.897
256.862
252.564
248.889
245.729
243.046
240.567
243.94
242.315
240.872
239.598
238.481
237.516
236.701
236.038
235.529
235.183
235.016
235.06
235.368
236.013
237.101
238.779
241.256
244.822
249.884
257.015
266.992
281.063
300.221
324.216
354.152
391.956
440.54
504.33
590.274
709.793
882.478
1145.19
1568
2327.72
3767.94
6080.79
9839.78
37788.8
317718
2.69204e+06
243.913
242.29
240.849
239.577
238.463
237.499
236.686
236.024
235.516
235.17
235.003
235.047
235.354
235.998
237.083
238.757
241.229
244.788
249.839
256.956
266.914
280.951
300.103
324.095
354.023
391.81
440.364
504.104
589.965
709.344
881.787
1144.06
1565.98
2324.06
3758.18
6063.9
9818.48
37845.4
318779
2.69204e+06
243.858
242.24
240.805
239.537
238.427
237.467
236.657
235.998
235.493
235.149
234.984
235.03
235.339
235.984
237.07
238.746
241.219
244.78
249.832
256.949
266.908
280.938
300.103
324.115
354.066
391.881
440.465
504.238
590.132
709.541
881.993
1144.23
1565.91
2323.7
3753.46
6053.23
9809.84
37935.8
319323
2.69204e+06
243.777
242.166
240.738
239.477
238.373
237.419
236.614
235.96
235.459
235.12
234.959
235.009
235.322
235.971
237.062
238.744
241.224
244.792
249.855
256.985
266.961
281.008
300.216
324.282
354.298
392.191
440.876
504.78
590.85
710.502
883.299
1146.06
1568.48
2328.17
3756.09
6052.6
9820.95
38110.2
319893
2.69204e+06
243.668
242.067
240.649
239.398
238.302
237.356
236.558
235.909
235.415
235.081
234.925
234.981
235.299
235.954
237.051
238.74
241.228
244.807
249.882
257.028
267.025
281.091
300.368
324.519
354.635
392.648
441.483
505.587
591.932
711.978
885.364
1149.07
1572.96
2336.46
3763.07
6057.21
9846.3
38395.1
320773
2.69204e+06
243.533
241.944
240.539
239.299
238.213
237.276
236.487
235.847
235.36
235.033
234.883
234.945
235.27
235.931
237.036
238.734
241.232
244.823
249.913
257.078
267.099
281.187
300.551
324.814
355.061
393.234
442.27
506.638
593.351
713.933
888.133
1153.18
1579.22
2348.37
3774.14
6066.43
9885.62
38805.2
322043
2.69204e+06
243.371
241.797
240.406
239.18
238.107
237.182
236.402
235.772
235.293
234.975
234.834
234.903
235.236
235.906
237.02
238.727
241.238
244.844
249.952
257.139
267.192
281.307
300.774
325.172
355.582
393.952
443.24
507.944
595.123
716.388
891.634
1158.43
1587.32
2363.99
3789.67
6080.91
9940.58
39348.1
323721
2.69204e+06
243.183
241.626
240.253
239.043
237.984
237.071
236.304
235.685
235.217
234.908
234.776
234.855
235.197
235.876
237.001
238.721
241.246
244.87
250
257.215
267.305
281.453
301.042
325.598
356.2
394.808
444.399
509.508
597.255
719.352
895.883
1164.84
1597.3
2383.38
3809.69
6100.87
10012.5
40027.5
325803
2.69204e+06
242.97
241.432
240.078
238.886
237.844
236.946
236.193
235.586
235.13
234.832
234.711
234.8
235.153
235.844
236.981
238.715
241.258
244.902
250.058
257.304
267.438
281.625
301.357
326.098
356.922
395.804
445.75
511.335
599.75
722.833
900.892
1172.43
1609.19
2406.58
3834.12
6126.24
10102.6
40846.6
328277
2.69204e+06
242.732
241.215
239.883
238.711
237.687
236.806
236.068
235.476
235.033
234.747
234.638
234.739
235.104
235.808
236.959
238.71
241.272
244.94
250.126
257.409
267.592
281.826
301.721
326.673
357.751
396.947
447.299
513.432
602.618
726.845
906.68
1181.23
1623.04
2433.68
3862.88
6156.95
10212.3
41809.6
331137
2.69204e+06
242.469
240.976
239.668
238.518
237.515
236.652
235.931
235.354
234.925
234.654
234.558
234.673
235.051
235.769
236.937
238.706
241.29
244.984
250.204
257.529
267.769
282.056
302.138
327.328
358.693
398.244
449.055
515.808
605.873
731.404
913.274
1191.28
1638.93
2464.83
3896.02
6193.01
10343.4
42922.1
334376
2.69204e+06
242.182
240.714
239.433
238.307
237.326
236.484
235.781
235.221
234.809
234.552
234.471
234.6
234.993
235.728
236.913
238.703
241.311
245.036
250.293
257.665
267.969
282.317
302.609
328.068
359.754
399.703
451.027
518.478
609.531
736.535
920.709
1202.63
1656.97
2500.21
3933.59
6234.58
10498.2
44191.9
337995
2.69204e+06
241.872
240.432
239.179
238.079
237.122
236.301
235.619
235.077
234.683
234.443
234.378
234.522
234.932
235.684
236.889
238.701
241.337
245.095
250.394
257.819
268.195
282.61
303.138
328.9
360.943
401.332
453.228
521.455
613.612
742.264
929.025
1215.36
1677.28
2539.99
3975.68
6281.88
10679.7
45628.5
341994
2.69204e+06
241.539
240.128
238.906
237.835
236.903
236.106
235.445
234.923
234.547
234.325
234.277
234.439
234.866
235.638
236.864
238.702
241.367
245.163
250.508
257.992
268.447
282.943
303.654
329.793
362.258
403.142
455.67
524.757
618.14
748.626
938.274
1229.54
1699.97
2585.16
4022.77
6335.33
10891.3
47242.5
346383
2.69204e+06
241.184
239.805
238.615
237.574
236.669
235.897
235.259
234.759
234.403
234.201
234.171
234.351
234.798
235.59
236.84
238.705
241.403
245.239
250.636
258.184
268.726
283.322
304.18
330.737
363.694
405.139
458.369
528.403
623.139
755.657
948.514
1245.27
1725.42
2629.78
4073.71
6395.37
11135.7
49037
351186
2.69204e+06
240.808
239.462
238.306
237.297
236.422
235.676
235.063
234.585
234.251
234.069
234.059
234.259
234.726
235.541
236.816
238.711
241.446
245.326
250.779
258.398
269.035
283.747
304.741
331.738
365.247
407.327
461.337
532.416
628.642
763.402
959.814
1262.64
1754.02
2672.71
4127.25
6462.37
11417.7
51029.7
356416
2.69204e+06
240.411
239.101
237.981
237.005
236.161
235.443
234.855
234.402
234.091
233.93
233.941
234.163
234.652
235.491
236.794
238.721
241.494
245.423
250.938
258.636
269.375
284.221
305.353
332.814
366.924
409.712
464.589
536.819
634.683
771.912
972.251
1281.77
1786.12
2715.4
4182.92
6536.74
11743.6
53242.1
362085
2.69204e+06
239.995
238.721
237.639
236.699
235.886
235.199
234.638
234.21
233.923
233.785
233.819
234.063
234.576
235.44
236.773
238.735
241.551
245.533
251.115
258.898
269.749
284.745
306.028
333.983
368.739
412.304
468.14
541.637
641.3
781.243
985.918
1302.81
1821.97
2759.28
4240.86
6619.22
12121.1
55698.2
368210
2.69204e+06
239.558
238.324
237.282
236.379
235.6
234.943
234.411
234.01
233.747
233.634
233.691
233.959
234.497
235.39
236.754
238.753
241.616
245.655
251.311
259.188
270.16
285.322
306.771
335.261
370.71
415.119
472.008
546.899
648.536
791.46
1000.92
1325.93
1861.85
2805.47
4301.61
6710.96
12559.2
58425.3
374809
2.69204e+06
239.123
237.91
236.907
236.045
235.302
234.677
234.174
233.801
233.565
233.477
233.56
233.853
234.418
235.34
236.738
238.778
241.69
245.792
251.527
259.507
270.612
285.956
307.59
336.663
372.858
418.179
476.218
552.636
656.44
802.637
1017.36
1351.33
1906.04
2854.78
4365.88
6813.63
13068.8
61453.8
381906
2.69204e+06
238.572
237.524
236.537
235.699
234.991
234.401
233.929
233.586
233.377
233.316
233.424
233.744
234.337
235.291
236.725
238.809
241.775
245.944
251.766
259.858
271.107
286.65
308.49
338.201
375.202
421.507
480.796
558.886
665.065
814.858
1035.39
1379.25
1955.06
2907.99
4434.49
6929.48
13663.2
64820
389550
2.69204e+06
238.019
237.097
236.163
235.349
234.671
234.115
233.676
233.363
233.183
233.15
233.286
233.634
234.257
235.244
236.717
238.848
241.872
246.114
252.03
260.244
271.651
287.41
309.477
339.906
377.772
425.133
485.776
565.692
674.475
828.219
1055.16
1410.07
2003.88
2964.86
4508.35
7061.47
14358.3
68555.2
397603
2.69204e+06
237.475
236.634
235.772
234.993
234.343
233.82
233.415
233.134
232.984
232.98
233.144
233.522
234.177
235.199
236.714
238.895
241.981
246.303
252.32
260.667
272.246
288.242
310.565
341.648
380.562
429.087
491.198
573.103
684.74
842.828
1076.84
1444.14
2052.57
3025.16
4588.38
7213.42
15173.8
72733.9
407720
2.69204e+06
236.937
236.149
235.361
234.628
234.009
233.517
233.147
232.898
232.78
232.806
233.001
233.409
234.098
235.158
236.717
238.953
242.106
246.513
252.641
261.132
272.899
289.152
311.766
343.441
383.569
433.4
497.104
581.177
695.941
858.812
1100.63
1482.09
2102.15
3089
4675.56
7390.19
16132
77419.7
420750
2.69204e+06
236.399
235.651
234.931
234.253
233.669
233.209
232.872
232.658
232.572
232.63
232.856
233.296
234.02
235.121
236.728
239.021
242.247
246.747
252.994
261.642
273.614
290.147
313.092
345.325
386.8
438.095
503.545
589.979
708.172
876.314
1126.78
1522.76
2153.49
3156.8
4771.08
7598.12
17273.1
83004.9
435902
2.69204e+06
235.855
235.145
234.486
233.865
233.322
232.895
232.592
232.412
232.361
232.451
232.709
233.184
233.945
235.088
236.746
239.101
242.405
247.006
253.383
262.201
274.397
291.234
314.554
347.337
390.321
443.221
510.572
599.585
721.54
895.506
1155.61
1564.16
2207.04
3229.23
4876.47
7844.82
18599.5
87602.6
454432
2.69204e+06
235.305
234.634
234.029
233.466
232.968
232.576
232.307
232.162
232.146
232.27
232.563
233.073
233.873
235.062
236.774
239.196
242.584
247.293
253.811
262.815
275.256
292.424
316.164
349.517
393.93
448.776
518.246
610.08
736.175
916.549
1187.53
1606.6
2263.27
3307.09
4993.72
8140.7
20177.1
90908.9
475719
2.69204e+06
234.746
234.117
233.563
233.057
232.607
232.252
232.018
231.909
231.929
232.088
232.416
232.964
233.806
235.042
236.812
239.306
242.785
247.611
254.283
263.489
276.196
293.726
317.935
351.901
397.649
454.836
526.633
621.551
752.188
939.852
1220.43
1650.51
2322.77
3391.37
5125.44
8497.65
21552.3
93752.5
498697
2.69204e+06
234.178
233.595
233.09
232.639
232.239
231.924
231.726
231.653
231.71
231.906
232.271
232.857
233.743
235.031
236.862
239.433
243.011
247.964
254.803
264.229
277.228
295.152
319.881
354.52
401.553
461.107
535.848
634.176
769.908
964.732
1254.27
1696.4
2386.26
3483.24
5275.02
8883.89
22565.6
96768.5
522420
2.69204e+06
233.603
233.067
232.611
232.214
231.864
231.592
231.431
231.396
231.49
231.724
232.127
232.755
233.687
235.028
236.927
239.581
243.265
248.356
255.376
265.042
278.361
296.715
322.02
357.405
405.72
467.578
545.492
647.748
788.67
990.487
1289.4
1744.82
2454.58
3584.25
5442.44
9213.75
23260.4
100412
546125
2.69204e+06
233.02
232.535
232.128
231.783
231.484
231.256
231.134
231.137
231.27
231.543
231.986
232.657
233.637
235.037
237.006
239.75
243.549
248.79
256.007
265.936
279.605
298.431
324.37
360.586
410.223
474.343
555.472
661.838
808.134
1017.24
1326.26
1796.43
2528.77
3695.27
5611.18
9469.32
23680.7
105041
569181
2.69204e+06
232.431
231.999
231.641
231.348
231.1
230.917
230.836
230.878
231.05
231.364
231.849
232.564
233.597
235.058
237.103
239.943
243.867
249.271
256.704
266.92
280.972
300.317
326.956
364.098
415.128
481.517
565.89
676.506
828.434
1045.29
1365.34
1852.03
2609.55
3815.6
5779.66
9618.09
23927
110915
591036
2.69204e+06
231.837
231.459
231.152
230.91
230.713
230.576
230.537
230.619
230.832
231.187
231.715
232.478
233.565
235.093
237.22
240.165
244.224
249.805
257.473
268.003
282.477
302.391
329.804
367.978
420.505
489.213
576.894
691.927
849.818
1075.06
1407.25
1912.03
2698.09
3947.64
5941.43
9621.58
24172.1
118186
611167
2.69204e+06
231.24
230.916
230.661
230.469
230.323
230.233
230.238
230.362
230.617
231.015
231.587
232.4
233.546
235.144
237.359
240.417
244.623
250.398
258.323
269.198
284.135
304.676
332.944
372.268
426.422
497.546
588.643
708.32
872.599
1106.86
1452.35
1977.54
2796.43
4093.96
6080.03
9449.77
24658.7
126886
629055
2.69204e+06
230.639
230.371
230.168
230.028
229.932
229.89
229.939
230.106
230.404
230.847
231.466
232.331
233.539
235.212
237.523
240.703
245.07
251.057
259.264
270.517
285.964
307.198
336.411
377.018
432.955
506.636
601.313
725.876
897.001
1141.14
1501.43
2049.79
2907.38
4255.59
6165.87
9101.67
25688.1
136922
644170
2.69204e+06
230.036
229.824
229.675
229.586
229.54
229.547
229.641
229.853
230.196
230.684
231.353
232.273
233.547
235.302
237.716
241.029
245.57
251.789
260.306
271.975
287.986
309.985
340.248
382.285
440.188
516.595
615.04
744.84
923.405
1178.46
1555.33
2130.47
3034.77
4428.63
6157.25
8629.67
27596.5
148057
655979
2.69204e+06
229.433
229.277
229.182
229.145
229.149
229.205
229.346
229.604
229.993
230.529
231.248
232.227
233.571
235.414
237.94
241.398
246.13
252.604
261.461
273.591
290.224
313.071
344.495
388.134
448.208
527.546
630.017
765.486
952.219
1219.41
1615.01
2222.05
3183
4599.45
6008.18
8163.39
30720.1
159913
663962
2.69204e+06
228.83
228.731
228.691
228.705
228.76
228.865
229.054
229.359
229.796
230.381
231.154
232.195
233.615
235.552
238.2
241.817
246.759
253.511
262.744
275.381
292.703
316.49
349.212
394.646
457.121
539.635
646.458
788.126
983.907
1264.67
1681.8
2328.35
3355.04
4739.92
5686.34
7932.1
35349.2
171977
667661
2.69204e+06
228.227
228.186
228.201
228.268
228.374
228.528
228.766
229.12
229.606
230.243
231.073
232.18
233.681
235.721
238.501
242.292
247.465
254.526
264.174
277.373
295.462
320.294
354.471
401.925
467.062
553.042
664.617
813.129
1019
1315.02
1757.6
2454.69
3548.86
4806.56
5200.58
8260
41652.2
183603
666725
2.69204e+06
227.627
227.645
227.715
227.835
227.991
228.195
228.483
228.887
229.424
230.114
231.002
232.179
233.767
235.917
238.84
242.819
248.242
255.64
265.743
279.56
298.492
324.481
360.281
409.99
478.063
567.832
684.634
840.754
1057.9
1371.32
1845.84
2607.15
3748.41
4742.06
4634.59
9543.87
49781.9
194238
661225
2.69206e+06
261.849
256.767
252.431
248.725
245.546
242.817
240.455
261.849
256.766
252.431
248.724
245.545
242.809
240.456
261.849
256.767
252.431
248.725
245.546
242.811
240.456
261.849
256.767
252.432
248.725
245.547
242.811
240.455
261.849
256.767
252.432
248.725
245.547
242.81
240.454
261.849
256.767
252.431
248.725
245.546
242.81
240.452
261.848
256.766
252.431
248.725
245.546
242.808
240.45
261.848
256.766
252.431
248.724
245.544
242.807
240.448
261.848
256.766
252.43
248.723
245.543
242.805
240.445
261.848
256.765
252.429
248.722
245.541
242.802
240.442
261.848
256.765
252.428
248.721
245.54
242.8
240.439
261.848
256.764
252.428
248.72
245.538
242.798
240.436
261.848
256.764
252.427
248.718
245.536
242.795
240.433
261.848
256.764
252.427
248.718
245.535
242.794
240.431
261.848
256.764
252.426
248.717
245.534
242.792
240.429
261.848
256.763
252.426
248.716
245.533
242.791
240.427
261.848
256.763
252.425
248.716
245.532
242.79
240.426
261.848
256.763
252.425
248.715
245.532
242.789
240.424
261.848
256.763
252.425
248.715
245.531
242.788
240.424
261.847
256.763
252.425
248.715
245.531
242.788
240.423
261.847
256.763
252.425
248.715
245.531
242.787
240.422
261.847
256.763
252.425
248.715
245.53
242.787
240.422
261.847
256.763
252.425
248.714
245.53
242.787
240.422
261.847
256.763
252.425
248.714
245.53
242.787
240.422
261.847
256.763
252.425
248.714
245.53
242.787
240.422
261.847
256.763
252.425
248.714
245.53
242.787
240.421
261.847
256.763
252.425
248.714
245.53
242.787
240.421
261.847
256.763
252.425
248.714
245.53
242.787
240.421
261.847
256.763
252.425
248.714
245.53
242.786
240.421
261.847
256.763
252.425
248.714
245.53
242.786
240.421
261.847
256.763
252.425
248.714
245.53
242.786
240.421
261.847
256.763
252.425
248.714
245.53
242.786
240.421
261.847
256.763
252.425
248.714
245.53
242.786
240.421
261.847
256.763
252.425
248.714
245.53
242.786
240.421
261.847
256.763
252.425
248.714
245.53
242.786
240.421
261.847
256.763
252.425
248.714
245.53
242.786
240.421
261.847
256.763
252.425
248.714
245.53
242.786
240.421
261.847
256.763
252.425
248.714
245.53
242.786
240.421
261.847
256.763
252.425
248.714
245.53
242.786
240.421
261.847
256.763
252.425
248.714
245.53
242.786
240.421
239.13
238.631
238.115
237.582
237.03
236.461
235.877
235.281
234.673
234.056
233.431
232.799
232.162
231.522
230.879
230.235
229.592
228.949
228.31
227.675
239.103
238.582
238.044
237.491
236.924
236.345
235.755
235.154
234.545
233.928
233.305
232.675
232.042
231.405
230.765
230.124
229.483
228.843
228.204
227.568
239.103
238.582
238.046
237.495
236.93
236.353
235.764
235.165
234.557
233.94
233.316
232.687
232.052
231.414
230.773
230.13
229.487
228.845
228.204
227.566
239.101
238.579
238.042
237.49
236.924
236.346
235.756
235.156
234.547
233.929
233.304
232.673
232.038
231.399
230.757
230.113
229.469
228.826
228.184
227.545
239.099
238.576
238.038
237.486
236.92
236.341
235.75
235.15
234.54
233.922
233.296
232.665
232.029
231.389
230.747
230.103
229.458
228.813
228.171
227.531
239.097
238.573
238.035
237.481
236.915
236.335
235.745
235.143
234.533
233.914
233.289
232.657
232.02
231.38
230.737
230.092
229.447
228.802
228.158
227.518
239.094
238.57
238.031
237.477
236.91
236.33
235.738
235.137
234.526
233.907
233.281
232.649
232.012
231.371
230.727
230.082
229.436
228.791
228.147
227.506
239.091
238.566
238.026
237.472
236.904
236.324
235.732
235.13
234.519
233.899
233.273
232.64
232.003
231.362
230.718
230.073
229.426
228.781
228.136
227.495
239.087
238.562
238.021
237.466
236.898
236.317
235.725
235.123
234.511
233.891
233.265
232.632
231.994
231.353
230.709
230.063
229.417
228.771
228.126
227.484
239.083
238.557
238.016
237.46
236.892
236.31
235.718
235.115
234.503
233.883
233.256
232.623
231.986
231.344
230.7
230.054
229.407
228.761
228.116
227.474
239.08
238.552
238.011
237.455
236.885
236.304
235.711
235.108
234.496
233.875
233.248
232.615
231.977
231.336
230.691
230.045
229.399
228.752
228.107
227.465
239.076
238.548
238.005
237.449
236.879
236.297
235.704
235.1
234.488
233.867
233.24
232.607
231.969
231.327
230.683
230.037
229.39
228.744
228.099
227.457
239.072
238.544
238
237.443
236.873
236.29
235.697
235.093
234.48
233.86
233.232
232.599
231.961
231.32
230.675
230.029
229.383
228.737
228.092
227.449
239.069
238.539
237.995
237.438
236.867
236.284
235.69
235.086
234.473
233.852
233.225
232.592
231.954
231.312
230.668
230.022
229.376
228.73
228.085
227.443
239.066
238.536
237.991
237.432
236.861
236.277
235.683
235.079
234.466
233.845
233.218
232.585
231.947
231.306
230.661
230.016
229.37
228.724
228.079
227.438
239.064
238.532
237.986
237.427
236.855
236.271
235.676
235.072
234.459
233.838
233.211
232.578
231.94
231.299
230.655
230.01
229.364
228.719
228.074
227.433
239.062
238.529
237.982
237.422
236.849
236.265
235.67
235.065
234.452
233.831
233.204
232.571
231.934
231.293
230.649
230.004
229.359
228.714
228.07
227.429
239.06
238.526
237.978
237.417
236.844
236.259
235.663
235.058
234.445
233.824
233.197
232.564
231.927
231.287
230.644
229.999
229.354
228.71
228.066
227.426
239.058
238.523
237.974
237.412
236.838
236.252
235.656
235.051
234.438
233.817
233.19
232.558
231.921
231.281
230.638
229.994
229.35
228.706
228.063
227.423
239.057
238.52
237.97
237.407
236.832
236.246
235.649
235.044
234.43
233.81
233.183
232.551
231.914
231.275
230.633
229.989
229.345
228.702
228.06
227.421
239.055
238.517
237.965
237.401
236.825
236.238
235.642
235.036
234.422
233.802
233.175
232.543
231.907
231.268
230.627
229.984
229.341
228.699
228.058
227.419
239.054
238.513
237.96
237.395
236.818
236.231
235.634
235.028
234.414
233.793
233.167
232.536
231.9
231.262
230.621
229.979
229.337
228.695
228.055
227.418
239.053
238.51
237.955
237.389
236.811
236.223
235.625
235.019
234.405
233.784
233.158
232.527
231.892
231.255
230.615
229.974
229.333
228.692
228.053
227.416
239.051
238.506
237.95
237.382
236.803
236.214
235.615
235.009
234.395
233.774
233.149
232.518
231.884
231.247
230.608
229.968
229.328
228.688
228.05
227.415
239.05
238.503
237.944
237.374
236.794
236.204
235.605
234.998
234.384
233.764
233.138
232.508
231.875
231.239
230.601
229.962
229.323
228.685
228.048
227.414
239.048
238.498
237.938
237.366
236.784
236.193
235.593
234.986
234.372
233.752
233.127
232.498
231.865
231.23
230.593
229.955
229.318
228.681
228.046
227.413
239.046
238.494
237.93
237.357
236.773
236.181
235.581
234.973
234.359
233.739
233.114
232.486
231.854
231.22
230.584
229.948
229.312
228.677
228.043
227.412
239.045
238.489
237.923
237.347
236.762
236.168
235.567
234.958
234.344
233.725
233.1
232.473
231.842
231.209
230.575
229.94
229.306
228.672
228.04
227.411
239.043
238.483
237.914
237.336
236.749
236.154
235.551
234.943
234.328
233.709
233.085
232.458
231.829
231.197
230.565
229.932
229.299
228.667
228.037
227.41
239.04
238.477
237.904
237.323
236.734
236.138
235.534
234.925
234.31
233.691
233.068
232.442
231.814
231.184
230.553
229.922
229.291
228.662
228.034
227.409
239.038
238.47
237.894
237.31
236.718
236.12
235.516
234.906
234.291
233.672
233.05
232.425
231.798
231.17
230.541
229.911
229.283
228.655
228.03
227.407
239.035
238.462
237.882
237.295
236.701
236.101
235.495
234.884
234.269
233.651
233.029
232.406
231.78
231.154
230.527
229.9
229.274
228.649
228.026
227.406
239.032
238.454
237.869
237.278
236.681
236.079
235.472
234.861
234.246
233.627
233.007
232.384
231.761
231.136
230.511
229.887
229.263
228.641
228.021
227.404
239.029
238.445
237.855
237.26
236.66
236.055
235.447
234.834
234.219
233.602
232.982
232.361
231.739
231.116
230.494
229.873
229.252
228.633
228.016
227.403
239.026
238.435
237.839
237.24
236.636
236.029
235.419
234.806
234.19
233.573
232.954
232.335
231.715
231.095
230.475
229.857
229.24
228.624
228.011
227.401
239.022
238.423
237.822
237.218
236.61
236
235.388
234.774
234.158
233.541
232.924
232.306
231.688
231.071
230.455
229.84
229.226
228.614
228.005
227.399
239.017
238.411
237.803
237.193
236.581
235.968
235.354
234.738
234.122
233.506
232.89
232.274
231.659
231.045
230.432
229.82
229.211
228.603
227.998
227.397
239.012
238.397
237.782
237.166
236.55
235.933
235.316
234.699
234.083
233.468
232.853
232.239
231.627
231.016
230.406
229.799
229.194
228.591
227.991
227.394
239.007
238.382
237.758
237.136
236.514
235.894
235.274
234.656
234.04
233.425
232.812
232.2
231.591
230.983
230.378
229.776
229.175
228.578
227.983
227.391
239.001
238.365
237.733
237.103
236.475
235.851
235.228
234.609
233.992
233.378
232.766
232.157
231.551
230.948
230.347
229.75
229.155
228.563
227.974
227.389
2.73997e+06
2.73997e+06
2.73997e+06
2.73997e+06
2.73997e+06
2.73997e+06
2.73997e+06
2.73997e+06
2.73997e+06
2.73997e+06
2.73997e+06
2.73997e+06
2.73997e+06
2.73997e+06
2.73997e+06
2.73997e+06
2.73997e+06
2.73997e+06
2.73997e+06
2.73997e+06
2.73997e+06
2.73997e+06
2.73997e+06
2.73997e+06
2.73997e+06
2.73997e+06
2.73997e+06
2.73997e+06
2.73997e+06
2.73997e+06
2.73997e+06
2.73997e+06
2.73997e+06
2.73997e+06
2.73997e+06
2.73997e+06
2.73997e+06
2.73997e+06
2.73997e+06
2.73997e+06
2.73997e+06
2.73997e+06
2.73997e+06
2.73997e+06
2.73997e+06
2.73997e+06
2.73997e+06
2.73997e+06
2.73997e+06
2.73997e+06
2.73997e+06
2.73997e+06
2.73997e+06
2.73997e+06
2.73997e+06
2.73997e+06
2.73997e+06
2.73997e+06
2.73997e+06
2.73997e+06
2.73997e+06
2.73997e+06
2.73997e+06
2.73997e+06
2.73997e+06
2.73997e+06
2.73997e+06
2.73997e+06
2.73997e+06
2.73997e+06
2.73997e+06
2.73997e+06
2.73997e+06
2.73997e+06
2.73997e+06
2.73997e+06
2.73997e+06
2.73997e+06
2.73997e+06
2.73997e+06
652979
625912
593025
562665
537766
518250
503016
490993
481455
473942
468090
463551
459987
457121
454768
452821
451219
449915
448903
448127
447484
446940
446478
446089
445863
445696
445554
445434
445335
445252
445183
445128
445085
445056
445038
445032
445040
445059
445090
445133
445186
445250
445322
445400
445482
445566
445650
445731
445807
445877
445939
445993
446039
446077
446106
446127
446142
446168
446189
446201
446205
446204
446197
446186
446173
446156
446138
446118
446098
446077
446056
446034
446013
445992
445972
445952
445932
445913
445895
445877
201849
204168
202685
198582
193201
187578
182295
177556
173346
169573
166153
163045
160243
157751
155560
153645
151968
150493
149199
148069
147079
146216
145463
144806
144006
143210
142507
141927
141459
141054
140706
140411
140161
139952
139780
139643
139539
139466
139422
139404
139410
139439
139487
139551
139626
139709
139796
139884
139967
140045
140113
140171
140217
140250
140272
140282
140285
140248
140206
140161
140114
140065
140014
139961
139908
139853
139799
139745
139690
139637
139583
139531
139480
139430
139381
139333
139287
139242
139198
139156
58382.2
66221.8
74017.2
81264.4
87588.5
92824.4
96967.3
100090
102279
103607
104132
103914
103030
101580
99684.3
97470.5
95062.6
92570.7
90085.8
87677.4
85392.1
83258
81288.3
79487.6
77814.5
76266.6
74858.9
73560.7
72344
71236.6
70263.3
69412.1
68656.8
67987.7
67396.2
66874.5
66416.5
66017.1
65671.3
65374.7
65123.3
64913.4
64740.9
64601.7
64491.3
64405.2
64338.5
64286.7
64245.1
64209.6
64176.2
64141.7
64103.7
64060.2
64009.7
63952.7
63884.9
63794.7
63697.1
63595.9
63491.3
63383.9
63274
63162.1
63048.7
62934.5
62820
62705.6
62591.8
62479.1
62367.6
62257.9
62150.1
62044.5
61941.2
61840.4
61742.2
61646.6
61553.9
61464
11723
14484.1
18194.3
22748.8
27995.6
33703.1
39620.2
45517.5
51199.6
56502.3
61292.4
65464.5
68940
71669.4
73634.5
74849
75356.7
75227.4
74550.3
73425.9
71958
70246.3
68380.6
66437.5
64474.2
62532.8
60646.7
58836.3
57111.3
55483.1
53943.6
52492.7
51139.4
49898.9
48761.2
47713.2
46748.6
45861.8
45046.8
44298.6
43613
42986.5
42415.9
41897.9
41429.3
41006.5
40625.8
40283.3
39975
39696.5
39443.4
39211.7
38997.3
38796.6
38606.1
38424.2
38241
38055
37869.4
37685.4
37502.6
37320.3
37138.4
36956.8
36775.4
36594.4
36414.2
36235
36057.2
35881.2
35707.3
35535.8
35366.9
35201.1
35038.5
34879.3
34723.6
34571.8
34423.8
34279.8
4192.48
3999.17
4123.3
4696.69
5780.84
7431.37
9663.74
12446.9
15704.4
19377
23367.9
27561
31829.8
36050.8
40101.8
43868.6
47254.5
50184.9
52610.3
54506.7
55873.8
56733.2
57124.5
57100.2
56720.2
56046.5
55139.8
54056.8
52847.2
51554.3
50212.5
48848.9
47487.2
46134.3
44805.2
43513.4
42272.3
41084.5
39950.2
38869.8
37844.1
36873.8
35958.8
35099.2
34294.5
33544.5
32848.3
32204.7
31612.1
31068.1
30569.6
30113.7
29696.6
29314.4
28963.1
28634.7
28325.3
28031.5
27751.4
27483.2
27224.8
26974.4
26730.2
26491
26255.7
26023.7
25794.4
25567.6
25343.3
25121.3
24901.8
24684.9
24470.8
24259.7
24051.8
23847.5
23647
23450.4
23257.7
23069.1
4560.05
4316.94
4006.72
3673.5
3369.93
3159.21
3111.83
3300.58
3791.6
4601.96
5757.53
7269.01
9126.79
11292.8
13742.3
16425.9
19276.7
22217.2
25165.4
28039.8
30768.6
33284.6
35533.6
37477.2
39092.9
40372.9
41322.6
41958.1
42303.4
42388
42244.7
41906.6
41406.6
40774.8
40038.7
39223.7
38347.4
37429
36485.9
35532.4
34580.7
33641
32721.1
31827.4
30965
30138.3
29350.7
28604.7
27902.3
27244.3
26630.9
26061.8
25535.6
25049.5
24599.9
24183.6
23797.5
23438.1
23102.1
22786.4
22488.1
22204.3
21932.5
21670.3
21415.8
21167.3
20923.5
20683.5
20446.5
20212
19979.8
19749.5
19521.2
19294.8
19070.5
18848.7
18629.5
18413.1
18199.5
17988.8
3901.12
3984.92
4026.51
4014.57
3942.22
3809.36
3624.63
3406.83
3187.16
2999.29
2879.87
2867.95
3004.34
3326.54
3843.17
4568.92
5510.81
6664.66
8012.39
9538.75
11213.1
12998.9
14852.8
16728.1
18577.8
20357.5
22027.8
23556.1
24919.5
26100.5
27089.7
27884.6
28489.4
28913.5
29169.9
29274.4
29244.4
29097.8
28852.5
28525.4
28131.9
27686.1
27201
26688.7
26159.8
25623.3
25087
24557.3
24039.4
23537.5
23054.9
22593.6
22154.8
21739.5
21348.2
20980.7
20636.2
20313.5
20011.1
19727.3
19460.1
19207.2
18966.4
18735.6
18512.8
18296.1
18083.9
17875
17668.4
17463.1
17258.5
17054.1
16849.6
16645
16440
16235
16030.1
15825.5
15621.3
15417.6
2751.65
2863.9
2980.9
3097.4
3206.36
3299.43
3367.76
3403.15
3399.69
3355.37
3272.54
3158.45
3025.68
2893.56
2781.94
2711.71
2704.63
2782.98
2967.4
3263.76
3677.39
4210.53
4859.21
5615.93
6470.25
7406.06
8403.4
9439.83
10491
11534.2
12547.8
13512.3
14411.4
15232.4
15966.3
16608
17155.7
17610.9
17978.1
18263.4
18474
18617.4
18701.5
18734.2
18723.2
18675.4
18597.4
18494.8
18372.6
18235.3
18086.7
17929.9
17767.5
17602
17435.2
17269.2
17105.4
16945.1
16789.3
16638.3
16492.3
16350.9
16213.5
16079.3
15947.6
15817.3
15687.7
15557.8
15426.7
15293.7
15158.1
15019.4
14877.4
14731.8
14582.6
14429.7
14273.3
14113.5
13950.8
13785.1
1927.32
1988.98
2057.35
2133.09
2216.37
2306.55
2401.97
2499.75
2595.75
2684.94
2761.85
2821.16
2858.3
2870.31
2856.69
2819.41
2763.18
2695.52
2627.33
2569.74
2534.15
2531.96
2574.49
2669.6
2821.33
3032.31
3302.32
3629.77
4009.45
4434.88
4898.11
5390.1
5901.25
6421.84
6942.63
7455.18
7952.28
8428.12
8878.19
9299.64
9691.27
10053
10385.7
10690.7
10969.8
11224.9
11457.7
11669.9
11862.8
12037.9
12195.9
12338.5
12466.3
12579.7
12679.2
12765.4
12839.1
12901.2
12952.8
12994.9
13028.2
13053.5
13071.4
13082.5
13087.3
13086
13078.6
13064.9
13044.6
13017.5
12983.3
12941.8
12893
12836.7
12772.9
12701.5
12622.8
12536.7
12443.8
12343.8
1420.06
1453.57
1489.36
1527.95
1569.92
1615.96
1666.77
1722.96
1784.84
1852.28
1924.57
2000.28
2077.31
2152.87
2223.77
2286.73
2338.71
2377.24
2400.85
2409.43
2404.3
2388.2
2365.4
2341.2
2321.09
2310.82
2316
2340.81
2388.66
2461.93
2561.68
2687.81
2839.18
3013.75
3208.84
3421.36
3648.02
3885.64
4130.96
4381.1
4633.93
4887.87
5141.83
5395.15
5647.49
5898.75
6148.91
6397.97
6645.81
6892.17
7136.57
7378.22
7616.48
7850.57
8079.52
8302.31
8517.89
8725.33
8923.76
9113.26
9293.59
9464.16
9624.54