/*--------------------------------*- C++ -*----------------------------------*\
  =========                 |
  \\      /  F ield         | OpenFOAM: The Open Source CFD Toolbox
   \\    /   O peration     | Website:  https://openfoam.org
    \\  /    A nd           | Version:  9
     \\/     M anipulation  |
\*---------------------------------------------------------------------------*/
FoamFile
{
    format      ascii;
    class       volScalarField;
    location    "280";
    object      p;
}
// * * * * * * * * * * * * * * * * * * * * * * * * * * * * * * * * * * * * * //

dimensions      [0 2 -2 0 0 0 0];

internalField   nonuniform List<scalar> 
26820
(
0.924129
0.932475
0.951306
0.977829
1.00957
1.04585
1.08591
0.923706
0.932049
0.950825
0.977285
1.00894
1.04508
1.08495
0.922917
0.931217
0.949903
0.976243
1.00771
1.04359
1.08308
0.921742
0.929959
0.948519
0.974678
1.00585
1.04135
1.08024
0.920181
0.928288
0.946688
0.972606
1.0034
1.03838
1.07647
0.918243
0.926217
0.94442
0.970038
1.00035
1.03469
1.07177
0.915934
0.923755
0.941727
0.966987
0.996723
1.03029
1.06617
0.913264
0.920915
0.938625
0.963468
0.992535
1.0252
1.05968
0.910243
0.917713
0.935129
0.959498
0.987804
1.01945
1.05233
0.906882
0.914164
0.931257
0.955096
0.982552
1.01305
1.04413
0.903194
0.910285
0.927031
0.950283
0.976802
1.00602
1.03512
0.899193
0.906096
0.92247
0.94508
0.970579
0.998398
1.02533
0.894892
0.901615
0.917597
0.939508
0.963908
0.990195
1.0148
0.890307
0.896863
0.912433
0.933592
0.956817
0.981437
1.00356
0.885453
0.891861
0.907001
0.927355
0.949334
0.972148
0.991663
0.880347
0.88663
0.901323
0.920821
0.941489
0.962353
0.979174
0.875006
0.881189
0.895417
0.914007
0.933299
0.952072
0.96616
0.869449
0.875568
0.889308
0.906933
0.92477
0.941301
0.952665
0.863689
0.869812
0.883082
0.899726
0.91604
0.930162
0.938827
0.857718
0.863903
0.876771
0.892555
0.907474
0.919258
0.925399
1.13256
1.18752
1.24973
1.31956
1.39718
1.48319
1.57848
1.68392
1.80044
1.9293
2.07256
2.23174
2.40728
2.6003
2.81253
3.04586
3.30222
3.58361
3.89217
4.2301
4.59965
5.00302
5.44231
5.91942
6.43591
6.9928
7.59033
8.22775
8.90294
9.612
10.3488
11.1046
11.8673
12.6209
13.3453
14.0159
14.6023
15.0797
15.4183
15.6102
1.13139
1.1863
1.24841
1.31811
1.39556
1.4814
1.57648
1.68169
1.79794
1.92649
2.06943
2.22824
2.40336
2.59588
2.80754
3.04022
3.29582
3.57635
3.88391
4.22069
4.58891
4.99073
5.42824
5.90329
6.4174
6.97152
7.56588
8.19964
8.87061
9.57486
10.3062
11.0558
11.8115
12.5573
13.2732
13.9347
14.5122
14.9814
15.3117
15.4754
1.12913
1.18392
1.24587
1.31532
1.39248
1.47799
1.5727
1.67748
1.79324
1.92124
2.06354
2.2216
2.39587
2.58743
2.79798
3.02938
3.28351
3.56234
3.86796
4.20249
4.56812
4.96694
5.40099
5.87205
6.38155
6.93036
7.5186
8.14533
8.80827
9.50333
10.2243
10.9621
11.7046
12.4358
13.1357
13.7802
14.3396
14.79
15.1007
15.236
1.12574
1.18031
1.24202
1.3111
1.38781
1.47283
1.56697
1.6711
1.78612
1.91326
2.05457
2.21151
2.38451
2.5746
2.78347
3.01294
3.26486
3.54115
3.84383
4.17499
4.53671
4.93104
5.35988
5.82494
6.32751
6.86833
7.44738
8.06356
8.7144
9.39568
10.101
10.8211
11.5438
12.253
12.9286
13.5467
14.0777
14.4973
14.7763
14.8815
1.12125
1.17552
1.2369
1.30549
1.38161
1.46596
1.55935
1.66261
1.77663
1.90264
2.04264
2.19809
2.3694
2.55754
2.76419
2.99111
3.2401
3.51301
3.81181
4.13849
4.49505
4.88342
5.30538
5.7625
6.2559
6.78617
7.35306
7.9553
8.59018
9.25325
9.93785
10.6346
11.3311
12.0112
12.6546
13.2375
13.7302
14.1082
14.3435
14.412
1.11569
1.16956
1.23053
1.2985
1.37389
1.45742
1.54987
1.65205
1.76484
1.88944
2.02782
2.18142
2.35063
2.53636
2.74025
2.964
3.20936
3.47809
3.77208
4.09322
4.44338
4.82438
5.23783
5.68513
6.16722
6.68445
7.23636
7.8214
8.43662
9.07727
9.73642
10.4045
11.0687
11.7129
12.3166
12.8559
13.3011
13.6275
13.8077
13.8314
1.10907
1.16245
1.22291
1.29016
1.36467
1.44722
1.53855
1.63945
1.75077
1.87368
2.01013
2.16154
2.32823
2.5111
2.7117
2.93169
3.17272
3.43649
3.72476
4.03931
4.3819
4.75414
5.15752
5.59319
6.06188
6.56369
7.09788
7.6626
8.25459
8.86879
9.49793
10.1321
10.7584
11.3601
11.9169
12.4048
12.7935
13.0589
13.1731
13.1441
1.10142
1.15421
1.21408
1.28048
1.35398
1.43539
1.52542
1.62483
1.73444
1.8554
1.98961
2.13848
2.30227
2.48182
2.67863
2.89427
3.13031
3.38835
3.67003
3.977
4.31085
4.67304
5.06481
5.48712
5.94043
6.42454
6.93841
7.47984
8.04523
8.62913
9.22393
9.81938
10.4021
10.9555
11.4585
11.8873
12.2113
12.4066
12.4447
12.3558
1.09275
1.14486
1.20405
1.26949
1.34184
1.42195
1.51051
1.60823
1.71591
1.83466
1.96634
2.11233
2.27284
2.44864
2.64116
2.85189
3.0823
3.33387
3.60812
3.90655
4.23057
4.58144
4.96018
5.36748
5.80351
6.26778
6.75887
7.27424
7.80985
8.35988
8.91629
9.46845
10.0026
10.5018
10.9448
11.3075
11.559
11.6761
11.6286
11.4732
1.08309
1.13442
1.19284
1.25721
1.32827
1.40695
1.49387
1.5897
1.69523
1.81151
1.94038
2.08316
2.24003
2.41166
2.59941
2.80469
3.02885
3.27325
3.53928
3.82826
4.1414
4.47976
4.84411
5.23486
5.65186
6.09428
6.56032
7.04702
7.54993
8.06277
8.57708
9.08177
9.56273
10.0025
10.3798
10.67
10.842
10.8733
10.7318
10.5043
1.07248
1.12294
1.1805
1.24367
1.31332
1.39041
1.47552
1.56928
1.67244
1.78602
1.91179
2.05106
2.20392
2.37098
2.55352
2.75283
2.97016
3.20673
3.46377
3.74244
4.04373
4.36847
4.71717
5.08992
5.48626
5.90497
6.34386
6.79952
7.26706
7.73972
8.20854
8.66201
9.08553
9.46132
9.76757
9.9798
10.0659
10.0051
9.7619
9.45788
1.06093
1.11043
1.16704
1.2289
1.29701
1.37238
1.45553
1.54703
1.64761
1.75826
1.88067
2.01612
2.16465
2.32675
2.50363
2.69649
2.90643
3.13454
3.38189
3.64944
3.93798
4.24806
4.57994
4.93337
5.30756
5.70087
6.11071
6.53321
6.96297
7.39276
7.81312
8.21202
8.57441
8.88211
9.11289
9.24219
9.23707
9.07846
8.72726
8.34356
1.04849
1.09693
1.15251
1.21294
1.27939
1.35291
1.43393
1.52299
1.62081
1.72829
1.84709
1.97844
2.12231
2.2791
2.44992
2.63586
2.83789
3.05696
3.29396
3.54964
3.82458
4.11907
4.43305
4.76597
5.11666
5.48307
5.86217
6.24961
6.6395
7.02408
7.39338
7.73485
8.03297
8.26913
8.42065
8.46294
8.36212
8.10133
7.63672
7.17163
1.03518
1.08247
1.13694
1.19582
1.2605
1.33204
1.41078
1.49725
1.5921
1.69621
1.81115
1.93813
2.07703
2.22817
2.39255
2.57114
2.76478
2.97426
3.2003
3.44343
3.704
3.98204
4.27718
4.58852
4.91451
5.2527
5.59959
5.95035
6.29857
6.63598
6.95204
7.23373
7.46499
7.62682
7.69606
7.64811
7.44815
7.08169
6.49967
5.95302
1.02102
1.0671
1.12038
1.17758
1.24037
1.30981
1.38614
1.46984
1.56156
1.66209
1.77295
1.89531
2.02896
2.17412
2.33169
2.50254
2.68734
2.88674
3.10126
3.33123
3.57675
3.83757
4.11302
4.40185
4.70212
5.01095
5.32439
5.63711
5.9422
6.23083
6.49195
6.712
6.87442
6.95981
6.94452
6.80396
6.50245
6.02796
5.32599
4.69921
1.00602
1.05085
1.10285
1.15826
1.21907
1.28629
1.36007
1.44086
1.52927
1.62603
1.73259
1.85008
1.97822
2.11711
2.26755
2.43028
2.60585
2.79471
2.99721
3.21347
3.44333
3.68627
3.9413
4.20682
4.4805
4.75905
5.03803
5.31164
5.57245
5.81109
6.01599
6.17309
6.2653
6.27287
6.17164
5.93704
5.53257
4.94912
4.12604
3.4222
0.990148
1.03379
1.0844
1.13788
1.19664
1.26154
1.33262
1.41036
1.49531
1.58811
1.69018
1.80259
1.92496
2.0573
2.20032
2.3546
2.52056
2.69849
2.88853
3.09059
3.30427
3.52877
3.76276
4.00432
4.25072
4.49824
4.74201
4.97571
5.19142
5.37927
5.52715
5.6205
5.64179
5.57086
5.38313
5.05406
4.54631
3.8544
2.91043
2.13438
0.973326
1.01604
1.06504
1.11648
1.17313
1.23559
1.30388
1.37842
1.45976
1.54845
1.64583
1.75295
1.86933
1.99489
2.1302
2.27574
2.43176
2.5984
2.7756
2.96305
3.16011
3.36569
3.57817
3.79525
4.01384
4.22981
4.43782
4.63112
4.80126
4.93789
5.02841
5.05779
5.00804
4.85871
4.58474
4.1618
3.5515
2.75293
1.68984
0.848363
0.955322
0.997742
1.04479
1.09411
1.14861
1.20853
1.27389
1.34513
1.42271
1.50713
1.59966
1.7013
1.81149
1.93003
2.0574
2.19393
2.33973
2.49477
2.65881
2.83132
3.0114
3.19769
3.38827
3.58051
3.77094
3.95502
4.127
4.27965
4.40409
4.48948
4.52276
4.48847
4.36822
4.14131
3.78224
3.26699
2.55598
1.6538
0.474982
-0.423148
0.936175
0.978956
1.02362
1.07084
1.12313
1.1804
1.24274
1.31055
1.38426
1.46426
1.55178
1.64778
1.7516
1.86292
1.98213
2.10942
2.24476
2.38795
2.53857
2.69585
2.85868
3.02542
3.19385
3.36102
3.52309
3.67515
3.81104
3.92311
4.00204
4.03655
4.01317
3.91606
3.72647
3.42351
2.98129
2.37628
1.56745
0.565956
-0.723574
-1.66747
0.91805
0.959296
1.00124
1.04673
1.09676
1.15127
1.21049
1.27478
1.34449
1.41996
1.50233
1.59253
1.68981
1.79375
1.90461
2.02247
2.14715
2.27829
2.41526
2.55713
2.70251
2.84953
2.99567
3.13767
3.27136
3.39147
3.49144
3.56326
3.59718
3.58156
3.50254
3.34398
3.08681
2.71004
2.18742
1.49614
0.59341
-0.501838
-1.89565
-2.87211
0.901324
0.938031
0.977859
1.02188
1.06954
1.1212
1.17723
1.2379
1.30351
1.37432
1.45142
1.53569
1.6263
1.72269
1.82506
1.93333
2.04719
2.16611
2.2893
2.41561
2.54344
2.67066
2.79449
2.91136
3.0168
3.1052
3.16967
3.20181
3.19155
3.12691
2.99371
2.77556
2.45315
2.00549
1.40598
0.632816
-0.358936
-1.5412
-3.03222
-4.02472
0.883857
0.916129
0.954003
0.996377
1.04153
1.09026
1.14303
1.19999
1.2614
1.32746
1.39917
1.47741
1.56122
1.64995
1.74369
1.84226
1.94517
2.05177
2.16108
2.27176
2.382
2.48944
2.59104
2.68297
2.76044
2.81756
2.84713
2.84044
2.78711
2.6749
2.48936
2.21396
1.8292
1.31422
0.642071
-0.207762
-1.28279
-2.54415
-4.12343
-5.11638
0.864956
0.893864
0.929862
0.97026
1.01277
1.05853
1.10797
1.16114
1.21827
1.27949
1.34573
1.41782
1.49474
1.57571
1.66074
1.74949
1.84139
1.9356
2.031
2.12604
2.21874
2.30651
2.38607
2.45333
2.50327
2.52971
2.52519
2.48074
2.38574
2.22772
1.99209
1.66222
1.2185
0.640356
-0.0995248
-1.02
-2.17171
-3.50363
-5.15736
-6.14125
0.844935
0.871292
0.905373
0.943552
0.983356
1.0261
1.07213
1.12144
1.17422
1.23052
1.2912
1.35709
1.42703
1.50017
1.5764
1.6553
1.73613
1.81794
1.89943
1.97891
2.05418
2.12246
2.18026
2.22328
2.24624
2.24277
2.20515
2.12423
1.9892
1.78746
1.5043
1.12314
0.624335
-0.0122706
-0.814356
-1.79874
-3.0196
-4.41543
-6.1213
-7.09119
0.824182
0.848419
0.880484
0.916293
0.953345
0.993018
1.03559
1.08098
1.12935
1.18066
1.23573
1.29534
1.35825
1.42351
1.49091
1.55993
1.62969
1.69912
1.76677
1.83079
1.88881
1.93787
1.9743
1.99359
1.99028
1.95779
1.88824
1.77234
1.59915
1.35601
1.02823
0.599318
0.049705
-0.64016
-1.49835
-2.53937
-3.82006
-5.27312
-7.00845
-7.9567
0.802905
0.825211
0.855206
0.888547
0.922805
0.959366
0.998418
1.03984
1.08375
1.13004
1.17945
1.23273
1.28857
1.34592
1.40448
1.46361
1.52234
1.57945
1.63337
1.68211
1.72313
1.75332
1.76884
1.76502
1.73623
1.67576
1.57561
1.42638
1.2171
0.935154
0.565889
0.0930862
-0.502685
-1.24019
-2.14783
-3.2378
-4.56835
-6.06573
-7.81599
-8.73069
0.781202
0.80166
0.829582
0.860376
0.8918
0.925212
0.960705
0.99811
1.03753
1.07876
1.12247
1.1694
1.21816
1.26758
1.31732
1.3666
1.41435
1.45925
1.49961
1.53327
1.5576
1.56934
1.56449
1.53826
1.4849
1.3976
1.2683
1.08756
0.844454
0.526456
0.119095
-0.393485
-1.03046
-1.80965
-2.75961
-3.89049
-5.26049
-6.78681
-8.53946
-9.40802
0.759142
0.777803
0.803651
0.831836
0.860393
0.890624
0.922524
0.955887
0.990785
1.02693
1.06492
1.1055
1.14716
1.18869
1.22963
1.26912
1.306
1.33883
1.36581
1.38468
1.39268
1.38642
1.36182
1.31397
1.23704
1.12417
0.967274
0.756978
0.482426
0.131312
-0.310584
-0.85862
-1.53162
-2.34627
-3.33102
-4.4942
-5.89194
-7.43493
-9.17338
-9.98519
0.736787
0.753691
0.777453
0.802979
0.828647
0.855673
0.883954
0.913256
0.943618
0.97466
1.00694
1.04116
1.07575
1.10941
1.14161
1.17141
1.19754
1.21847
1.23231
1.2367
1.22877
1.20506
1.16138
1.09276
0.993331
0.856221
0.673398
0.435582
0.132092
-0.249087
-0.721823
-1.30085
-2.00451
-2.84828
-3.85998
-5.04639
-6.46051
-8.00874
-9.71308
-10.4605
0.714196
0.729368
0.751028
0.773858
0.796625
0.820428
0.845074
0.870303
0.896125
0.922069
0.948644
0.976519
1.00408
1.02992
1.05347
1.07368
1.08921
1.09846
1.09942
1.08968
1.06628
1.02568
0.963645
0.875172
0.754384
0.594446
0.387424
0.124207
-0.205641
-0.613752
-1.11355
-1.71903
-2.4479
-3.3144
-4.3452
-5.54562
-6.96555
-8.50612
-10.1554
-10.8344
0.69142
0.704877
0.724417
0.744526
0.76439
0.784958
0.80596
0.827115
0.848401
0.869262
0.890163
0.911716
0.932293
0.950392
0.965384
0.97614
0.981255
0.979045
0.967446
0.943958
0.905573
0.848701
0.769085
0.661715
0.52075
0.339441
0.11
-0.176449
-0.530028
-0.961899
-1.48495
-2.11233
-2.86094
-3.74383
-4.7861
-5.99174
-7.40645
-8.92526
-10.4991
-11.1089
0.668507
0.680263
0.697664
0.715038
0.732004
0.74933
0.766689
0.783778
0.800542
0.816344
0.831607
0.846879
0.86054
0.87099
0.877547
0.879006
0.873903
0.860495
0.836656
0.799837
0.746988
0.674496
0.578104
0.452832
0.29291
0.0917198
-0.15833
-0.46582
-0.84049
-1.29295
-1.83546
-2.48027
-3.2432
-4.13625
-5.18267
-6.38497
-7.78306
-9.26565
-10.7445
-11.2877
0.645504
0.655569
0.670816
0.685444
0.699527
0.713612
0.727338
0.740376
0.752639
0.763419
0.773074
0.782138
0.788964
0.791872
0.790131
0.782466
0.767368
0.743041
0.707315
0.657604
0.590839
0.503404
0.391066
0.248911
0.0712742
-0.14829
-0.417129
-0.743473
-1.13661
-1.60657
-2.16481
-2.82265
-3.59465
-4.49181
-5.53543
-6.72605
-8.09635
-9.52809
-10.894
-11.376
0.622453
0.630839
0.643916
0.655799
0.667022
0.677868
0.687981
0.696992
0.704785
0.710589
0.714681
0.717619
0.717705
0.713193
0.703305
0.686708
0.661854
0.626906
0.579665
0.517523
0.437409
0.335726
0.208294
0.050289
-0.143813
-0.380243
-0.666063
-1.00912
-1.41817
-1.90256
-2.47289
-3.1395
-3.9156
-4.81115
-5.84548
-7.01641
-8.34841
-9.71448
-10.952
-11.3803
0.5994
0.606116
0.617013
0.626151
0.634548
0.642164
0.648692
0.653708
0.657071
0.657957
0.656556
0.653451
0.646898
0.635098
0.617231
0.591906
0.557552
0.512299
0.453929
0.379833
0.286952
0.17173
0.0300621
-0.142755
-0.352078
-0.6039
-0.904936
-1.26258
-1.68502
-2.18086
-2.75984
-3.43124
-4.20675
-5.09535
-6.11444
-7.25814
-8.54233
-9.82798
-10.9253
-11.3084
0.576391
0.581438
0.590153
0.596553
0.602165
0.606564
0.609546
0.610604
0.609588
0.605623
0.598809
0.58975
0.576676
0.557733
0.532064
0.498229
0.454644
0.399413
0.330317
0.244754
0.139698
0.0116518
-0.143398
-0.33001
-0.553325
-0.819058
-1.13355
-1.50372
-1.93715
-2.4417
-3.02609
-3.69854
-4.46913
-5.34586
-6.34421
-7.45378
-8.6822
-9.87334
-10.8232
-11.1693
0.55347
0.556834
0.563383
0.567049
0.569931
0.571125
0.570612
0.567753
0.562419
0.553677
0.541536
0.526625
0.507157
0.481223
0.447942
0.405824
0.353286
0.288415
0.208998
0.112455
-0.00418909
-0.14435
-0.311922
-0.511294
-0.747373
-1.02558
-1.35186
-1.73263
-2.17482
-2.68548
-3.27228
-3.9423
-4.70409
-5.56452
-6.53665
-7.60694
-8.77359
-9.85762
-10.6579
-10.9733
0.530709
0.532339
0.53677
0.537694
0.53792
0.535922
0.531977
0.525248
0.515667
0.502232
0.484852
0.464213
0.438495
0.405733
0.365041
0.314879
0.253676
0.179511
0.0901935
-0.0168196
-0.14444
-0.295987
-0.475223
-0.68635
-0.934025
-1.22334
-1.55984
-1.94937
-2.39821
-2.91257
-3.49905
-4.16348
-4.91307
-5.75339
-6.69304
-7.72357
-8.82194
-9.7893
-10.444
-10.7325
0.508118
0.507944
0.51033
0.508498
0.506148
0.500966
0.493658
0.483104
0.469348
0.451306
0.42877
0.402514
0.370685
0.33125
0.283346
0.225373
0.155789
0.0726682
-0.0261444
-0.143147
-0.281174
-0.443436
-0.633542
-0.855491
-1.11367
-1.41284
-1.75807
-2.15469
-2.60826
-3.12416
-3.70792
-4.36399
-5.09839
-5.91576
-6.81763
-7.81045
-8.83435
-9.68226
-10.2016
-10.461
0.846338
0.85168
0.862297
0.874721
0.885288
0.891239
0.890903
0.8281
0.831819
0.838771
0.84602
0.850495
0.849953
0.843531
0.807075
0.8091
0.812542
0.815069
0.814324
0.80859
0.797488
0.783235
0.783698
0.783977
0.782382
0.77732
0.767622
0.753574
0.7567
0.755809
0.753381
0.748401
0.740059
0.727718
0.712163
0.727725
0.725742
0.721179
0.713676
0.703136
0.689353
0.673404
0.6967
0.693927
0.687868
0.67873
0.666996
0.652774
0.637271
0.664135
0.660886
0.653969
0.644029
0.631965
0.618091
0.603616
0.630628
0.627195
0.619998
0.609971
0.598264
0.585305
0.572223
0.596818
0.593444
0.586439
0.576882
0.566027
0.554341
0.542829
0.563331
0.560196
0.553727
0.545025
0.535335
0.525112
0.515223
0.530735
0.527954
0.522232
0.514606
0.506229
0.497513
0.489188
0.499506
0.497131
0.492251
0.485785
0.478745
0.471491
0.464625
0.470003
0.46804
0.464005
0.458673
0.452899
0.446982
0.441412
0.442469
0.44089
0.43764
0.433351
0.42872
0.423988
0.419549
0.417029
0.415787
0.413226
0.409845
0.406197
0.40247
0.398981
0.393718
0.39276
0.390779
0.388162
0.385338
0.38245
0.379749
0.372492
0.371762
0.370252
0.368252
0.366093
0.36388
0.361809
0.353254
0.352706
0.35157
0.350062
0.348432
0.346756
0.345189
0.335871
0.335463
0.334613
0.333485
0.332262
0.331003
0.329824
0.320198
0.319896
0.319267
0.31843
0.317522
0.316583
0.315704
0.306072
0.305849
0.305384
0.304765
0.304092
0.303394
0.302741
0.293347
0.293184
0.292843
0.292387
0.291891
0.291375
0.290893
0.281869
0.281748
0.281497
0.281162
0.280796
0.280415
0.280059
0.27151
0.271423
0.271239
0.270993
0.270725
0.270444
0.270183
0.262139
0.262074
0.261939
0.261758
0.261561
0.261353
0.261161
0.253654
0.253607
0.253508
0.253375
0.25323
0.253077
0.252936
0.245946
0.24591
0.245837
0.245739
0.245633
0.24552
0.245416
0.238937
0.238912
0.238858
0.238786
0.238707
0.238624
0.238547
0.232543
0.232524
0.232484
0.23243
0.232372
0.23231
0.232253
0.226707
0.226693
0.226663
0.226624
0.22658
0.226534
0.226492
0.221365
0.221355
0.221332
0.221303
0.22127
0.221235
0.221204
0.216488
0.21648
0.216463
0.21644
0.216416
0.216389
0.216365
0.212039
0.212033
0.21202
0.212002
0.211983
0.211963
0.211944
0.208021
0.208016
0.208006
0.207992
0.207977
0.207961
0.207946
0.204439
0.204435
0.204427
0.204416
0.204404
0.204391
0.204379
0.201339
0.201336
0.201329
0.20132
0.20131
0.201299
0.201289
0.198786
0.198783
0.198777
0.198768
0.19876
0.19875
0.198741
0.196893
0.19689
0.196885
0.196878
0.19687
0.196861
0.196853
0.195825
0.195823
0.195818
0.195811
0.195803
0.195795
0.195787
0.882979
0.862699
0.841112
0.822431
0.804276
0.785238
0.765568
0.74571
0.725771
0.705717
0.685545
0.665289
0.644986
0.624663
0.604342
0.584045
0.563799
0.543628
0.523557
0.503613
0.83352
0.811083
0.788674
0.771204
0.754981
0.73786
0.720224
0.702696
0.685342
0.668025
0.650701
0.6334
0.616151
0.598966
0.58185
0.564812
0.547859
0.530996
0.514216
0.497527
0.785283
0.765396
0.745899
0.73079
0.716679
0.701657
0.686155
0.670796
0.655639
0.640544
0.625473
0.61046
0.595536
0.580706
0.56597
0.551333
0.536802
0.522386
0.508094
0.493947
0.740097
0.722699
0.705486
0.691761
0.678914
0.665433
0.651663
0.638111
0.62482
0.611665
0.598602
0.585649
0.57282
0.560108
0.547505
0.535001
0.522591
0.510269
0.498016
0.485843
0.698281
0.683304
0.668421
0.656322
0.645037
0.633351
0.621491
0.609841
0.598435
0.58717
0.576007
0.564957
0.554031
0.543224
0.53253
0.521946
0.51147
0.501103
0.490839
0.480687
0.65982
0.647072
0.634316
0.623707
0.613786
0.603603
0.593307
0.583195
0.573299
0.563543
0.553894
0.544358
0.53494
0.525635
0.516435
0.507331
0.498318
0.489391
0.480538
0.471769
0.624499
0.613738
0.602885
0.593665
0.585028
0.576245
0.567409
0.558741
0.550271
0.541943
0.533726
0.525623
0.517638
0.509766
0.501999
0.494333
0.486762
0.479283
0.471885
0.464576
0.591962
0.582917
0.573714
0.565742
0.558257
0.550697
0.543115
0.535674
0.5284
0.521251
0.514202
0.507253
0.500405
0.493655
0.486996
0.480422
0.473929
0.467515
0.461168
0.454901
0.561865
0.554285
0.546511
0.539669
0.533234
0.526773
0.520313
0.513976
0.507785
0.501709
0.495729
0.489844
0.484056
0.47836
0.472752
0.467227
0.46178
0.456409
0.451105
0.445875
0.533809
0.527459
0.520897
0.515049
0.509541
0.504033
0.498536
0.493141
0.487868
0.482696
0.477607
0.472601
0.467677
0.462833
0.458065
0.453369
0.448742
0.444181
0.439681
0.435249
0.507529
0.502221
0.496702
0.491743
0.487069
0.482413
0.477772
0.473218
0.46877
0.46441
0.460127
0.455919
0.451785
0.447723
0.443731
0.439805
0.435942
0.432141
0.428395
0.424709
0.482731
0.478294
0.473656
0.469468
0.465523
0.461599
0.457689
0.453853
0.450106
0.446435
0.44283
0.439288
0.435812
0.432398
0.429044
0.425749
0.42251
0.419326
0.416192
0.413115
0.459304
0.45561
0.451733
0.448228
0.444931
0.441655
0.438393
0.435193
0.43207
0.429012
0.426012
0.423069
0.420182
0.417351
0.414573
0.411847
0.40917
0.406543
0.403961
0.401428
0.437086
0.434016
0.430783
0.427863
0.425122
0.4224
0.419688
0.417028
0.414433
0.411894
0.409405
0.406963
0.404571
0.402226
0.399929
0.397676
0.395468
0.393303
0.391179
0.3891
0.416089
0.413555
0.410878
0.40847
0.406215
0.403975
0.401744
0.399557
0.397424
0.39534
0.393298
0.391297
0.389339
0.387422
0.385546
0.383709
0.381911
0.380151
0.378427
0.376742
0.396244
0.39416
0.391952
0.389975
0.388129
0.386296
0.384469
0.382677
0.380932
0.379228
0.37756
0.375928
0.374331
0.372771
0.371245
0.369754
0.368297
0.366873
0.365482
0.364125
0.377614
0.375913
0.374107
0.372499
0.371003
0.369517
0.368035
0.366583
0.36517
0.363792
0.362444
0.361127
0.35984
0.358584
0.357358
0.356162
0.354995
0.353857
0.352747
0.351667
0.360157
0.358775
0.357303
0.356001
0.354794
0.353595
0.352398
0.351226
0.350087
0.348977
0.347893
0.346835
0.345802
0.344796
0.343816
0.342862
0.341933
0.341029
0.34015
0.339297
0.343924
0.342809
0.341619
0.340573
0.339608
0.338648
0.337689
0.336751
0.335841
0.334955
0.334092
0.333249
0.332429
0.331631
0.330855
0.330101
0.329369
0.328658
0.327968
0.327302
0.32886
0.327964
0.327006
0.326168
0.325397
0.324631
0.323866
0.323118
0.322393
0.321689
0.321003
0.320335
0.319686
0.319056
0.318444
0.317851
0.317277
0.316722
0.316185
0.315667
0.314975
0.31426
0.313492
0.312825
0.312214
0.311607
0.311
0.310407
0.309834
0.309278
0.308737
0.308211
0.307701
0.307207
0.306729
0.306266
0.30582
0.305389
0.304974
0.304575
0.302191
0.301621
0.301008
0.300477
0.299994
0.299513
0.299033
0.298564
0.298112
0.297673
0.297248
0.296835
0.296435
0.296049
0.295676
0.295317
0.294971
0.294639
0.294319
0.294014
0.29048
0.290028
0.28954
0.289121
0.288739
0.288361
0.287982
0.287614
0.287258
0.286914
0.286581
0.286259
0.285947
0.285647
0.285358
0.28508
0.284813
0.284558
0.284314
0.284082
0.279748
0.279391
0.279004
0.278672
0.278371
0.278073
0.277775
0.277485
0.277206
0.276937
0.276677
0.276425
0.276183
0.27595
0.275726
0.275511
0.275307
0.275111
0.274925
0.274749
0.269949
0.269667
0.269361
0.269099
0.268863
0.268629
0.268395
0.268168
0.26795
0.26774
0.267537
0.267341
0.267153
0.266973
0.2668
0.266635
0.266478
0.26633
0.266188
0.266056
0.260985
0.260763
0.260521
0.260315
0.260129
0.259946
0.259763
0.259585
0.259414
0.25925
0.259092
0.25894
0.258794
0.258655
0.258522
0.258395
0.258275
0.258162
0.258055
0.257955
0.252803
0.252629
0.252439
0.252277
0.252132
0.251988
0.251845
0.251706
0.251573
0.251445
0.251322
0.251204
0.251091
0.250984
0.250881
0.250784
0.250693
0.250607
0.250526
0.250451
0.245315
0.245179
0.24503
0.244902
0.244788
0.244676
0.244564
0.244456
0.244352
0.244253
0.244157
0.244066
0.243979
0.243896
0.243817
0.243743
0.243673
0.243607
0.243546
0.24349
0.238472
0.238366
0.238248
0.238149
0.23806
0.237972
0.237885
0.237801
0.23772
0.237643
0.237569
0.237498
0.237431
0.237367
0.237307
0.23725
0.237197
0.237147
0.237101
0.237058
0.232196
0.232113
0.232022
0.231944
0.231875
0.231807
0.231739
0.231673
0.231611
0.231551
0.231494
0.231439
0.231387
0.231338
0.231292
0.231248
0.231208
0.23117
0.231135
0.231103
0.226448
0.226385
0.226314
0.226253
0.226199
0.226147
0.226094
0.226043
0.225995
0.225949
0.225905
0.225863
0.225823
0.225785
0.225749
0.225716
0.225685
0.225657
0.22563
0.225606
0.22117
0.221122
0.221067
0.22102
0.220979
0.220938
0.220897
0.220858
0.220821
0.220785
0.220751
0.220719
0.220688
0.22066
0.220632
0.220607
0.220583
0.220562
0.220541
0.220523
0.216339
0.216303
0.216261
0.216225
0.216193
0.216162
0.216131
0.216101
0.216073
0.216046
0.21602
0.215995
0.215972
0.21595
0.215929
0.215909
0.215891
0.215875
0.215859
0.215846
0.211924
0.211897
0.211866
0.211839
0.211815
0.211791
0.211768
0.211745
0.211723
0.211703
0.211683
0.211664
0.211647
0.21163
0.211614
0.211599
0.211585
0.211573
0.211561
0.21155
0.20793
0.207911
0.207889
0.207868
0.20785
0.207833
0.207816
0.207799
0.207783
0.207767
0.207753
0.207738
0.207725
0.207712
0.2077
0.207689
0.207678
0.207669
0.207659
0.207651
0.204366
0.204353
0.204337
0.204322
0.204309
0.204296
0.204284
0.204272
0.20426
0.204249
0.204238
0.204227
0.204217
0.204208
0.204199
0.20419
0.204182
0.204174
0.204167
0.20416
0.201278
0.20127
0.201259
0.201249
0.20124
0.201231
0.201222
0.201214
0.201205
0.201197
0.201189
0.201182
0.201174
0.201167
0.20116
0.201154
0.201147
0.201141
0.201136
0.20113
0.198733
0.198728
0.198721
0.198715
0.198708
0.198702
0.198696
0.19869
0.198685
0.198679
0.198673
0.198668
0.198662
0.198657
0.198652
0.198647
0.198642
0.198637
0.198632
0.198628
0.196846
0.196843
0.196839
0.196835
0.196831
0.196827
0.196823
0.196819
0.196815
0.196811
0.196807
0.196803
0.196799
0.196795
0.196791
0.196787
0.196783
0.196779
0.196774
0.196771
0.195782
0.195779
0.195777
0.195774
0.195771
0.195768
0.195765
0.195762
0.195759
0.195756
0.195752
0.195749
0.195746
0.195742
0.195739
0.195736
0.195732
0.195728
0.195725
0.195721
-10.1706
-9.87393
-9.57194
-9.27355
-8.98473
-8.7074
-8.44077
-8.18315
-7.93317
-7.69011
-7.45364
-7.2234
-6.99883
-6.77921
-6.56377
-6.35189
-6.14309
-5.93698
-5.73323
-5.53149
-5.33139
-5.13259
-4.93482
-4.73786
-4.54153
-4.34575
-4.15043
-3.95558
-3.76123
-3.56755
-3.37474
-3.18311
-2.99305
-2.80507
-2.6197
-2.43761
-2.25954
-2.08626
-1.91858
-1.75731
-1.60325
-1.45711
-1.31948
-1.19084
-1.07145
-0.961436
-0.860712
-0.76903
-0.685988
-0.611064
-0.543647
-0.48309
-0.428731
-0.379891
-0.335909
-0.296176
-0.260144
-0.227331
-0.197318
-0.169742
-0.144308
-0.120758
-0.0988736
-0.0784694
-0.0593925
-0.0415109
-0.0247247
-0.00895588
0.00587469
0.0198316
0.0329753
0.045356
0.0570064
0.0679672
0.0782794
0.0879697
0.0970682
0.105613
0.113646
0.121231
-9.94677
-9.68957
-9.43027
-9.17107
-8.91234
-8.65555
-8.40196
-8.15243
-7.90772
-7.66858
-7.43542
-7.20813
-6.98614
-6.76873
-6.55513
-6.34476
-6.13721
-5.93215
-5.72929
-5.52829
-5.32883
-5.13059
-4.93328
-4.7367
-4.54071
-4.34521
-4.15014
-3.95549
-3.76132
-3.56779
-3.37511
-3.18358
-2.99361
-2.8057
-2.62039
-2.43834
-2.26029
-2.08702
-1.91934
-1.75806
-1.60398
-1.4578
-1.32013
-1.19143
-1.07199
-0.961919
-0.861134
-0.76939
-0.686288
-0.611307
-0.543837
-0.483232
-0.428832
-0.379954
-0.335941
-0.296182
-0.260129
-0.227299
-0.197273
-0.169688
-0.144246
-0.120692
-0.0988037
-0.0783979
-0.0593207
-0.0414397
-0.0246548
-0.00888788
0.00594042
0.0198948
0.0330358
0.0454136
0.0570611
0.0680189
0.0783282
0.0880158
0.0971116
0.105654
0.113684
0.121267
-9.54597
-9.36984
-9.17465
-8.96706
-8.74744
-8.52087
-8.29268
-8.06541
-7.83982
-7.61628
-7.39514
-7.17667
-6.96101
-6.74814
-6.53796
-6.3303
-6.12501
-5.92189
-5.7207
-5.52114
-5.3229
-5.12568
-4.92924
-4.73341
-4.53805
-4.34309
-4.14848
-3.95423
-3.7604
-3.56716
-3.37473
-3.18342
-2.99363
-2.80587
-2.62068
-2.43873
-2.26076
-2.08755
-1.9199
-1.75865
-1.60457
-1.45839
-1.3207
-1.19197
-1.07249
-0.962365
-0.861527
-0.769728
-0.686571
-0.611535
-0.544013
-0.48336
-0.428917
-0.380001
-0.335955
-0.296168
-0.260092
-0.227245
-0.197205
-0.169609
-0.14416
-0.1206
-0.0987098
-0.0783029
-0.0592259
-0.0413463
-0.0245637
-0.00879957
0.00602548
0.0199763
0.0331135
0.0454876
0.0571311
0.0680851
0.0783907
0.0880745
0.0971668
0.105705
0.113732
0.121312
-8.80699
-8.72351
-8.62178
-8.50745
-8.37344
-8.21987
-8.05153
-7.87231
-7.68472
-7.49103
-7.29346
-7.09393
-6.89378
-6.69375
-6.49415
-6.29508
-6.0966
-5.8988
-5.70173
-5.50539
-5.3097
-5.11455
-4.91984
-4.72548
-4.53137
-4.33748
-4.14379
-3.95032
-3.75716
-3.5645
-3.37257
-3.18168
-2.99227
-2.80482
-2.6199
-2.43818
-2.2604
-2.08735
-1.91984
-1.75869
-1.6047
-1.45858
-1.32093
-1.19223
-1.07276
-0.962629
-0.861775
-0.769951
-0.686762
-0.611691
-0.544131
-0.483441
-0.428962
-0.380015
-0.33594
-0.296129
-0.260033
-0.227169
-0.197116
-0.169511
-0.144055
-0.120493
-0.0986
-0.078193
-0.0591172
-0.0412398
-0.0244602
-0.00869977
0.00612121
0.0200677
0.0332005
0.04557
0.057209
0.0681585
0.0784597
0.0881394
0.0972276
0.105762
0.113786
0.121362
-7.85473
-7.84967
-7.83007
-7.79815
-7.74492
-7.66814
-7.57192
-7.46036
-7.33582
-7.19935
-7.05188
-6.89504
-6.73062
-6.5601
-6.38465
-6.20523
-6.02272
-5.83798
-5.65166
-5.46415
-5.2757
-5.08646
-4.89657
-4.70612
-4.5152
-4.3239
-4.13235
-3.94066
-3.74901
-3.55762
-3.36678
-3.17684
-2.98825
-2.80152
-2.61721
-2.43602
-2.2587
-2.08604
-1.91886
-1.758
-1.60424
-1.45831
-1.32081
-1.19223
-1.07284
-0.962765
-0.86194
-0.770123
-0.686926
-0.611834
-0.544245
-0.483522
-0.429009
-0.380028
-0.335922
-0.296084
-0.259964
-0.227082
-0.197014
-0.169398
-0.143935
-0.120368
-0.0984731
-0.078066
-0.0589917
-0.041117
-0.0243412
-0.00858521
0.00623087
0.0201722
0.0332997
0.0456638
0.0572974
0.0682416
0.0785378
0.0882126
0.0972961
0.105826
0.113845
0.121417
-6.89741
-6.93625
-6.96264
-6.97966
-6.98296
-6.96706
-6.93235
-6.88197
-6.81752
-6.73805
-6.6431
-6.53488
-6.41585
-6.28762
-6.15095
-6.00629
-5.85443
-5.6964
-5.53305
-5.36497
-5.19276
-5.01715
-4.83867
-4.65776
-4.47479
-4.2901
-4.10405
-3.91697
-3.72917
-3.54101
-3.35287
-3.16521
-2.97853
-2.79343
-2.61055
-2.43061
-2.25438
-2.08263
-1.91622
-1.75602
-1.60281
-1.45733
-1.3202
-1.1919
-1.07272
-0.962799
-0.862072
-0.77031
-0.687132
-0.612035
-0.544426
-0.48367
-0.429116
-0.380091
-0.335942
-0.296065
-0.259912
-0.227002
-0.196912
-0.169279
-0.143804
-0.120229
-0.0983301
-0.0779215
-0.0588479
-0.0409756
-0.0242036
-0.00845259
0.0063579
0.0202933
0.0334146
0.0457724
0.0573997
0.0683378
0.0786279
0.0882968
0.0973748
0.1059
0.113914
0.121481
-6.02979
-6.10097
-6.16017
-6.20445
-6.23224
-6.24593
-6.24612
-6.23292
-6.20861
-6.1731
-6.12352
-6.06027
-5.98571
-5.90115
-5.80543
-5.69771
-5.57966
-5.45327
-5.31959
-5.17861
-5.03075
-4.87712
-4.71846
-4.55515
-4.38754
-4.21614
-4.04152
-3.86422
-3.68478
-3.50377
-3.32174
-3.13928
-2.95703
-2.7757
-2.59603
-2.4188
-2.24485
-2.07508
-1.91039
-1.75163
-1.59962
-1.45511
-1.31875
-1.19104
-1.07231
-0.96271
-0.862197
-0.770564
-0.687449
-0.612367
-0.544741
-0.483945
-0.429333
-0.380244
-0.336033
-0.296099
-0.259896
-0.226944
-0.19682
-0.16916
-0.143666
-0.120078
-0.0981707
-0.077758
-0.0586835
-0.0408126
-0.0240442
-0.00829857
0.00650562
0.0204341
0.0335483
0.0458988
0.0575186
0.0684493
0.0787317
0.0883931
0.0974645
0.105983
0.113992
0.121554
-5.22968
-5.315