/*--------------------------------*- C++ -*----------------------------------*\
  =========                 |
  \\      /  F ield         | OpenFOAM: The Open Source CFD Toolbox
   \\    /   O peration     | Website:  https://openfoam.org
    \\  /    A nd           | Version:  9
     \\/     M anipulation  |
\*---------------------------------------------------------------------------*/
FoamFile
{
    format      ascii;
    class       surfaceScalarField;
    location    "280";
    object      phi;
}
// * * * * * * * * * * * * * * * * * * * * * * * * * * * * * * * * * * * * * //

dimensions      [0 3 -1 0 0 0 0];

internalField   nonuniform List<scalar> 
53213
(
0.000404894
-8.73776e-06
0.000412457
-7.56236e-06
0.000418987
-6.53033e-06
0.000424611
-5.6241e-06
0.000429435
-4.82431e-06
0.000433559
-4.12374e-06
-3.48857e-06
0.000437048
0.000404759
-1.73403e-05
0.000412198
-1.50017e-05
0.000418621
-1.2953e-05
0.000424151
-1.11535e-05
0.000428891
-9.56433e-06
0.00043294
-8.17325e-06
-6.90998e-06
0.000436361
0.000404485
-2.56685e-05
0.000411681
-2.2198e-05
0.000417888
-1.91601e-05
0.000423227
-1.64919e-05
0.000427797
-1.41351e-05
0.000431697
-1.20729e-05
-1.01981e-05
0.000434985
0.000404074
-3.35859e-05
0.000410906
-2.90301e-05
0.00041679
-2.50441e-05
0.000421842
-2.15441e-05
0.000426159
-1.84521e-05
0.000429834
-1.57481e-05
-1.32868e-05
0.000432923
0.000403527
-4.09564e-05
0.000409874
-3.53772e-05
0.000415328
-3.04981e-05
0.000419999
-2.62152e-05
0.000423979
-2.24313e-05
0.000427355
-1.91246e-05
-1.61103e-05
0.000430179
0.000402845
-4.76451e-05
0.000408588
-4.11195e-05
0.000413505
-3.5416e-05
0.000417702
-3.04113e-05
0.00042126
-2.59894e-05
0.000424264
-2.21286e-05
-1.86031e-05
0.000426757
0.000402029
-5.3518e-05
0.000407048
-4.61381e-05
0.000411324
-3.96925e-05
0.000414952
-3.40389e-05
0.000418006
-2.90437e-05
0.000420565
-2.46871e-05
-2.07005e-05
0.000422662
0.000401081
-5.84424e-05
0.000405258
-5.03153e-05
0.000408789
-4.32231e-05
0.000411756
-3.70057e-05
0.000414224
-3.15123e-05
0.000416265
-2.67277e-05
-2.23381e-05
0.000417902
0.000400001
-6.2287e-05
0.00040322
-5.35346e-05
0.000405902
-4.59049e-05
0.000408117
-3.92203e-05
0.000409919
-3.33143e-05
0.00041137
-2.81788e-05
-2.34526e-05
0.000412484
0.000398792
-6.49222e-05
0.000400938
-5.56813e-05
0.00040267
-4.76361e-05
0.000404042
-4.05925e-05
0.000405097
-3.43698e-05
0.000405888
-2.89698e-05
-2.39812e-05
0.000406417
0.000397455
-6.62203e-05
0.000398416
-5.6642e-05
0.000399096
-4.83164e-05
0.000399537
-4.10335e-05
0.000399767
-3.46003e-05
0.000399829
-2.9031e-05
-2.38623e-05
0.00039971
0.000395992
-6.60558e-05
0.000395656
-5.63057e-05
0.000395187
-4.78474e-05
0.000394609
-4.04559e-05
0.000393937
-3.39285e-05
0.0003932
-2.8294e-05
-2.30352e-05
0.000392373
0.000394406
-6.43052e-05
0.000392663
-5.45629e-05
0.000390948
-4.61323e-05
0.000389266
-3.87739e-05
0.000387616
-3.22786e-05
0.000386014
-2.66913e-05
-2.14409e-05
0.000384419
0.000392699
-6.08478e-05
0.000389443
-5.13068e-05
0.000386387
-4.30764e-05
0.000383517
-3.59034e-05
0.000380815
-2.95766e-05
0.00037828
-2.41567e-05
-1.90214e-05
0.00037586
0.000390874
-5.55653e-05
0.000386
-4.64327e-05
0.000381511
-3.8587e-05
0.000377369
-3.17622e-05
0.000373543
-2.57498e-05
0.000370011
-2.06249e-05
-1.57209e-05
0.00036671
0.000388934
-4.83424e-05
0.000382339
-3.98385e-05
0.000376326
-3.25737e-05
0.000370834
-2.62702e-05
0.000365812
-2.07277e-05
0.000361219
-1.60321e-05
-1.14858e-05
0.000356984
0.000386881
-3.90666e-05
0.000378467
-3.14251e-05
0.000370842
-2.49484e-05
0.000363921
-1.93493e-05
0.000357635
-1.44411e-05
0.000351918
-1.03155e-05
-6.26529e-06
0.000346697
0.000384719
-2.76288e-05
0.00037439
-2.10961e-05
0.000365067
-1.5626e-05
0.000356642
-1.09242e-05
0.000349024
-6.82326e-06
0.000342123
-3.4137e-06
-1.12851e-08
0.000335869
0.000382451
-1.39228e-05
0.000370112
-8.75756e-06
0.000359009
-4.52297e-06
0.000349007
-9.2221e-07
0.000339994
2.18922e-06
0.00033185
4.73099e-06
7.31981e-06
0.000324519
0.000380079
2.15441e-06
0.000365636
5.68626e-06
0.000352661
8.4511e-06
0.000340998
1.07415e-05
0.000330512
1.26748e-05
0.000321058
1.4185e-05
0.000312653
1.57246e-05
0.000396252
4.07955e-05
0.000359237
3.70152e-05
0.000325657
3.35802e-05
0.000295194
3.04625e-05
0.00026756
2.76341e-05
0.000242492
2.50687e-05
0.00021975
2.2742e-05
0.000199117
2.06321e-05
0.000180398
1.87192e-05
0.000163414
1.69847e-05
0.000148001
1.5413e-05
0.000134012
1.39888e-05
0.000121314
1.26982e-05
0.000109785
1.1529e-05
9.93144e-05
1.04702e-05
8.98027e-05
9.51163e-06
8.11587e-05
8.64401e-06
7.32997e-05
7.85906e-06
6.61504e-05
7.14921e-06
5.96428e-05
6.50762e-06
5.37147e-05
5.92809e-06
4.83097e-05
5.405e-06
4.33765e-05
4.93325e-06
3.88683e-05
4.50821e-06
3.47426e-05
4.12569e-06
3.09607e-05
3.78185e-06
2.74875e-05
3.47323e-06
2.42909e-05
3.19662e-06
2.13418e-05
2.94909e-06
1.86138e-05
2.72795e-06
1.60832e-05
2.53068e-06
1.37283e-05
2.35489e-06
1.15299e-05
2.19833e-06
9.4712e-06
2.05874e-06
7.5375e-06
1.9337e-06
5.71698e-06
1.82052e-06
4.00214e-06
1.71484e-06
2.39439e-06
1.60776e-06
9.49462e-07
1.44493e-06
9.49462e-07
0.000395631
8.1526e-05
0.000358674
7.39726e-05
0.000325146
6.7108e-05
0.000294731
6.08774e-05
0.00026714
5.52251e-05
0.000242111
5.00982e-05
0.000219404
4.54484e-05
0.000198804
4.1232e-05
0.000180114
3.74091e-05
0.000163156
3.39432e-05
0.000147767
3.08022e-05
0.0001338
2.79557e-05
0.000121121
2.53766e-05
0.00010961
2.30402e-05
9.91561e-05
2.09243e-05
8.96592e-05
1.90085e-05
8.10286e-05
1.72746e-05
7.31818e-05
1.57059e-05
6.60438e-05
1.42872e-05
5.95464e-05
1.3005e-05
5.36277e-05
1.18468e-05
4.82314e-05
1.08013e-05
4.33063e-05
9.85844e-06
3.88055e-05
9.00892e-06
3.46869e-05
8.24435e-06
3.09116e-05
7.55709e-06
2.74447e-05
6.94017e-06
2.42541e-05
6.38721e-06
2.13108e-05
5.89236e-06
1.85886e-05
5.45023e-06
1.60635e-05
5.05577e-06
1.37141e-05
4.70426e-06
1.15213e-05
4.39117e-06
9.46791e-06
4.11209e-06
7.5392e-06
3.86242e-06
5.72266e-06
3.63706e-06
4.00778e-06
3.42973e-06
2.39075e-06
3.22479e-06
9.27114e-07
2.90856e-06
1.87658e-06
0.000394382
0.000122129
0.00035754
0.000110814
0.000324117
0.000100531
0.000293797
9.11976e-05
0.000266292
8.27302e-05
0.00024134
7.50499e-05
0.000218704
6.80842e-05
0.000198169
6.17678e-05
0.000179537
5.60409e-05
0.000162631
5.08491e-05
0.00014729
4.61436e-05
0.000133366
4.18794e-05
0.000120727
3.80157e-05
0.000109251
3.45156e-05
9.88298e-05
3.13458e-05
8.93623e-05
2.84759e-05
8.07586e-05
2.58784e-05
7.29362e-05
2.35283e-05
6.58204e-05
2.1403e-05
5.93433e-05
1.9482e-05
5.34433e-05
1.77468e-05
4.8064e-05
1.61805e-05
4.31545e-05
1.47679e-05
3.86683e-05
1.34951e-05
3.45631e-05
1.23496e-05
3.08004e-05
1.13198e-05
2.73452e-05
1.03954e-05
2.41656e-05
9.56673e-06
2.12329e-05
8.8251e-06
1.85208e-05
8.16239e-06
1.60055e-05
7.57106e-06
1.36657e-05
7.04404e-06
1.14822e-05
6.57461e-06
9.4381e-06
6.15623e-06
7.51822e-06
5.7823e-06
5.70945e-06
5.44583e-06
4.00036e-06
5.13882e-06
2.3861e-06
4.83904e-06
9.23763e-07
4.3709e-06
2.80034e-06
0.00039251
0.000162542
0.000355841
0.000147483
0.000322574
0.000133798
0.000292396
0.000121376
0.000265019
0.000110107
0.000240184
9.98851e-05
0.000217653
9.06145e-05
0.000197213
8.22078e-05
0.000178668
7.45858e-05
0.000161841
6.76761e-05
0.000146571
6.14135e-05
0.000132713
5.57382e-05
0.000120132
5.05959e-05
0.00010871
4.59376e-05
9.83373e-05
4.17189e-05
8.89141e-05
3.78992e-05
8.03504e-05
3.4442e-05
7.25646e-05
3.13141e-05
6.54821e-05
2.84854e-05
5.90355e-05
2.59287e-05
5.31632e-05
2.36191e-05
4.78094e-05
2.15343e-05
4.29233e-05
1.96541e-05
3.84586e-05
1.79598e-05
3.43732e-05
1.64349e-05
3.0629e-05
1.50641e-05
2.7191e-05
1.38334e-05
2.40276e-05
1.27301e-05
2.11101e-05
1.17426e-05
1.84124e-05
1.08601e-05
1.5911e-05
1.00725e-05
1.35846e-05
9.37048e-06
1.1414e-05
8.74513e-06
9.3824e-06
8.18786e-06
7.4745e-06
7.6902e-06
5.6769e-06
7.24343e-06
3.9779e-06
6.83782e-06
2.37282e-06
6.44412e-06
9.1823e-07
5.82548e-06
3.71857e-06
0.000390018
0.000202702
0.000353579
0.000183923
0.00032052
0.000166857
0.000290529
0.000151366
0.000263323
0.000137313
0.000238643
0.000124566
0.000216253
0.000113004
0.00019594
0.000102521
0.000177511
9.30153e-05
0.000160789
8.43983e-05
0.000145614
7.65884e-05
0.000131841
6.95107e-05
0.000119339
6.30977e-05
0.000107989
5.72885e-05
9.76802e-05
5.20273e-05
8.83157e-05
4.72637e-05
7.98055e-05
4.29522e-05
7.20682e-05
3.90514e-05
6.50301e-05
3.55236e-05
5.86239e-05
3.23349e-05
5.27886e-05
2.94544e-05
4.74686e-05
2.68543e-05
4.26135e-05
2.45091e-05
3.81774e-05
2.2396e-05
3.41184e-05
2.04939e-05
3.03986e-05
1.87839e-05
2.69834e-05
1.72486e-05
2.38412e-05
1.58722e-05
2.09437e-05
1.46401e-05
1.8265e-05
1.35388e-05
1.57815e-05
1.25559e-05
1.34723e-05
1.16797e-05
1.13183e-05
1.08991e-05
9.30253e-06
1.02036e-05
7.40988e-06
9.58285e-06
5.62681e-06
9.0265e-06
3.94148e-06
8.52315e-06
2.34955e-06
8.03606e-06
9.07745e-07
7.26728e-06
4.62631e-06
0.000386911
0.000242548
0.000350757
0.000220077
0.000317957
0.000199657
0.000288202
0.000181122
0.000261209
0.000164306
0.000236721
0.000149053
0.000214507
0.000135219
0.000194353
0.000122675
0.000176067
0.000111301
0.000159475
0.00010099
0.000144419
9.16447e-05
0.000130754
8.31756e-05
0.00011835
7.5502e-05
0.000107088
6.85506e-05
9.68598e-05
6.22551e-05
8.75685e-05
5.6555e-05
7.91249e-05
5.13958e-05
7.14483e-05
4.67279e-05
6.44654e-05
4.25065e-05
5.81097e-05
3.86907e-05
5.23204e-05
3.52437e-05
4.70426e-05
3.21321e-05
4.22262e-05
2.93255e-05
3.78256e-05
2.67965e-05
3.37995e-05
2.452e-05
3.01101e-05
2.24733e-05
2.67231e-05
2.06356e-05
2.36073e-05
1.89879e-05
2.07346e-05
1.75128e-05
1.80792e-05
1.61943e-05
1.56178e-05
1.50173e-05
1.33297e-05
1.39679e-05
1.11959e-05
1.30329e-05
9.1995e-06
1.22e-05
7.32544e-06
1.14569e-05
5.5602e-06
1.07917e-05
3.89188e-06
1.01915e-05
2.31664e-06
9.61131e-06
8.92264e-07
8.69166e-06
5.51858e-06
0.000383194
0.000282016
0.000347382
0.000255889
0.000314892
0.000232147
0.000285417
0.000210596
0.000258679
0.000191044
0.000234422
0.00017331
0.000212416
0.000157225
0.000192452
0.000142639
0.000174339
0.000129414
0.000157903
0.000117425
0.000142989
0.000106559
0.000129452
9.67119e-05
0.000117165
8.77894e-05
0.000106009
7.97067e-05
9.58776e-05
7.23865e-05
8.66739e-05
6.57587e-05
7.831e-05
5.97597e-05
7.0706e-05
5.4332e-05
6.37892e-05
4.94232e-05
5.74937e-05
4.49862e-05
5.17596e-05
4.09779e-05
4.65322e-05
3.73595e-05
4.17621e-05
3.40957e-05
3.7404e-05
3.11545e-05
3.34171e-05
2.8507e-05
2.9764e-05
2.61264e-05
2.64107e-05
2.39889e-05
2.33265e-05
2.20722e-05
2.04832e-05
2.03561e-05
1.78556e-05
1.88219e-05
1.54205e-05
1.74523e-05
1.31574e-05
1.6231e-05
1.10475e-05
1.51429e-05
9.07398e-06
1.41735e-05
7.22188e-06
1.3309e-05
5.47776e-06
1.25359e-05
3.82976e-06
1.18395e-05
2.27465e-06
1.11664e-05
8.71908e-07
1.00944e-05
6.39048e-06
0.000378872
0.000321046
0.000343457
0.000291304
0.000311327
0.000264277
0.000282179
0.000239744
0.000255737
0.000217487
0.000231748
0.000197298
0.000209986
0.000178987
0.000190242
0.000162382
0.000172329
0.000147327
0.000156075
0.000133679
0.000141326
0.000121309
0.000127939
0.000110099
0.000115787
9.9941e-05
0.000104754
9.07394e-05
9.47351e-05
8.24059e-05
8.56333e-05
7.48605e-05
7.73621e-05
6.8031e-05
6.98424e-05
6.18517e-05
6.30025e-05
5.62631e-05
5.67771e-05
5.12115e-05
5.1107e-05
4.6648e-05
4.59383e-05
4.25282e-05
4.12219e-05
3.88121e-05
3.69133e-05
3.54631e-05
3.2972e-05
3.24483e-05
2.9361e-05
2.97374e-05
2.60469e-05
2.7303e-05
2.29991e-05
2.51199e-05
2.01901e-05
2.31652e-05
1.75946e-05
2.14174e-05
1.51901e-05
1.98568e-05
1.29558e-05
1.84652e-05
1.08735e-05
1.72252e-05
8.92642e-06
1.61206e-05
7.09968e-06
1.51358e-05
5.37999e-06
1.42555e-05
3.75561e-06
1.34638e-05
2.22399e-06
1.2698e-05
8.46859e-07
1.14715e-05
7.23734e-06
0.000373953
0.000359578
0.00033899
0.000326267
0.00030727
0.000295997
0.000278493
0.000268521
0.000252387
0.000243593
0.000228705
0.000220981
0.000207219
0.000200472
0.000187727
0.000181875
0.000170041
0.000165013
0.000153994
0.000149726
0.000139432
0.000135871
0.000126216
0.000123315
0.000114219
0.000111938
0.000103326
0.000101632
9.34343e-05
9.22977e-05
8.44485e-05
8.38464e-05
7.62827e-05
7.61967e-05
6.88591e-05
6.92753e-05
6.21066e-05
6.30156e-05
5.59611e-05
5.73571e-05
5.03639e-05
5.22452e-05
4.52618e-05
4.76302e-05
4.06066e-05
4.34673e-05
3.63543e-05
3.97155e-05
3.24648e-05
3.63378e-05
2.89017e-05
3.33004e-05
2.56321e-05
3.05726e-05
2.26259e-05
2.81262e-05
1.98557e-05
2.59354e-05
1.72968e-05
2.39763e-05
1.49267e-05
2.22269e-05
1.27253e-05
2.06666e-05
1.06743e-05
1.92763e-05
8.75712e-06
1.80377e-05
6.95916e-06
1.69337e-05
5.26722e-06
1.59475e-05
3.66972e-06
1.50613e-05
2.16494e-06
1.42028e-05
8.17351e-07
1.28191e-05
8.0547e-06
0.000368443
0.000397552
0.000333987
0.000360724
0.000302726
0.000327258
0.000274365
0.000296881
0.000248637
0.000269321
0.000225296
0.000244322
0.00020412
0.000221648
0.000184909
0.000201086
0.000167479
0.000182443
0.000151663
0.000165542
0.000137311
0.000150224
0.000124285
0.000136341
0.000112461
0.000123762
0.000101726
0.000112367
9.19773e-05
0.000102047
8.31213e-05
9.27024e-05
7.50736e-05
8.42444e-05
6.77574e-05
7.65915e-05
6.1103e-05
6.967e-05
5.50467e-05
6.34133e-05
4.95312e-05
5.77607e-05
4.45038e-05
5.26575e-05
3.99171e-05
4.8054e-05
3.57277e-05
4.39049e-05
3.18962e-05
4.01693e-05
2.83868e-05
3.68098e-05
2.5167e-05
3.37924e-05
2.22072e-05
3.10861e-05
1.94804e-05
2.86621e-05
1.69623e-05
2.64943e-05
1.46309e-05
2.45583e-05
1.24661e-05
2.28314e-05
1.045e-05
2.12924e-05
8.56634e-06
1.99214e-05
6.80054e-06
1.86995e-05
5.13965e-06
1.76084e-05
3.57228e-06
1.66287e-05
2.09769e-06
1.56774e-05
7.83563e-07
1.41332e-05
8.83826e-06
0.000362353
0.000434908
0.000328456
0.000394621
0.000297702
0.000358012
0.000269801
0.000324782
0.00024449
0.000294633
0.000221527
0.000267285
0.000200694
0.00024248
0.000181794
0.000219986
0.000164646
0.000199591
0.000149086
0.000181102
0.000134966
0.000164344
0.000122151
0.000149156
0.000110519
0.000135395
9.99572e-05
0.000122928
9.03662e-05
0.000111638
8.16537e-05
0.000101415
7.37366e-05
9.21615e-05
6.65393e-05
8.37888e-05
5.99931e-05
7.62162e-05
5.40356e-05
6.93707e-05
4.86103e-05
6.31861e-05
4.36655e-05
5.76023e-05
3.91544e-05
5.2565e-05
3.50346e-05
4.80248e-05
3.12672e-05
4.39367e-05
2.78171e-05
4.02599e-05
2.46522e-05
3.69573e-05
2.17436e-05
3.39947e-05
1.90648e-05
3.1341e-05
1.65918e-05
2.89673e-05
1.43029e-05
2.68471e-05
1.21786e-05
2.49557e-05
1.0201e-05
2.327e-05
8.35427e-06
2.17682e-05
6.62398e-06
2.04298e-05
4.9974e-06
1.9235e-05
3.46338e-06
1.81627e-05
2.02234e-06
1.71184e-05
7.45604e-07
1.541e-05
9.58386e-06
0.000355691
0.00047159
0.000322406
0.000427907
0.000292207
0.000388211
0.000264809
0.000352179
0.000239953
0.000319489
0.000217404
0.000289834
0.000196946
0.000262937
0.000178386
0.000238546
0.000161547
0.000216431
0.000146267
0.000196382
0.000132401
0.000178209
0.000119816
0.00016174
0.000108393
0.000146818
9.80219e-05
0.0001333
8.86035e-05
0.000121056
8.0048e-05
0.00010997
7.22737e-05
9.99358e-05
6.52064e-05
9.08561e-05
5.87786e-05
8.2644e-05
5.29292e-05
7.52202e-05
4.76025e-05
6.85128e-05
4.2748e-05
6.24569e-05
3.83197e-05
5.69933e-05
3.42759e-05
5.20686e-05
3.05785e-05
4.7634e-05
2.71932e-05
4.36453e-05
2.40884e-05
4.0062e-05
2.12358e-05
3.68474e-05
1.86093e-05
3.39674e-05
1.61855e-05
3.13911e-05
1.39432e-05
2.90895e-05
1.1863e-05
2.70359e-05
9.92749e-06
2.52054e-05
8.12107e-06
2.35746e-05
6.42959e-06
2.21213e-05
4.84051e-06
2.0824e-05
3.34304e-06
1.96602e-05
1.93893e-06
1.85226e-05
7.03519e-07
1.66454e-05
1.02874e-05
0.000348469
0.000507541
0.000315846
0.00046053
0.000286248
0.000417809
0.000259396
0.000379032
0.000235034
0.00034385
0.000212933
0.000311935
0.000192882
0.000282988
0.000174691
0.000256738
0.000158186
0.000232936
0.00014321
0.000211358
0.000129619
0.0001918
0.000117285
0.000174075
0.000106088
0.000158014
9.59231e-05
0.000143465
8.6692e-05
0.000130287
7.83068e-05
0.000118356
7.06873e-05
0.000107555
6.37609e-05
9.77826e-05
5.74615e-05
8.89434e-05
5.17292e-05
8.09525e-05
4.65094e-05
7.37326e-05
4.17527e-05
6.72136e-05
3.74141e-05
6.13319e-05
3.34527e-05
5.603e-05
2.98313e-05
5.12555e-05
2.6516e-05
4.69605e-05
2.34764e-05
4.31017e-05
2.06843e-05
3.96394e-05
1.81145e-05
3.65372e-05
1.5744e-05
3.37615e-05
1.3552e-05
3.12815e-05
1.15196e-05
2.90684e-05
9.62964e-06
2.70954e-05
7.86687e-06
2.53374e-05
6.21743e-06
2.37707e-05
4.66899e-06
2.23725e-05
3.21119e-06
2.1118e-05
1.84745e-06
1.98863e-05
6.57314e-07
1.78355e-05
1.09447e-05
0.000340697
0.000542705
0.000308787
0.000492439
0.000279837
0.000446759
0.000253571
0.000405298
0.000229741
0.00036768
0.000208122
0.000333554
0.000188509
0.000302602
0.000170714
0.000274532
0.000154569
0.000249081
0.000139919
0.000226008
0.000126625
0.000205094
0.00011456
0.00018614
0.000103608
0.000168966
9.36643e-05
0.000153408
8.46347e-05
0.000139317
7.64326e-05
0.000126558
6.89798e-05
0.000115008
6.2205e-05
0.000104557
5.60438e-05
9.51046e-05
5.04374e-05
8.65588e-05
4.53327e-05
7.88373e-05
4.06813e-05
7.1865e-05
3.64391e-05
6.55741e-05
3.25662e-05
5.99029e-05
2.90264e-05
5.47953e-05
2.57866e-05
5.02003e-05
2.28169e-05
4.60715e-05
2.00899e-05
4.23664e-05
1.75811e-05
3.90461e-05
1.52678e-05
3.60748e-05
1.31298e-05
3.34195e-05
1.11487e-05
3.10495e-05
9.30767e-06
2.89364e-05
7.59183e-06
2.70532e-05
5.98757e-06
2.5375e-05
4.48276e-06
2.38773e-05
3.06772e-06
2.2533e-05
1.74769e-06
2.12063e-05
6.06924e-07
1.89763e-05
1.15516e-05
0.000332387
0.000577028
0.000301241
0.000523586
0.000272981
0.000475018
0.000247342
0.000430937
0.000224081
0.000390941
0.000202977
0.000354657
0.000183832
0.000321747
0.000166461
0.000291902
0.000150701
0.000264841
0.000136401
0.000240308
0.000123424
0.000218071
0.000111646
0.000197918
0.000100955
0.000179657
9.12488e-05
0.000163114
8.24347e-05
0.000148131
7.44285e-05
0.000134564
6.71537e-05
0.000122283
6.0541e-05
0.00011117
5.45275e-05
0.000101118
4.90558e-05
9.20305e-05
4.40741e-05
8.3819e-05
3.95351e-05
7.6404e-05
3.5396e-05
6.97132e-05
3.16178e-05
6.36811e-05
2.81652e-05
5.82479e-05
2.50059e-05
5.33595e-05
2.21109e-05
4.89665e-05
1.94534e-05
4.50238e-05
1.70096e-05
4.149e-05
1.47574e-05
3.8327e-05
1.2677e-05
3.54998e-05
1.07506e-05
3.29759e-05
8.96181e-06
3.07251e-05
7.29604e-06
2.8719e-05
5.74004e-06
2.6931e-05
4.28189e-06
2.53354e-05
2.91265e-06
2.39023e-05
1.63934e-06
2.24796e-05
5.52169e-07
2.00635e-05
1.21038e-05
0.000323554
0.000610458
0.000293217
0.000553922
0.000265693
0.000502542
0.00024072
0.000455911
0.000218063
0.000413599
0.000197508
0.000375213
0.000178859
0.000340396
0.00016194
0.000308822
0.000146589
0.000280192
0.00013266
0.000254237
0.000120019
0.000230712
0.000108548
0.00020939
9.81343e-05
0.00019007
8.86803e-05
0.000172568
8.00953e-05
0.000156716
7.22973e-05
0.000142362
6.52119e-05
0.000129368
5.87716e-05
0.00011761
5.2915e-05
0.000106975
4.75865e-05
9.7359e-05
4.27354e-05
8.867e-05
3.83159e-05
8.08235e-05
3.42864e-05
7.37428e-05
3.06088e-05
6.73587e-05
2.72487e-05
6.16079e-05
2.4175e-05
5.64332e-05
2.13592e-05
5.17823e-05
1.87756e-05
4.76074e-05
1.64007e-05
4.38649e-05
1.42133e-05
4.05144e-05
1.21941e-05
3.7519e-05
1.03257e-05
3.48443e-05
8.59229e-06
3.24586e-05
6.97963e-06
3.03316e-05
5.47485e-06
2.84358e-05
4.06632e-06
2.6744e-05
2.74581e-06
2.52228e-05
1.52225e-06
2.37032e-05
4.9295e-07
2.10928e-05
1.25967e-05
0.00031421
0.000642946
0.000284731
0.000583401
0.000257984
0.000529289
0.000233715
0.00048018
0.000211697
0.000435617
0.000191721
0.000395188
0.000173599
0.000358518
0.000157156
0.000325264
0.000142238
0.000295111
0.000128702
0.000267774
0.000116418
0.000242995
0.00010527
0.000220539
9.51502e-05
0.00020019
8.59629e-05
0.000181755
7.76203e-05
0.000165059
7.00425e-05
0.00014994
6.31574e-05
0.000136253
5.68993e-05
0.000123868
5.12088e-05
0.000112665
4.60316e-05
0.000102536
4.13188e-05
9.33829e-05
3.70257e-05
8.51166e-05
3.31118e-05
7.76566e-05
2.95405e-05
7.093e-05
2.62784e-05
6.48701e-05
2.3295e-05
5.94166e-05
2.0563e-05
5.45144e-05
1.80573e-05
5.01132e-05
1.57552e-05
4.6167e-05
1.36361e-05
4.26334e-05
1.16815e-05
3.94737e-05
9.87431e-06
3.66515e-05
8.19932e-06
3.41335e-05
6.64271e-06
3.18883e-05
5.19197e-06
2.98865e-05
3.83588e-06
2.81001e-05
2.5669e-06
2.64918e-05
1.39623e-06
2.48739e-05
4.29181e-07
2.20598e-05
1.30259e-05
0.000304369
0.000674445
0.000275794
0.000611975
0.000249865
0.000555219
0.000226337
0.000503708
0.000204992
0.000456962
0.000185627
0.000414553
0.000168058
0.000376087
0.000152118
0.000341203
0.000137656
0.000309573
0.000124533
0.000280897
0.000112625
0.000254904
0.000101817
0.000231346
9.20071e-05
0.00021
8.31008e-05
0.000190662
7.50133e-05
0.000173146
6.76675e-05
0.000157285
6.09933e-05
0.000142928
5.49272e-05
0.000129935
4.94114e-05
0.000118181
4.43936e-05
0.000107554
3.98262e-05
9.79502e-05
3.56661e-05
8.92766e-05
3.18742e-05
8.14486e-05
2.84147e-05
7.43894e-05
2.52555e-05
6.80293e-05
2.23672e-05
6.23049e-05
1.97232e-05
5.71584e-05
1.72993e-05
5.2537e-05
1.50738e-05
4.83926e-05
1.30265e-05
4.46807e-05
1.11397e-05
4.13605e-05
9.3968e-06
3.83944e-05
7.78315e-06
3.57472e-05
6.28538e-06
3.3386e-05
4.89139e-06
3.12805e-05
3.59038e-06
2.94011e-05
2.37561e-06
2.77065e-05
1.26101e-06
2.59885e-05
3.60719e-07
2.29601e-05
1.33866e-05
0.000294048
0.000704916
0.000266423
0.000639601
0.00024135
0.000580292
0.000218599
0.000526458
0.000197959
0.000477602
0.000179234
0.000433278
0.000162246
0.000393075
0.000146833
0.000356616
0.000132849
0.000323557
0.000120161
0.000293585
0.000108646
0.000266418
9.81956e-05
0.000241797
8.87099e-05
0.000219486
8.00982e-05
0.000199273
7.22784e-05
0.000180966
6.51759e-05
0.000164388
5.87229e-05
0.000149381
5.2858e-05
0.000135799
4.75256e-05
0.000123514
4.26749e-05
0.000112405
3.826e-05
0.000102365
3.42394e-05
9.32973e-05
3.05751e-05
8.51129e-05
2.72329e-05
7.77316e-05
2.41815e-05
7.10807e-05
2.13928e-05
6.50937e-05
1.8841e-05
5.97102e-05
1.65028e-05
5.48751e-05
1.43573e-05
5.05381e-05
1.23852e-05
4.66528e-05
1.05692e-05
4.31766e-05
8.89354e-06
4.007e-05
7.344e-06
3.72967e-05
5.90772e-06
3.48223e-05
4.57304e-06
3.26152e-05
3.32961e-06
3.06445e-05
2.17162e-06
2.88645e-05
1.11622e-06
2.70439e-05
2.87363e-07
2.3789e-05
1.3674e-05
0.000283258
0.000734312
0.000256633
0.000666225
0.000232451
0.000604474
0.000210512
0.000548398
0.000190609
0.000497504
0.000172553
0.000451334
0.000156172
0.000409457
0.00014131
0.000371478
0.000127826
0.000337041
0.00011559
0.000305821
0.000104487
0.000277522
9.44103e-05
0.000251873
8.52637e-05
0.000228632
7.696e-05
0.000207577
6.94199e-05
0.000188506
6.25715e-05
0.000171236
5.63497e-05
0.000155602
5.06951e-05
0.000141454
4.55542e-05
0.000128655
4.08781e-05
0.000117081
3.66226e-05
0.000106621
3.27476e-05
9.71723e-05
2.92166e-05
8.86438e-05
2.59968e-05
8.09515e-05
2.3058e-05
7.40195e-05
2.03731e-05
6.77785e-05
1.79175e-05
6.21658e-05
1.56687e-05
5.71239e-05
1.36066e-05
5.26002e-05
1.17128e-05
4.85466e-05
9.9706e-06
4.49188e-05
8.36493e-06
4.16757e-05
6.88212e-06
3.87795e-05
5.50985e-06
3.61946e-05
4.23687e-06
3.38882e-05
3.05335e-06
3.1828e-05
1.95457e-06
2.99633e-05
9.61486e-07
2.80369e-05
2.08826e-07
2.45416e-05
1.38828e-05
0.000272036
0.000762583
-0.000300308
0.000246426
0.000691834
0.000223181
0.000627719
0.000202088
0.00056949
0.000182953
0.00051664
0.000165594
0.000468694
0.000149845
0.000425205
0.000135556
0.000385766
0.000122593
0.000350005
0.000110829
0.000317584
0.000100155
0.000288196
9.04672e-05
0.000261561
8.16738e-05
0.000237426
7.36908e-05
0.00021556
6.6442e-05
0.000195755
5.98584e-05
0.00017782
5.38773e-05
0.000161584
4.84418e-05
0.000146889
4.35003e-05
0.000133596
3.90059e-05
0.000121575
3.49163e-05
0.00011071
3.11929e-05
0.000100896
2.78007e-05
9.20359e-05
2.47082e-05
8.40441e-05
2.18865e-05
7.68412e-05
1.93096e-05
7.03554e-05
1.69539e-05
6.45215e-05
1.47981e-05
5.92797e-05
1.28227e-05
5.45756e-05
1.10101e-05
5.03592e-05
9.34448e-06
4.65844e-05
7.81139e-06
4.32088e-05
6.39777e-06
4.01932e-05
5.09185e-06
3.75005e-05
3.8828e-06
3.50972e-05
2.76138e-06
3.29494e-05
1.72408e-06
3.10006e-05
7.96404e-07
2.89646e-05
1.24683e-07
2.52134e-05
1.40075e-05
0.000260365
0.000789671
-0.000287453
0.000235821
0.000716379
0.000213552
0.000649989
0.000193341
0.000589701
0.000175003
0.000534978
0.000158367
0.00048533
0.000143274
0.000440298
0.000129582
0.000399459
0.000117158
0.000362429
0.000105886
0.000328856
9.56561e-05
0.000298426
8.63724e-05
0.000270845
7.79457e-05
0.000245852
7.02957e-05
0.00022321
6.33495e-05
0.000202701
5.70408e-05
0.000184129
5.13096e-05
0.000167315
4.61014e-05
0.000152098
4.13669e-05
0.000138331
3.70612e-05
0.000125881
3.31437e-05
0.000114628
2.95776e-05
0.000104462
2.63295e-05
9.52841e-05
2.3369e-05
8.70046e-05
2.06687e-05
7.95414e-05
1.82038e-05
7.28203e-05
1.59517e-05
6.67736e-05
1.3892e-05
6.13394e-05
1.20063e-05
5.64613e-05
1.02778e-05
5.20876e-05
8.69142e-06
4.81708e-05
7.23337e-06
4.46668e-05
5.89124e-06
4.15353e-05
4.65383e-06
3.87379e-05
3.51079e-06
3.62403e-05
2.45346e-06
3.40068e-05
1.47979e-06
3.19743e-05
6.20751e-07
2.98237e-05
3.40457e-08
2.58001e-05
1.40416e-05
0.000248289
0.000815545
-0.000274163
0.00022484
0.000739828
0.000203579
0.00067125
0.000184282
0.000608997
0.000166771
0.000552489
0.000150884
0.000501218
0.000136471
0.000454711
0.000123395
0.000412535
0.000111531
0.000374292
0.000100766
0.000339621
9.09976e-05
0.000308194
8.21322e-05
0.00027971
7.40852e-05
0.000253899
6.67801e-05
0.000230515
6.0147e-05
0.000209334
5.41229e-05
0.000190153
4.86504e-05
0.000172787
4.36776e-05
0.00015707
3.91574e-05
0.000142851
3.50469e-05
0.000129991
3.13076e-05
0.000118367
2.79042e-05
0.000107865
2.4805e-05
9.83833e-05
2.19811e-05
8.98285e-05
1.94064e-05
8.21162e-05
1.70571e-05
7.51696e-05
1.49121e-05
6.89187e-05
1.29517e-05
6.32997e-05
1.11586e-05
5.82544e-05
9.51684e-06
5.37294e-05
8.01208e-06
4.96755e-05
6.63133e-06
4.60476e-05
5.36281e-06
4.28038e-05
4.19591e-06
3.99048e-05
3.12078e-06
3.73154e-05
2.1294e-06
3.49981e-05
1.22142e-06
3.28823e-05
4.33846e-07
3.06112e-05
-6.30277e-08
2.62969e-05
1.39785e-05
0.000235818
0.000840164
-0.000260437
0.000213503
0.000762143
0.000193279
0.000691474
0.000174926
0.00062735
0.000158269
0.000569146
0.000143156
0.000516331
0.000129445
0.000468422
0.000117006
0.000424974
0.00010572
0.000385578
9.54793e-05
0.000349862
8.61866e-05
0.000317487
7.77531e-05
0.000288144
7.00983e-05
0.000261554
6.31491e-05
0.000237464
5.68395e-05
0.000215644
5.11092e-05
0.000195883
4.59039e-05
0.000177993
4.1174e-05
0.0001618
3.6875e-05
0.00014715
3.29661e-05
0.0001339
2.94107e-05
0.000121922
2.61752e-05
0.000111101
2.32296e-05
0.000101329
2.05466e-05
9.25116e-05
1.81013e-05
8.45615e-05
1.58713e-05
7.73995e-05
1.38364e-05
7.09535e-05
1.19784e-05
6.51578e-05
1.02805e-05
5.99523e-05
8.72796e-06
5.5282e-05
7.30711e-06
5.10964e-05
6.00576e-06
4.73489e-05
4.8128e-06
4.39968e-05
3.71824e-06
4.09994e-05
2.71272e-06
3.83209e-05
1.78896e-06
3.59219e-05
9.48806e-07
3.37224e-05
2.34656e-07
3.13254e-05
-1.63982e-07
2.66956e-05
1.38145e-05
0.000222973
0.000863486
-0.000246295
0.000201828
0.000783288
0.000182669
0.000710633
0.000165287
0.000644732
0.000149511
0.000584923
0.000135195
0.000530647
0.000122207
0.00048141
0.000110424
0.000436757
9.97331e-05
0.000396269
9.0033e-05
0.000359562
8.12305e-05
0.000326289
7.32419e-05
0.000296132
6.5991e-05
0.000268805
5.94086e-05
0.000244047
5.3432e-05
0.00022162
4.80044e-05
0.000201311
4.30742e-05
0.000182923
3.85946e-05
0.00016628
3.45233e-05
0.000151221
3.0822e-05
0.000137601
2.74557e-05
0.000125289
2.43932e-05
0.000114163
2.16057e-05
0.000104116
1.90675e-05
9.50497e-05
1.67553e-05
8.68737e-05
1.46479e-05
7.95069e-05
1.27263e-05
7.28751e-05
1.09733e-05
6.69108e-05
9.3732e-06
6.15523e-05
7.91209e-06
5.67431e-05
6.57724e-06
5.24312e-05
5.35719e-06
4.8569e-05
4.24154e-06
4.51124e-05
3.22096e-06
4.20199e-05
2.28662e-06
3.92553e-05
1.43195e-06
3.67766e-05
6.62275e-07
3.44921e-05
2.15174e-08
3.19661e-05
-2.65707e-07
2.69828e-05
1.35488e-05
0.000209775
0.000885473
-0.000231762
0.000189834
0.000803229
0.000171767
0.0007287
0.000155381
0.000661118
0.000140509
0.000599794
0.000127013
0.000544143
0.000114768
0.000493655
0.000103659
0.000447866
9.35807e-05
0.000406348
8.44356e-05
0.000368707
7.61369e-05
0.000334588
6.86056e-05
0.000303664
6.17697e-05
0.000275641
5.55642e-05
0.000250252
4.99299e-05
0.000227255
4.48132e-05
0.000206427
4.01657e-05
0.00018757
3.59432e-05
0.000170502
3.21059e-05
0.000155058
2.86177e-05
0.00014109
2.54458e-05
0.000128461
2.25607e-05
0.000117048
1.99355e-05
0.000106742
1.75461e-05
9.74392e-05
1.53704e-05
8.90494e-05
1.33887e-05
8.14886e-05
1.15832e-05
7.46807e-05
9.9377e-06
6.85563e-05
8.43772e-06
6.30523e-05
7.07017e-06
5.81106e-05
5.82319e-06
5.36782e-05
4.68616e-06
4.9706e-05
3.64939e-06
4.61492e-05
2.70422e-06
4.29651e-05
1.84247e-06
4.0117e-05
1.05821e-06
3.75608e-05
3.60708e-07
3.51896e-05
-2.05471e-07
3.25323e-05
-3.66186e-07
2.71435e-05
1.31827e-05
0.000196242
0.00090609
-0.000216859
0.000177537
0.000821934
0.00016059
0.000745646
0.000145224
0.000676484
0.000131279
0.000613739
0.000118624
0.000556798
0.000107141
0.000505138
9.67233e-05
0.000458284
8.72717e-05
0.000415799
7.86959e-05
0.000377283
7.09138e-05
0.00034237
6.38513e-05
0.000310726
5.7441e-05
0.000282051
5.16219e-05
0.000256071
4.63385e-05
0.000232538
4.15406e-05
0.000211225
3.71828e-05
0.000191928
3.32239e-05
0.000174461
2.96264e-05
0.000158656
2.63566e-05
0.000144359
2.33839e-05
0.000131433
2.06806e-05
0.000119752
1.82217e-05
0.000109201
1.59845e-05
9.96764e-05
1.39485e-05
9.10853e-05
1.20955e-05
8.33417e-05
1.04086e-05
7.63675e-05
8.87305e-06
7.00919e-05
7.47526e-06
6.44501e-05
6.20314e-06
5.93828e-05
5.04574e-06
5.48356e-05
3.99326e-06
5.07585e-05
3.03674e-06
4.71057e-05
2.16821e-06
4.38337e-05
1.38024e-06
4.0905e-05
6.67645e-07
3.82734e-05
4.15058e-08
3.58157e-05
-4.42817e-07
3.30166e-05
-4.65176e-07
2.71659e-05
1.27175e-05
0.000182394
0.000925306
-0.000201609
0.000164955
0.000839372
0.000149155
0.000761447
0.00013483
0.000690808
0.000121834
0.000626736
0.000110039
0.000568593
9.9336e-05
0.000515841
8.96258e-05
0.000467994
8.08161e-05
0.000424609
7.28227e-05
0.000385276
6.55691e-05
0.000349624
5.89863e-05
0.000317309
5.30115e-05
0.000288026
4.75877e-05
0.000261495
4.26633e-05
0.000237462
3.81916e-05
0.000215697
3.41303e-05