/*--------------------------------*- C++ -*----------------------------------*\
  =========                 |
  \\      /  F ield         | OpenFOAM: The Open Source CFD Toolbox
   \\    /   O peration     | Website:  https://openfoam.org
    \\  /    A nd           | Version:  9
     \\/     M anipulation  |
\*---------------------------------------------------------------------------*/
FoamFile
{
    format      ascii;
    class       volScalarField;
    location    "280";
    object      ReThetat;
}
// * * * * * * * * * * * * * * * * * * * * * * * * * * * * * * * * * * * * * //

dimensions      [0 0 0 0 0 0 0];

internalField   nonuniform List<scalar> 
26820
(
161.327
161.956
162.496
162.956
163.347
163.678
163.959
161.328
161.958
162.499
162.96
163.352
163.684
163.966
161.329
161.962
162.505
162.969
163.363
163.697
163.981
161.331
161.967
162.514
162.981
163.378
163.715
164.003
161.333
161.974
162.526
162.997
163.399
163.74
164.033
161.336
161.983
162.541
163.018
163.425
163.771
164.07
161.339
161.993
162.558
163.042
163.457
163.809
164.115
161.343
162.005
162.579
163.071
163.494
163.853
164.167
161.347
162.019
162.603
163.104
163.536
163.904
164.228
161.352
162.035
162.629
163.141
163.584
163.961
164.297
161.358
162.053
162.659
163.183
163.637
164.025
164.374
161.364
162.072
162.691
163.228
163.696
164.097
164.46
161.37
162.093
162.727
163.278
163.76
164.175
164.555
161.377
162.115
162.765
163.332
163.831
164.261
164.659
161.385
162.14
162.806
163.39
163.907
164.354
164.772
161.393
162.166
162.851
163.453
163.988
164.455
164.896
161.401
162.193
162.898
163.52
164.076
164.564
165.029
161.41
162.222
162.947
163.591
164.169
164.681
165.174
161.42
162.253
163
163.666
164.268
164.806
165.332
161.43
162.286
163.055
163.746
164.373
164.943
165.494
164.211
164.448
164.658
164.844
165.008
165.15
165.272
165.374
165.458
165.524
165.574
165.608
165.628
165.636
165.631
165.616
165.592
165.558
165.516
165.467
165.412
165.351
165.285
165.216
165.143
165.069
164.993
164.92
164.864
164.84
164.835
164.835
164.834
164.834
164.833
164.832
164.831
164.83
164.829
164.829
164.218
164.454
164.664
164.85
165.013
165.154
165.276
165.378
165.461
165.527
165.577
165.611
165.631
165.638
165.633
165.618
165.593
165.559
165.518
165.469
165.413
165.352
165.286
165.217
165.144
165.069
164.995
164.937
164.895
164.866
164.849
164.839
164.834
164.832
164.831
164.83
164.83
164.829
164.829
164.829
164.233
164.468
164.676
164.86
165.022
165.163
165.284
165.385
165.468
165.533
165.582
165.616
165.635
165.642
165.637
165.622
165.596
165.562
165.52
165.471
165.416
165.354
165.288
165.218
165.146
165.071
164.995
164.924
164.871
164.845
164.834
164.829
164.826
164.825
164.826
164.827
164.827
164.828
164.829
164.829
164.254
164.488
164.694
164.876
165.037
165.176
165.295
165.395
165.477
165.542
165.59
165.623
165.642
165.648
165.643
165.627
165.601
165.567
165.524
165.475
165.419
165.357
165.291
165.221
165.148
165.073
164.996
164.92
164.851
164.802
164.788
164.794
164.802
164.81
164.816
164.821
164.824
164.826
164.828
164.828
164.283
164.514
164.718
164.898
165.056
165.193
165.311
165.41
165.49
165.554
165.601
165.633
165.651
165.656
165.65
165.633
165.607
165.572
165.529
165.479
165.423
165.361
165.294
165.224
165.15
165.075
164.998
164.921
164.846
164.779
164.738
164.738
164.76
164.782
164.799
164.811
164.819
164.824
164.827
164.828
164.319
164.547
164.748
164.925
165.08
165.215
165.33
165.427
165.506
165.568
165.614
165.645
165.662
165.666
165.659
165.642
165.615
165.579
165.536
165.485
165.428
165.366
165.299
165.227
165.153
165.077
165
164.923
164.845
164.772
164.711
164.683
164.703
164.741
164.773
164.797
164.812
164.821
164.825
164.827
164.363
164.588
164.784
164.957
165.109
165.241
165.353
165.448
165.525
165.585
165.63
165.659
165.675
165.678
165.67
165.652
165.624
165.587
165.543
165.492
165.434
165.371
165.303
165.232
165.157
165.081
165.003
164.925
164.846
164.77
164.699
164.649
164.644
164.687
164.737
164.776
164.801
164.816
164.823
164.826
164.415
164.635
164.826
164.994
165.142
165.271
165.381
165.472
165.547
165.606
165.648
165.675
165.69
165.692
165.683
165.663
165.634
165.597
165.552
165.5
165.441
165.378
165.309
165.237
165.162
165.084
165.006
164.927
164.848
164.77
164.694
164.631
164.599
164.626
164.691
164.749
164.788
164.81
164.821
164.825
164.475
164.691
164.876
165.038
165.181
165.305
165.411
165.5
165.572
165.628
165.669
165.694
165.707
165.707
165.697
165.676
165.646
165.608
165.562
165.509
165.449
165.385
165.316
165.243
165.166
165.088
165.009
164.929
164.849
164.77
164.692
164.621
164.571
164.571
164.634
164.714
164.771
164.803
164.818
164.823
164.543
164.754
164.932
165.088
165.225
165.344
165.446
165.532
165.601
165.654
165.692
165.715
165.726
165.725
165.713
165.69
165.659
165.62
165.572
165.518
165.458
165.393
165.323
165.249
165.172
165.093
165.013
164.932
164.851
164.771
164.692
164.616
164.554
164.531
164.574
164.671
164.749
164.794
164.815
164.822
164.62
164.826
164.997
165.144
165.274
165.388
165.485
165.566
165.632
165.682
165.717
165.739
165.747
165.744
165.73
165.706
165.674
165.633
165.584
165.529
165.468
165.402
165.331
165.256
165.178
165.098
165.017
164.935
164.853
164.772
164.691
164.613
164.543
164.502
164.522
164.624
164.724
164.783
164.811
164.82
164.706
164.906
165.07
165.208
165.33
165.436
165.528
165.604
165.666
165.713
165.745
165.764
165.77
165.765
165.749
165.724
165.69
165.647
165.598
165.541
165.479
165.412
165.339
165.264
165.185
165.104
165.022
164.939
164.857
164.774
164.692
164.611
164.535
164.482
164.48
164.574
164.694
164.77
164.806
164.817
164.802
164.997
165.151
165.281
165.392
165.49
165.575
165.646
165.704
165.747
165.776
165.792
165.796
165.788
165.77
165.743
165.707
165.663
165.612
165.554
165.491
165.422
165.349
165.272
165.192
165.11
165.028
164.944
164.86
164.776
164.692
164.609
164.53
164.466
164.448
164.524
164.662
164.756
164.801
164.815
164.909
165.098
165.243
165.362
165.462
165.55
165.627
165.692
165.744
165.783
165.809
165.822
165.823
165.812
165.792
165.763
165.725
165.68
165.627
165.568
165.503
165.433
165.359
165.28
165.201
165.119
165.035
164.95
164.864
164.779
164.693
164.608
164.525
164.454
164.422
164.478
164.629
164.74
164.795
164.812
165.026
165.21
165.347
165.454
165.543
165.618
165.684
165.741
165.788
165.822
165.844
165.853
165.851
165.839
165.816
165.785
165.745
165.697
165.643
165.582
165.516
165.446
165.373
165.293
165.212
165.128
165.042
164.956
164.869
164.782
164.695
164.608
164.522
164.445
164.401
164.439
164.597
164.723
164.788
164.808
165.155
165.336
165.463
165.559
165.635
165.697
165.751
165.797
165.836
165.865
165.882
165.888
165.882
165.867
165.841
165.808
165.766
165.716
165.66
165.603
165.537
165.464
165.388
165.308
165.224
165.138
165.051
164.963
164.875
164.786
164.697
164.608
164.52
164.438
164.384
164.407
164.567
164.706
164.781
164.804
165.298
165.475
165.594
165.68
165.743
165.791
165.831
165.865
165.893
165.914
165.925
165.926
165.917
165.898
165.87
165.837
165.798
165.748
165.688
165.627
165.559
165.484
165.406
165.323
165.237
165.149
165.06
164.971
164.881
164.79
164.7
164.609
164.519
164.432
164.37
164.38
164.541
164.689
164.773
164.8
165.456
165.63
165.741
165.817
165.869
165.904
165.93
165.951
165.968
165.981
165.986
165.984
165.973
165.95
165.917
165.878
165.835
165.782
165.719
165.653
165.583
165.506
165.424
165.339
165.251
165.161
165.071
164.979
164.887
164.796
164.703
164.611
164.518
164.428
164.358
164.36
164.517
164.673
164.765
164.795
165.617
165.798
165.908
165.977
166.019
166.044
166.058
166.065
166.069
166.069
166.065
166.054
166.036
166.007
165.968
165.923
165.874
165.818
165.752
165.682
165.607
165.528
165.444
165.356
165.266
165.174
165.081
164.988
164.895
164.801
164.708
164.613
164.518
164.425
164.349
164.346
164.498
164.658
164.757
164.79
165.775
165.966
166.079
166.143
166.177
166.191
166.192
166.187
166.177
166.165
166.149
166.128
166.102
166.067
166.022
165.971
165.915
165.854
165.786
165.712
165.633
165.551
165.464
165.374
165.281
165.188
165.093
164.998
164.903
164.808
164.712
164.616
164.519
164.423
164.342
164.338
164.481
164.644
164.749
164.784
165.991
166.121
166.24
166.307
166.335
166.339
166.329
166.311
166.289
166.264
166.236
166.205
166.17
166.128
166.077
166.02
165.958
165.893
165.821
165.743
165.661
165.575
165.486
165.393
165.298
165.202
165.105
165.008
164.912
164.815
164.718
164.62
164.521
164.421
164.337
164.334
164.469
164.632
164.741
164.779
166.199
166.29
166.398
166.467
166.492
166.488
166.467
166.437
166.402
166.365
166.326
166.285
166.24
166.19
166.134
166.071
166.003
165.932
165.856
165.775
165.689
165.6
165.508
165.412
165.315
165.216
165.118
165.019
164.921
164.823
164.724
164.625
164.523
164.421
164.334
164.333
164.46
164.622
164.734
164.773
166.394
166.468
166.557
166.623
166.646
166.636
166.606
166.564
166.517
166.468
166.418
166.366
166.312
166.255
166.192
166.123
166.049
165.973
165.893
165.807
165.718
165.626
165.531
165.432
165.332
165.232
165.131
165.031
164.931
164.831
164.731
164.63
164.527
164.422
164.332
164.334
164.453
164.613
164.727
164.767
166.58
166.65
166.72
166.777
166.798
166.783
166.744
166.692
166.634
166.573
166.511
166.449
166.386
166.32
166.251
166.176
166.097
166.015
165.93
165.841
165.748
165.652
165.554
165.453
165.35
165.247
165.145
165.043
164.941
164.84
164.738
164.636
164.53
164.423
164.331
164.336
164.449
164.606
164.721
164.761
166.761
166.831
166.887
166.932
166.948
166.928
166.882
166.82
166.75
166.678
166.606
166.534
166.461
166.387
166.311
166.23
166.145
166.058
165.968
165.875
165.779
165.68
165.578
165.474
165.369
165.264
165.159
165.055
164.952
164.849
164.746
164.642
164.534
164.425
164.331
164.339
164.446
164.6
164.715
164.755
166.94
167.012
167.056
167.088
167.097
167.072
167.019
166.947
166.868
166.785
166.702
166.619
166.537
166.455
166.371
166.284
166.194
166.102
166.007
165.91
165.81
165.707
165.603
165.496
165.388
165.28
165.173
165.067
164.963
164.859
164.754
164.648
164.539
164.428
164.333
164.342
164.446
164.597
164.71
164.749
167.12
167.192
167.227
167.246
167.246
167.215
167.155
167.075
166.985
166.892
166.798
166.706
166.614
166.524
166.433
166.34
166.244
166.146
166.047
165.945
165.841
165.735
165.627
165.518
165.407
165.297
165.188
165.08
164.974
164.868
164.762
164.655
164.544
164.431
164.335
164.345
164.446
164.594
164.705
164.743
167.301
167.371
167.398
167.405
167.394
167.357
167.29
167.202
167.103
166.999
166.895
166.793
166.692
166.594
166.495
166.396
166.294
166.191
166.086
165.981
165.873
165.764
165.652
165.54
165.426
165.314
165.203
165.093
164.985
164.878
164.771
164.662
164.549
164.434
164.338
164.349
164.449
164.593
164.701
164.737
167.483
167.549
167.57
167.565
167.544
167.498
167.425
167.329
167.22
167.106
166.992
166.88
166.771
166.664
166.558
166.452
166.345
166.236
166.127
166.017
165.905
165.792
165.678
165.562
165.446
165.33
165.217
165.106
164.997
164.888
164.779
164.669
164.554
164.437
164.341
164.354
164.452
164.593
164.697
164.732
167.668
167.729
167.742
167.726
167.693
167.639
167.558
167.454
167.337
167.213
167.089
166.968
166.85
166.734
166.621
166.508
166.395
166.281
166.167
166.053
165.937
165.821
165.703
165.584
165.465
165.347
165.232
165.119
165.008
164.898
164.788
164.675
164.558
164.44
164.345
164.359
164.457
164.594
164.694
164.726
167.856
167.909
167.915
167.888
167.844
167.78
167.691
167.58
167.453
167.319
167.186
167.056
166.928
166.805
166.684
166.565
166.446
166.327
166.208
166.089
165.97
165.849
165.728
165.606
165.484
165.364
165.246
165.132
165.019
164.908
164.796
164.682
164.563
164.442
164.349
164.365
164.463
164.596
164.691
164.721
168.047
168.091
168.088
168.05
167.995
167.921
167.824
167.704
167.568
167.425
167.283
167.143
167.007
166.875
166.747
166.621
166.497
166.372
166.248
166.125
166.002
165.878
165.753
165.628
165.503
165.38
165.261
165.144
165.03
164.917
164.804
164.688
164.566
164.444
164.353
164.372
164.47
164.599
164.689
164.715
168.24
168.274
168.262
168.213
168.146
168.062
167.956
167.827
167.683
167.53
167.378
167.23
167.085
166.945
166.81
166.678
166.547
166.418
166.289
166.161
166.033
165.906
165.778
165.65
165.522
165.396
165.274
165.156
165.041
164.926
164.811
164.693
164.569
164.445
164.357
164.379
164.478
164.603
164.686
164.71
168.436
168.459
168.436
168.377
168.297
168.203
168.087
167.95
167.796
167.635
167.473
167.316
167.163
167.015
166.873
166.734
166.597
166.462
166.329
166.196
166.065
165.933
165.802
165.671
165.54
165.411
165.287
165.167
165.05
164.934
164.817
164.697
164.571
164.446
164.362
164.388
164.487
164.607
164.684
164.705
168.635
168.646
168.611
168.54
168.449
168.343
168.218
168.071
167.909
167.738
167.567
167.402
167.24
167.084
166.935
166.789
166.647
166.507
166.368
166.231
166.096
165.96
165.826
165.691
165.557
165.426
165.3
165.178
165.059
164.942
164.823
164.7
164.571
164.445
164.367
164.397
164.497
164.612
164.682
164.7
168.836
168.834
168.787
168.704
168.601
168.483
168.348
168.192
168.02
167.84
167.66
167.486
167.316
167.153
166.996
166.844
166.696
166.55
166.407
166.265
166.126
165.987
165.848
165.711
165.574
165.44
165.312
165.188
165.068
164.948
164.827
164.701
164.569
164.443
164.372
164.408
164.508
164.617
164.68
164.695
169.04
169.023
168.963
168.868
168.752
168.623
168.477
168.312
168.13
167.941
167.752
167.569
167.391
167.22
167.056
166.898
166.744
166.593
166.445
166.299
166.155
166.012
165.87
165.729
165.589
165.453
165.322
165.197
165.075
164.953
164.83
164.701
164.565
164.438
164.377
164.419
164.519
164.622
164.678
164.69
169.246
169.215
169.14
169.031
168.904
168.763
168.606
168.43
168.239
168.04
167.842
167.651
167.465
167.286
167.115
166.951
166.791
166.635
166.482
166.331
166.183
166.037
165.891
165.746
165.603
165.465
165.332
165.205
165.081
164.957
164.831
164.698
164.559
164.433
164.384
164.432
164.531
164.627
164.676
164.686
169.454
169.407
169.317
169.195
169.054
168.902
168.733
168.547
168.346
168.137
167.93
167.731
167.537
167.351
167.173
167.002
166.837
166.675
166.517
166.363
166.21
166.06
165.911
165.763
165.616
165.475
165.34
165.211
165.085
164.959
164.83
164.693
164.55
164.428
164.391
164.446
164.543
164.632
164.674
164.681
169.665
169.6
169.495
169.359
169.205
169.04
168.86
168.663
168.452
168.233
168.016
167.809
167.608
167.415
167.23
167.053
166.882
166.715
166.552
166.393
166.236
166.082
165.929
165.777
165.628
165.484
165.347
165.216
165.088
164.959
164.826
164.684
164.536
164.423
164.4
164.461
164.556
164.636
164.672
164.677
161.439
162.311
163.101
163.817
164.472
165.093
165.653
161.441
162.324
163.133
163.876
164.568
165.207
165.777
161.443
162.337
163.165
163.936
164.641
165.284
165.863
161.445
162.35
163.192
163.968
164.678
165.325
165.91
161.446
162.352
163.197
163.976
164.69
165.341
165.932
161.446
162.353
163.199
163.98
164.697
165.35
165.944
161.446
162.354
163.2
163.983
164.702
165.356
165.952
161.446
162.354
163.201
163.985
164.704
165.359
165.955
161.446
162.354
163.201
163.985
164.704
165.359
165.955
161.446
162.354
163.201
163.985
164.704
165.358
165.952
161.446
162.354
163.201
163.984
164.702
165.354
165.947
161.446
162.354
163.2
163.982
164.699
165.35
165.941
161.446
162.353
163.199
163.981
164.696
165.346
165.935
161.446
162.353
163.198
163.979
164.693
165.342
165.929
161.446
162.353
163.198
163.977
164.691
165.338
165.924
161.446
162.353
163.197
163.976
164.688
165.335
165.919
161.446
162.353
163.197
163.975
164.686
165.332
165.915
161.446
162.352
163.196
163.974
164.685
165.329
165.912
161.446
162.352
163.196
163.973
164.684
165.327
165.909
161.446
162.352
163.196
163.973
164.683
165.326
165.907
161.446
162.352
163.195
163.972
164.682
165.325
165.906
161.446
162.352
163.195
163.972
164.681
165.324
165.904
161.446
162.352
163.195
163.972
164.681
165.323
165.904
161.446
162.352
163.195
163.972
164.681
165.323
165.903
161.446
162.352
163.195
163.971
164.68
165.323
165.902
161.446
162.352
163.195
163.971
164.68
165.322
165.902
161.446
162.352
163.195
163.971
164.68
165.322
165.902
161.446
162.352
163.195
163.971
164.68
165.322
165.902
161.446
162.352
163.195
163.971
164.68
165.322
165.902
161.446
162.352
163.195
163.971
164.68
165.322
165.901
161.446
162.352
163.195
163.971
164.68
165.322
165.901
161.446
162.352
163.195
163.971
164.68
165.322
165.901
161.446
162.352
163.195
163.971
164.68
165.322
165.901
161.446
162.352
163.195
163.971
164.68
165.322
165.901
161.446
162.352
163.195
163.971
164.68
165.322
165.901
161.446
162.352
163.195
163.971
164.68
165.322
165.901
161.446
162.352
163.195
163.971
164.68
165.322
165.901
161.446
162.352
163.195
163.971
164.68
165.322
165.901
161.446
162.352
163.195
163.971
164.68
165.322
165.901
161.446
162.352
163.195
163.971
164.68
165.322
165.901
166.021
166.179
166.343
166.512
166.684
166.86
167.04
167.224
167.411
167.601
167.796
167.994
168.195
168.4
168.607
168.818
169.031
169.246
169.464
169.683
166.141
166.295
166.457
166.621
166.789
166.961
167.136
167.315
167.498
167.684
167.875
168.069
168.266
168.467
168.671
168.878
169.087
169.299
169.514
169.73
166.218
166.365
166.517
166.675
166.836
167.003
167.173
167.348
167.528
167.712
167.9
168.091
168.287
168.486
168.688
168.894
169.102
169.313
169.526
169.741
166.261
166.403
166.552
166.705
166.864
167.028
167.197
167.37
167.548
167.73
167.917
168.107
168.301
168.499
168.7
168.904
169.11
169.32
169.531
169.744
166.282
166.423
166.57
166.722
166.88
167.042
167.21
167.382
167.559
167.74
167.925
168.115
168.308
168.504
168.703
168.906
169.111
169.319
169.528
169.74
166.295
166.435
166.581
166.732
166.889
167.051
167.217
167.389
167.564
167.744
167.929
168.117
168.308
168.503
168.702
168.903
169.106
169.312
169.52
169.73
166.302
166.441
166.587
166.737
166.893
167.054
167.22
167.39
167.565
167.744
167.927
168.114
168.304
168.498
168.694
168.894
169.096
169.3
169.506
169.715
166.304
166.443
166.588
166.738
166.893
167.053
167.218
167.387
167.561
167.739
167.921
168.106
168.296
168.488
168.683
168.881
169.082
169.285
169.489
169.696
166.303
166.442
166.586
166.735
166.889
167.048
167.212
167.381
167.554
167.731
167.912
168.096
168.284
168.475
168.669
168.866
169.065
169.266
169.469
169.674
166.299
166.437
166.581
166.729
166.883
167.042
167.205
167.372
167.544
167.721
167.9
168.084
168.271
168.461
168.653
168.849
169.047
169.246
169.448
169.651
166.294
166.431
166.574
166.722
166.875
167.033
167.196
167.363
167.534
167.709
167.888
168.071
168.256
168.445
168.637
168.831
169.027
169.226
169.426
169.628
166.287
166.424
166.567
166.714
166.867
167.024
167.186
167.353
167.523
167.697
167.876
168.057
168.242
168.43
168.621
168.814
169.009
169.206
169.405
169.605
166.28
166.417
166.559
166.706
166.859
167.015
167.177
167.343
167.512
167.686
167.864
168.044
168.228
168.415
168.605
168.797
168.991
169.187
169.385
169.584
166.273
166.41
166.552
166.699
166.851
167.007
167.168
167.334
167.503
167.676
167.853
168.033
168.216
168.402
168.591
168.782
168.975
169.171
169.367
169.565
166.267
166.403
166.545
166.692
166.844
167
167.161
167.326
167.495
167.667
167.843
168.023
168.205
168.391
168.579
168.769
168.962
169.156
169.351
169.548
166.261
166.398
166.54
166.687
166.838
166.994
167.155
167.319
167.488
167.66
167.836
168.015
168.197
168.381
168.569
168.758
168.95
169.143
169.338
169.534
166.257
166.394
166.536
166.682
166.834
166.99
167.15
167.314
167.482
167.654
167.829
168.008
168.189
168.374
168.56
168.749
168.94
169.133
169.327
169.522
166.253
166.39
166.532
166.679
166.83
166.986
167.146
167.31
167.478
167.65
167.825
168.003
168.184
168.368
168.554
168.742
168.932
169.124
169.318
169.512
166.251
166.388
166.53
166.677
166.828
166.984
167.144
167.308
167.475
167.647
167.821
167.999
168.18
168.363
168.549
168.737
168.926
169.118
169.311
169.505
166.249
166.386
166.528
166.675
166.827
166.982
167.142
167.306
167.474
167.645
167.819
167.997
168.177
168.36
168.545
168.733
168.922
169.113
169.305
169.499
166.247
166.385
166.527
166.674
166.826
166.982
167.142
167.305
167.473
167.644
167.818
167.995
168.175
168.358
168.543
168.73
168.919
169.109
169.301
169.494
166.246
166.384
166.527
166.674
166.826
166.982
167.142
167.306
167.473
167.644
167.818
167.995
168.175
168.357
168.541
168.728
168.917
169.107
169.298
169.49
166.245
166.384
166.527
166.675
166.827
166.983
167.143
167.306
167.474
167.645
167.818
167.995
168.175
168.357
168.541
168.727
168.915
169.105
169.296
169.488
166.245
166.384
166.527
166.676
166.828
166.984
167.144
167.308
167.475
167.646
167.82
167.996
168.175
168.357
168.541
168.727
168.915
169.104
169.294
169.486
166.245
166.384
166.528
166.677
166.829
166.986
167.146
167.31
167.477
167.648
167.821
167.998
168.177
168.358
168.542
168.727
168.915
169.103
169.293
169.484
166.245
166.385
166.53
166.678
166.831
166.988
167.149
167.313
167.48
167.65
167.824
168
168.179
168.36
168.543
168.728
168.915
169.103
169.293
169.483
166.245
166.386
166.531
166.681
166.834
166.991
167.152
167.316
167.483
167.653
167.827
168.003
168.181
168.362
168.545
168.73
168.916
169.104
169.293
169.483
166.245
166.387
166.533
166.683
166.837
166.994
167.155
167.319
167.487
167.657
167.83
168.006
168.184
168.365
168.547
168.731
168.917
169.105
169.293
169.482
166.245
166.388
166.535
166.686
166.84
166.998
167.159
167.323
167.491
167.661
167.834
168.01
168.188
168.368
168.55
168.734
168.919
169.106
169.293
169.482
166.246
166.39
166.537
166.689
166.844
167.002
167.163
167.328
167.495
167.666
167.839
168.014
168.192
168.371
168.553
168.736
168.921
169.107
169.294
169.482
166.246
166.391
166.54
166.692
166.848
167.006
167.168
167.333
167.501
167.671
167.844
168.019
168.196
168.375
168.556
168.739
168.923
169.108
169.295
169.482
166.247
166.393
166.543
166.696
166.852
167.011
167.174
167.339
167.506
167.677
167.849
168.024
168.201
168.38
168.56
168.742
168.926
169.11
169.296
169.482
166.248
166.395
166.546
166.7
166.857
167.017
167.18
167.345
167.513
167.683
167.855
168.03
168.206
168.385
168.564
168.746
168.928
169.112
169.297
169.483
166.248
166.397
166.55
166.705
166.863
167.023
167.187
167.352
167.52
167.69
167.862
168.036
168.212
168.39
168.569
168.75
168.932
169.115
169.298
169.483
166.249
166.4
166.554
166.71
166.869
167.03
167.194
167.36
167.528
167.698
167.87
168.044
168.219
168.396
168.575
168.754
168.935
169.117
169.3
169.484
166.25
166.403
166.558
166.716
166.876
167.038
167.202
167.369
167.537
167.707
167.878
168.052
168.227
168.403
168.581
168.759
168.939
169.12
169.302
169.484
166.251
166.406
166.563
166.722
166.884
167.047
167.211
167.378
167.546
167.716
167.888
168.061
168.235
168.41
168.587
168.765
168.944
169.123
169.304
169.485
166.253
166.41
166.569
166.73
166.892
167.056
167.222
167.389
167.557
167.727
167.898
168.071
168.244
168.419
168.594
168.771
168.949
169.127
169.306
169.485
166.254
166.414
166.575
166.737
166.901
167.066
167.233
167.4
167.569
167.739
167.91
168.082
168.254
168.428
168.603
168.778
168.954
169.131
169.308
169.486
166.256
166.418
166.582
166.746
166.912
167.078
167.245
167.413
167.582
167.752
167.922
168.094
168.266
168.438
168.612
168.785
168.96
169.135
169.311
169.487
164.673
164.669
164.665
164.661
164.657
164.653
164.648
164.644
164.64
164.635
164.631
164.626
164.622
164.617
164.613
164.608
164.604
164.6
164.595
164.591
164.587
164.583
164.58
164.576
164.572
164.569
164.566
164.563
164.56
164.558
164.556
164.554
164.552
164.551
164.55
164.549
164.548
164.548
164.549
164.549
164.551
164.552
164.554
164.557
164.56
164.564
164.568
164.572
164.578
164.584
164.59
164.597
164.605
164.614
164.623
164.633
164.643
164.655
164.667
164.68
164.694
164.709
164.725
164.742
164.76
164.78
164.801
164.823
164.847
164.873
164.9
164.93
164.962
164.996
165.033
165.073
165.116
165.162
165.213
165.268
164.669
164.667
164.663
164.66
164.656
164.652
164.648
164.644
164.64
164.635
164.631
164.626
164.622
164.617
164.613
164.609
164.604
164.6
164.596
164.591
164.587
164.583
164.58
164.576
164.572
164.569
164.566
164.563
164.56
164.558
164.556
164.554
164.552
164.551
164.55
164.549
164.548
164.548
164.549
164.549
164.551
164.552
164.554
164.557
164.56
164.564
164.568
164.572
164.578
164.584
164.59
164.597
164.605
164.614
164.623
164.633
164.643
164.655
164.667
164.68
164.694
164.709
164.725
164.742
164.761
164.78
164.801
164.823
164.847
164.873
164.9
164.93
164.962
164.996
165.033
165.073
165.116
165.162
165.213
165.268
164.64
164.642
164.644
164.644
164.643
164.642
164.64
164.637
164.634
164.631
164.628
164.624
164.62
164.616
164.612
164.608
164.603
164.599
164.595
164.591
164.587
164.583
164.579
164.576
164.572
164.569
164.566
164.563
164.56
164.558
164.556
164.554
164.552
164.55
164.549
164.549
164.548
164.548
164.549
164.549
164.551
164.552
164.555
164.557
164.56
164.564
164.568
164.573
164.578
164.584
164.591
164.598
164.606
164.615
164.624
164.634
164.644
164.656
164.668
164.681
164.695
164.71
164.726
164.743
164.762
164.781
164.802
164.824
164.848
164.874
164.901
164.931
164.963
164.997
165.034
165.074
165.117
165.163
165.214
165.269
164.567
164.576
164.584
164.591
164.597
164.602
164.606
164.608
164.61
164.61
164.61
164.609
164.608
164.606
164.603
164.601
164.598
164.594
164.591
164.588
164.584
164.581
164.577
164.574
164.571
164.568
164.565
164.562
164.559
164.557
164.555
164.553
164.551
164.55
164.549
164.548
164.548
164.548
164.549
164.55
164.551
164.553
164.555
164.558
164.561
164.565
164.57
164.575
164.58
164.586
164.593
164.6
164.608
164.617
164.626
164.636
164.647
164.658
164.671
164.684
164.698
164.713
164.729
164.746
164.764
164.784
164.805
164.827
164.851
164.876
164.904
164.934
164.965
165
165.036
165.076
165.119
165.166
165.217
165.272
164.474
164.486
164.497
164.507
164.517
164.526
164.535
164.544
164.551
164.558
164.563
164.568
164.572
164.574
164.576
164.577
164.577
164.577
164.576
164.575
164.573
164.572
164.569
164.567
164.565
164.563
164.56
164.558
164.556
164.554
164.552
164.551
164.55
164.549
164.548
164.548
164.548
164.548
164.549
164.551
164.552
164.555
164.557
164.56
164.564
164.568
164.573
164.578
164.584
164.591
164.598
164.605
164.613
164.622
164.632
164.642
164.652
164.664
164.676
164.689
164.704
164.719
164.735
164.752
164.77
164.789
164.81
164.833
164.857
164.882
164.91
164.939
164.971
165.005
165.042
165.082
165.125
165.172
165.222
165.277
164.409
164.417
164.426
164.435
164.444
164.453
164.462
164.471
164.48
164.488
164.496
164.504
164.512
164.519
164.525
164.531
164.536
164.54
164.543
164.546
164.548
164.549
164.55
164.55
164.55
164.55
164.55
164.549
164.549
164.548
164.547
164.547
164.547
164.546
164.547
164.547
164.548
164.549
164.551
164.553
164.555
164.558
164.562
164.565
164.57
164.575
164.58
164.586
164.592
164.599
164.607
164.614
164.623
164.632
164.642
164.652
164.663
164.675
164.687
164.7
164.714
164.729
164.745
164.762
164.781
164.8
164.821
164.843
164.867
164.893
164.92
164.95
164.982
165.016
165.053
165.093
165.136
165.183
165.233
165.289
164.42
164.419
164.419
164.42
164.422
164.425
164.429
164.435
164.441
164.447
164.453
164.459
164.465
164.471
164.478
164.484
164.49
164.496
164.502
164.507
164.512
164.517
164.521
164.524
164.527
164.53
164.532
164.534
164.536
164.538
164.539
164.541
164.542
164.544
164.546
164.548
164.55
164.553
164.555
164.559
164.562
164.566
164.571
164.576
164.581
164.587
164.593
164.6
164.607
164.615
164.623
164.631
164.64
164.65
164.66
164.67
164.681
164.693
164.706
164.719
164.733
164.748
164.764
164.781
164.799
164.819
164.84
164.862
164.886
164.911
164.939
164.969
165
165.035
165.072
165.112
165.155
165.202
165.253
165.308
164.522
164.512
164.503
164.495
164.488
164.481
164.476
164.472
164.469
164.467
164.465
164.465
164.467
164.47
164.473
164.477
164.48
164.484
164.488
164.493
164.497
164.502
164.506
164.51
164.514
164.518
164.522
164.526
164.53
164.534
164.537
164.541
164.545
164.548
164.552
164.556
164.56
164.564
164.569
164.574
164.579
164.585
164.591
164.597
164.604
164.611
164.618
164.626
164.634
164.642
164.651
164.66
164.669
164.679
164.689
164.7
164.712
164.724
164.736
164.75
164.764
164.779
164.795
164.812
164.83
164.849
164.87
164.893
164.916
164.942
164.969
164.999
165.031
165.065
165.102
165.143
165.186
165.233
165.284
165.34
164.674
164.667
164.658
164.647
164.634
164.621
164.608
164.596
164.585
164.574
164.565
164.556
164.548
164.541
164.536
164.532
164.526
164.525
164.526
164.528
164.53
164.532
164.535
164.537
164.541
164.544
164.548
164.551
164.555
164.559
164.563
164.567
164.572
164.576
164.581
164.587
164.592
164.598
164.604
164.61
164.617
164.623
164.631
164.638
164.646
164.654
164.662
164.67
164.679
164.688
164.697
164.707
164.716
164.727
164.737
164.748
164.76
164.772
164.784
164.798
164.812
164.827
164.843
164.86
164.878
164.898
164.918
164.941
164.964
164.99
165.018
165.047
165.079
165.114
165.151
165.191
165.235
165.283
165.334
165.39
164.821
164.817
164.813
164.808
164.803
164.796
164.789
164.78
164.769
164.755
164.739
164.724
164.71
164.696
164.683
164.671
164.659
164.649
164.639
164.631
164.626
164.622
164.615
164.613
164.614
164.616
164.619
164.623
164.626
164.628
164.632
164.636
164.64
164.645
164.65
164.655
164.661
164.667
164.673
164.679
164.686
164.694
164.701
164.709
164.717
164.725
164.733
164.742
164.751
164.76
164.77
164.779
164.789
164.799
164.81
164.821
164.832
164.845
164.857
164.871
164.885
164.9
164.916
164.933
164.951
164.97
164.991
165.013
165.037
165.063
165.09
165.12
165.153
165.187
165.225
165.266
165.31
165.359
165.411
165.468
164.958
164.956
164.955
164.954
164.953
164.951
164.949
164.947
164.944
164.94
164.935
164.925
164.914
164.901
164.887
164.871
164.855
164.84
164.825
164.811
164.798
164.786
164.774
164.764
164.756
164.751
164.747
164.745
164.737
164.735
164.738
164.743
164.748
164.752
164.756
164.759
164.763
164.769
164.775
164.782
164.789
164.796
164.803
164.81
164.818
164.826
164.835
164.844
164.853
164.862
164.871
164.881
164.891
164.902
164.913
164.924
164.936
164.948
164.961
164.975
164.989
165.004
165.02
165.037
165.055
165.075
165.096
165.119
165.143
165.169
165.197
165.227
165.26
165.296
165.334
165.376
165.422
165.471
165.525
165.583
165.088
165.089
165.089
165.09
165.091
165.092
165.093
165.094
165.096
165.097
165.098
165.098
165.098
165.093
165.086
165.078
165.069
165.058
165.047