/*--------------------------------*- C++ -*----------------------------------*\
  =========                 |
  \\      /  F ield         | OpenFOAM: The Open Source CFD Toolbox
   \\    /   O peration     | Website:  https://openfoam.org
    \\  /    A nd           | Version:  9
     \\/     M anipulation  |
\*---------------------------------------------------------------------------*/
FoamFile
{
    format      ascii;
    class       volVectorField;
    location    "280";
    object      U;
}
// * * * * * * * * * * * * * * * * * * * * * * * * * * * * * * * * * * * * * //

dimensions      [0 1 -1 0 0 0 0];

internalField   nonuniform List<vector> 
26820
(
(5.39977 0.000106869 3.45144e-21)
(5.39792 0.000313272 -2.33873e-22)
(5.39439 0.000532347 4.97544e-22)
(5.38951 0.000772007 -8.05025e-22)
(5.38361 0.0010433 5.63233e-22)
(5.37686 0.00133859 0)
(5.36934 0.00171805 6.69376e-22)
(5.39977 0.000308597 -4.04999e-21)
(5.39793 0.000925071 4.25501e-21)
(5.39441 0.00157927 0)
(5.38955 0.00229453 0)
(5.38366 0.00310647 0)
(5.37695 0.00398882 0)
(5.36947 0.0051277 -3.01537e-21)
(5.39977 0.00050209 5.34532e-22)
(5.39793 0.00153011 -5.03862e-21)
(5.39443 0.00261794 2.31917e-21)
(5.38959 0.00380609 -7.40864e-23)
(5.38373 0.00515801 -2.66284e-21)
(5.37707 0.00662455 5.60612e-21)
(5.36965 0.00852589 -5.94392e-21)
(5.39977 0.000701197 1.78065e-20)
(5.39794 0.00214471 -9.92985e-21)
(5.39445 0.00366696 7.01007e-21)
(5.38964 0.0053282 -2.43239e-21)
(5.38383 0.00722032 5.21685e-21)
(5.37725 0.00926955 2.86199e-21)
(5.36992 0.0119345 -1.16868e-20)
(5.39977 0.000902092 -1.75672e-20)
(5.39795 0.0027598 9.81267e-21)
(5.39448 0.00471513 -1.99401e-23)
(5.38971 0.00684774 9.74201e-21)
(5.38396 0.00927807 0)
(5.37748 0.0119053 0)
(5.37027 0.0153307 -2.89972e-21)
(5.39976 0.00110389 0)
(5.39795 0.00337526 0)
(5.39451 0.00576296 -1.35888e-20)
(5.3898 0.00836548 -1.44428e-20)
(5.38413 0.0113322 -1.54485e-20)
(5.37778 0.0145319 1.09989e-20)
(5.37071 0.0187152 -5.31478e-21)
(5.39976 0.00130665 -1.40012e-20)
(5.39797 0.00399168 -1.90798e-20)
(5.39456 0.00681075 2.69965e-20)
(5.3899 0.00988118 0)
(5.38433 0.0133818 2.03348e-20)
(5.37813 0.017147 5.18204e-21)
(5.37125 0.0220843 2.26991e-20)
(5.39976 0.00151046 4.92777e-23)
(5.39798 0.00460921 2.10488e-20)
(5.39461 0.00785817 -1.77492e-20)
(5.39003 0.0113941 -4.686e-21)
(5.38456 0.0154256 -1.01161e-20)
(5.37855 0.019748 -1.07543e-20)
(5.37187 0.0254346 -3.71927e-23)
(5.39976 0.00171536 1.56376e-20)
(5.398 0.00522779 4.18992e-21)
(5.39467 0.0089048 -4.37384e-21)
(5.39018 0.0129036 0)
(5.38484 0.0174622 0)
(5.37903 0.0223325 1.06354e-20)
(5.3726 0.0287629 -1.13223e-20)
(5.39976 0.00192135 0)
(5.39802 0.00584729 1.63832e-20)
(5.39474 0.00995014 -1.74546e-20)
(5.39035 0.0144088 0)
(5.38515 0.0194902 -9.94052e-21)
(5.37958 0.024898 -1.06517e-20)
(5.37341 0.0320658 -5.82708e-21)
(5.39976 0.0021284 3.04391e-20)
(5.39805 0.00646745 -1.62973e-20)
(5.39483 0.0109936 3.4713e-20)
(5.39054 0.015909 0)
(5.3855 0.021508 1.98389e-20)
(5.38019 0.027442 0)
(5.37433 0.0353397 0)
(5.39976 0.00233644 -2.03522e-21)
(5.39808 0.00708793 6.0797e-21)
(5.39492 0.0120343 -3.00242e-20)
(5.39076 0.0174032 -9.13406e-21)
(5.38589 0.0235135 -9.91369e-21)
(5.38088 0.0299624 0)
(5.37534 0.0385807 -2.28003e-20)
(5.39976 0.00254535 -3.00295e-20)
(5.39811 0.00770823 4.04211e-21)
(5.39503 0.0130715 -4.15904e-21)
(5.391 0.0188907 9.32869e-21)
(5.38633 0.0255047 -9.73813e-21)
(5.38163 0.0324574 -1.08485e-20)
(5.37645 0.0417844 3.32386e-20)
(5.39976 0.00275501 3.73398e-21)
(5.39815 0.00832782 -3.96932e-21)
(5.39515 0.0141043 1.71333e-20)
(5.39126 0.0203703 1.82952e-20)
(5.38681 0.0274791 -9.80166e-21)
(5.38245 0.0349256 -1.05613e-20)
(5.37767 0.0449454 -5.68308e-21)
(5.39976 0.00296522 0)
(5.39819 0.00894607 1.58272e-20)
(5.39528 0.0151321 0)
(5.39155 0.0218416 -1.83994e-20)
(5.38734 0.0294343 1.96767e-20)
(5.38334 0.0373667 -2.12619e-20)
(5.37898 0.0480561 3.92108e-20)
(5.39977 0.00317564 0)
(5.39824 0.00956183 -1.58926e-20)
(5.39543 0.0161539 -8.61752e-21)
(5.39187 0.0233046 8.94031e-21)
(5.38791 0.03137 -2.00821e-20)
(5.3843 0.0397841 1.00703e-20)
(5.38039 0.051109 2.22076e-20)
(5.39978 0.00338609 -1.46985e-20)
(5.3983 0.0101724 0)
(5.3956 0.0171647 0)
(5.39222 0.0247528 -9.23149e-21)
(5.38854 0.0332797 0)
(5.38533 0.0421798 1.06803e-20)
(5.38189 0.0540926 -2.2297e-20)
(5.39979 0.00359794 1.85199e-20)
(5.39836 0.0107773 -3.96017e-21)
(5.39578 0.0181566 0)
(5.39259 0.0261654 0)
(5.38921 0.03513 2.00555e-20)
(5.38641 0.0445217 -2.63449e-20)
(5.3835 0.0569527 2.27853e-20)
(5.3998 0.00381582 0)
(5.39842 0.0114018 8.05239e-21)
(5.39596 0.0191786 -8.55485e-21)
(5.39298 0.0275972 4.75865e-21)
(5.38993 0.036953 -2.99686e-20)
(5.38754 0.0467907 2.89959e-20)
(5.3852 0.0596024 1.97653e-20)
(5.39982 0.00403741 0)
(5.39848 0.0121272 8.89631e-21)
(5.39615 0.0205024 -9.41587e-21)
(5.39337 0.0295928 5.11182e-21)
(5.39066 0.0395791 0)
(5.38867 0.0500475 -2.58248e-20)
(5.38705 0.0632137 2.6842e-20)
(5.36061 0.00199548 3.12719e-23)
(5.35027 0.0022669 -1.52312e-21)
(5.3386 0.00254738 8.33919e-22)
(5.3255 0.00285176 7.68739e-21)
(5.3109 0.00318595 -5.59498e-22)
(5.29465 0.00355393 -4.92099e-21)
(5.27659 0.00396057 6.69508e-22)
(5.25654 0.00441153 0)
(5.23427 0.00491333 0)
(5.20956 0.00546955 0)
(5.18218 0.00609685 0)
(5.15179 0.00679749 0)
(5.11807 0.00757998 -4.69715e-22)
(5.08066 0.00845643 8.27926e-22)
(5.03916 0.00944129 5.15786e-21)
(4.99309 0.0105501 0)
(4.94193 0.0118001 5.42623e-22)
(4.88511 0.0132111 -9.4539e-22)
(4.82199 0.0148058 6.59036e-21)
(4.75184 0.0166104 0)
(4.67387 0.0186545 4.61405e-21)
(4.58721 0.0209722 3.6694e-22)
(4.49087 0.0236023 6.37833e-21)
(4.38379 0.0265884 -4.10248e-21)
(4.2648 0.0299802 0)
(4.13261 0.0338331 0)
(3.98585 0.0382087 -3.5785e-21)
(3.82303 0.0431754 0)
(3.64258 0.0488072 5.13003e-21)
(3.44284 0.0551839 -5.3241e-21)
(3.22212 0.0623893 -8.82562e-22)
(2.9787 0.0705091 4.33e-21)
(2.71087 0.079626 6.64627e-22)
(2.41705 0.0898122 4.44437e-23)
(2.09579 0.101108 -1.7921e-21)
(1.74629 0.113485 1.0285e-21)
(1.36681 0.126735 0)
(0.961719 0.139945 0)
(0.530353 0.147165 0)
(0.119083 0.112305 0)
(5.36078 0.00595374 2.80562e-21)
(5.35048 0.00676722 1.29985e-20)
(5.33885 0.00760603 0)
(5.32579 0.00851366 -8.43575e-21)
(5.31124 0.00950968 0)
(5.29504 0.0106065 1.64627e-20)
(5.27704 0.0118186 0)
(5.25706 0.0131625 1.85923e-21)
(5.23486 0.014658 -1.98887e-21)
(5.21023 0.0163205 -1.22084e-21)
(5.18293 0.0181791 2.79195e-21)
(5.15264 0.0202592 -1.64362e-21)
(5.11902 0.0225891 8.3084e-21)
(5.08174 0.0252028 0)
(5.04038 0.028141 -6.21072e-21)
(4.99446 0.0314494 -1.51028e-20)
(4.94347 0.0351793 -1.2036e-21)
(4.88685 0.0393897 1.34907e-21)
(4.82396 0.0441482 -6.81263e-21)
(4.75407 0.0495321 0)
(4.67641 0.0556301 -5.00949e-21)
(4.5901 0.0625429 0)
(4.49418 0.0703854 9.1915e-21)
(4.38759 0.0792876 2.29998e-21)
(4.26916 0.0893962 0)
(4.13764 0.100875 -1.4492e-20)
(3.99165 0.113908 1.34419e-20)
(3.82974 0.128695 0)
(3.65036 0.145457 -7.0394e-21)
(3.45187 0.164428 6.57147e-21)
(3.23261 0.185857 4.01075e-21)
(2.99088 0.209996 -7.1067e-21)
(2.72502 0.237091 2.94919e-21)
(2.43346 0.267358 -3.30593e-21)
(2.11474 0.300933 8.04992e-21)
(1.76795 0.337774 0)
(1.39102 0.377494 0)
(0.987223 0.417716 0)
(0.554279 0.440015 0)
(0.119323 0.331911 9.72865e-21)
(5.36105 0.00989093 2.5013e-21)
(5.35081 0.0112447 -9.21632e-21)
(5.33924 0.0126397 3.12775e-20)
(5.32626 0.0141457 -7.93963e-21)
(5.31178 0.0157975 2.24498e-20)
(5.29567 0.0176166 -7.67432e-21)
(5.27776 0.0196265 2.07331e-20)
(5.25787 0.0218546 -1.75445e-21)
(5.23579 0.0243338 1.73554e-20)
(5.21128 0.0270945 -2.31086e-21)
(5.18413 0.0301766 2.54531e-21)
(5.154 0.033627 1.67292e-21)
(5.12056 0.0374951 7.94698e-21)
(5.08348 0.0418356 -2.14079e-20)
(5.04235 0.0467148 3.0448e-21)
(4.99669 0.0522078 -3.3596e-21)
(4.94601 0.0584 -2.25629e-21)
(4.88973 0.0653891 2.52618e-21)
(4.82723 0.0732868 -1.26869e-20)
(4.7578 0.0822209 0)
(4.68067 0.0923375 0)
(4.59498 0.103803 -1.12453e-20)
(4.49977 0.116807 -1.72278e-20)
(4.394 0.131564 3.95495e-21)
(4.27654 0.148314 0)
(4.14614 0.16733 1.19469e-20)
(4.00147 0.18891 -1.09136e-20)
(3.84109 0.213386 6.37526e-21)
(3.66349 0.241119 1.04234e-20)
(3.46707 0.272494 -2.96725e-21)
(3.25022 0.307918 0)
(3.01127 0.347805 0)
(2.74862 0.39256 -1.03134e-20)
(2.46071 0.442547 0)
(2.14611 0.498029 -2.17701e-20)
(1.80382 0.55903 1.29081e-20)
(1.43156 0.625291 -4.9656e-21)
(1.0318 0.693404 -1.49187e-20)
(0.601068 0.731868 3.68932e-21)
(0.147977 0.546342 -8.83906e-21)
(5.36143 0.0138285 1.00945e-20)
(5.35128 0.0157177 -5.60366e-21)
(5.3398 0.0176674 -2.95155e-20)
(5.32692 0.0197705 7.47923e-21)
(5.31255 0.0220765 1.27907e-20)
(5.29655 0.0246158 0)
(5.27877 0.0274215 -2.52844e-20)
(5.25902 0.0305315 3.10927e-21)
(5.23709 0.0339918 -1.47201e-20)
(5.21276 0.0378465 0)
(5.18581 0.04215 2.59549e-21)
(5.15591 0.046967 -6.10729e-21)
(5.12272 0.0523673 -1.12867e-20)
(5.08593 0.0584267 1.04877e-22)
(5.04512 0.0652369 -2.47842e-20)
(4.99984 0.0729024 1.66266e-20)
(4.94959 0.0815422 -2.12064e-21)
(4.8938 0.0912918 2.37199e-21)
(4.83187 0.102307 1.50916e-20)
(4.7631 0.114764 1.09055e-20)
(4.68673 0.128867 0)
(4.60191 0.144847 1.33432e-20)
(4.50773 0.162966 -6.38741e-21)
(4.40315 0.183521 -1.15532e-20)
(4.28707 0.206847 0)
(4.15828 0.233318 2.89207e-21)
(4.01547 0.26335 -3.19915e-21)
(3.85727 0.2974 4.1459e-21)
(3.68218 0.335968 -1.41389e-20)
(3.48869 0.379584 -2.94642e-21)
(3.27521 0.428811 3.26167e-21)
(3.04015 0.484221 1.58761e-20)
(2.78194 0.546379 9.54664e-21)
(2.49911 0.615801 0)
(2.1902 0.692904 1.3269e-20)
(1.85423 0.777841 -1.17203e-20)
(1.48885 0.870548 9.00585e-21)
(1.09577 0.966684 -1.03219e-20)
(0.668979 1.02163 1.2951e-20)
(0.1962 0.758434 -2.32833e-20)
(5.36194 0.017745 0)
(5.35191 0.0201643 0)
(5.34054 0.022665 0)
(5.32779 0.0253606 0)
(5.31355 0.0283151 -6.44735e-20)
(5.29771 0.0315685 0)
(5.28009 0.035163 0)
(5.26052 0.0391474 -3.14834e-21)
(5.23879 0.0435799 3.3822e-21)
(5.21469 0.0485181 -1.18122e-20)
(5.18799 0.0540312 -4.58633e-21)
(5.15838 0.0602005 0)
(5.12552 0.0671162 -2.43255e-20)
(5.0891 0.0748748 1.30213e-20)
(5.04872 0.083593 4.15206e-20)
(5.00393 0.0934044 -3.29167e-21)
(4.95423 0.10446 3.41274e-20)
(4.89909 0.116933 0)
(4.8379 0.131022 0)
(4.76999 0.146951 -1.36203e-20)
(4.69461 0.164979 -4.28229e-21)
(4.61094 0.185399 -4.10768e-22)
(4.51809 0.208546 5.72737e-21)
(4.41506 0.234797 1.43919e-20)
(4.30078 0.264576 -4.49289e-21)
(4.17408 0.298358 4.9682e-21)
(4.0337 0.33667 0)
(3.87831 0.380093 1.46367e-20)
(3.70649 0.429256 0)
(3.51677 0.484834 2.07469e-20)
(3.30764 0.547537 0)
(3.07758 0.618092 -1.1032e-20)
(2.82508 0.697221 -2.13593e-20)
(2.54872 0.785598 5.24145e-21)
(2.24711 0.883798 -5.82153e-21)
(1.91928 0.992134 -1.36974e-20)
(1.5629 1.11073 0)
(1.17896 1.23425 -8.93051e-21)
(0.757262 1.30533 1.1161e-20)
(0.260742 0.965938 1.42808e-20)
(5.36257 0.0216363 -4.45849e-20)
(5.35268 0.024577 -5.25481e-21)
(5.34146 0.0276226 5.70197e-21)
(5.32886 0.0309039 -6.88167e-21)
(5.3148 0.034499 3.69051e-21)
(5.29913 0.0384579 3.91924e-20)
(5.28171 0.042832 0)
(5.26237 0.04768 0)
(5.24089 0.0530727 0)
(5.21706 0.0590803 1.53151e-20)
(5.19068 0.0657858 1.79514e-20)
(5.16142 0.073288 0)
(5.12897 0.0816971 3.02313e-20)
(5.093 0.0911294 -3.90866e-21)
(5.05315 0.101726 -1.9735e-20)
(5.00895 0.113648 -2.3697e-20)
(4.95995 0.12708 -5.77047e-20)
(4.9056 0.142228 0)
(4.84532 0.159333 -2.0986e-20)
(4.77847 0.178666 -2.53365e-20)
(4.70431 0.200539 -4.02095e-21)
(4.62206 0.225306 9.3057e-21)
(4.53084 0.253369 -1.11951e-20)
(4.42972 0.285181 6.45031e-21)
(4.31765 0.321254 0)
(4.19351 0.362159 -1.9071e-20)
(4.05611 0.408529 0)
(3.90418 0.46106 -1.74115e-20)
(3.73635 0.520508 1.58475e-20)
(3.55124 0.587684 -1.48826e-20)
(3.34742 0.66344 2.26518e-20)
(3.12344 0.748649 1.97031e-20)
(2.87788 0.844186 3.94702e-20)
(2.6094 0.950879 0)
(2.31665 1.06947 -5.53678e-21)
(1.99874 1.20042 6.54911e-21)
(1.65337 1.34404 -1.41573e-20)
(1.28091 1.4939 1.69425e-20)
(0.865382 1.5803 -1.01825e-20)
(0.340289 1.16636 -6.27362e-21)
(5.36333 0.0254981 2.54115e-20)
(5.35362 0.0289507 9.49345e-21)
(5.34256 0.0325336 0)
(5.33015 0.0363925 -6.53532e-21)
(5.31628 0.0406192 3.62328e-20)
(5.30084 0.0452736 -3.7752e-20)
(5.28365 0.050416 4.65057e-21)
(5.26457 0.0561153 0)
(5.24338 0.0624538 -3.27744e-21)
(5.21988 0.0695144 3.52537e-21)
(5.19387 0.0773933 -1.72504e-20)
(5.16503 0.0862065 1.53117e-20)
(5.13305 0.0960835 3.12955e-20)
(5.09764 0.10716 0)
(5.0584 0.1196 3.70069e-20)
(5.01492 0.133592 2.26713e-20)
(4.96673 0.14935 2.38782e-20)
(4.91332 0.167117 3.24154e-20)
(4.85412 0.187171 3.93999e-20)
(4.78851 0.209829 2.99642e-20)
(4.7158 0.235453 -3.7805e-21)
(4.63522 0.264454 -3.48767e-20)
(4.54595 0.297299 -4.26359e-22)
(4.44707 0.334515 3.0904e-20)
(4.33761 0.376695 -2.97612e-20)
(4.21651 0.424501 1.81377e-20)
(4.08262 0.478665 -5.58764e-21)
(3.93475 0.539995 6.16141e-21)
(3.77162 0.609365 -1.53217e-20)
(3.59193 0.687712 0)
(3.39434 0.776023 -3.68152e-20)
(3.1775 0.875313 -3.12528e-20)
(2.94009 0.9866 -7.27476e-21)
(2.68084 1.11086 -1.26187e-20)
(2.39849 1.24899 -2.14325e-22)
(2.09222 1.40161 1.7057e-20)
(1.75981 1.56922 1.31793e-20)
(1.40102 1.74418 0)
(0.992674 1.84472 1.70645e-20)
(0.433878 1.35772 5.58228e-21)
(5.36421 0.0293246 -7.27518e-20)
(5.3547 0.0332786 9.0286e-21)
(5.34384 0.0373902 5.42575e-21)
(5.33164 0.0418172 3.30746e-22)
(5.31801 0.0466649 -6.74105e-21)
(5.30281 0.0520033 0)
(5.2859 0.0579013 0)
(5.26712 0.0644371 -4.17093e-20)
(5.24627 0.0717049 -3.02325e-20)
(5.22315 0.0797994 -2.08819e-20)
(5.19756 0.0888297 0)
(5.16921 0.0989285 -1.9962e-20)
(5.13778 0.110243 -4.18708e-20)
(5.10299 0.122929 -7.04687e-21)
(5.06447 0.137172 -3.55375e-20)
(5.0218 0.153187 2.12046e-20)
(4.97455 0.171216 0)
(4.92222 0.191535 -3.13882e-20)
(4.86427 0.21446 -2.38427e-20)
(4.8001 0.24035 5.45609e-21)
(4.72904 0.269615 0)
(4.65039 0.302721 3.7297e-20)
(4.56334 0.340195 3.95508e-22)
(4.46705 0.382632 -5.27003e-20)
(4.36058 0.430703 6.11933e-22)
(4.24295 0.485153 -3.31765e-20)
(4.11308 0.54681 0)
(3.96987 0.616581 0)
(3.81212 0.695454 -2.77243e-20)
(3.63863 0.784484 4.30384e-21)
(3.44816 0.884783 1.50886e-20)
(3.23947 0.997496 0)
(3.01135 1.12378 2.6159e-20)
(2.76263 1.26476 7.22126e-21)
(2.49215 1.42146 1.3259e-20)
(2.1992 1.59466 -1.97094e-20)
(1.88158 1.78504 -1.1531e-20)
(1.53853 1.98364 3.4761e-22)
(1.13824 2.0969 -2.35204e-20)
(0.540501 1.53827 9.88372e-21)
(5.36522 0.0331105 5.16901e-22)
(5.35595 0.0375538 0)
(5.3453 0.042184 -4.00207e-20)
(5.33334 0.0471682 0)
(5.31997 0.052625 5.251e-20)
(5.30506 0.0586343 0)
(5.28845 0.0652731 0)
(5.27001 0.0726289 4.02302e-20)
(5.24955 0.0808068 7.48905e-20)
(5.22685 0.0899134 2.02449e-20)
(5.20175 0.10007 0)
(5.17394 0.111425 3.75898e-20)
(5.14313 0.124144 2.30701e-20)
(5.10905 0.138399 0)
(5.07133 0.154398 0)
(5.02959 0.172381 -2.04063e-20)
(4.9834 0.192618 -2.42363e-20)
(4.93229 0.215414 3.8462e-21)
(4.87574 0.241122 -4.28076e-21)
(4.81318 0.270139 0)
(4.74399 0.302921 -2.53985e-20)
(4.6675 0.339984 0)
(4.58295 0.381912 3.64702e-20)
(4.48956 0.429365 2.23149e-20)
(4.38645 0.483082 1.97911e-20)
(4.27271 0.543887 1.24879e-20)
(4.14735 0.612694 -4.50367e-21)
(4.00934 0.690507 0)
(3.85761 0.778411 8.27932e-22)
(3.69106 0.877572 3.0187e-20)
(3.50854 0.989219 2.23227e-20)
(3.30896 1.11462 -5.11094e-21)
(3.09121 1.25505 -2.48828e-20)
(2.85426 1.41177 -6.38309e-22)
(2.59705 1.58596 0)
(2.31898 1.77849 1.87726e-20)
(2.0179 1.99026 0)
(1.6925 2.21083 -5.00883e-21)
(1.30096 2.33514 6.73128e-21)
(0.659002 1.70634 0)
(5.36636 0.0368499 6.63251e-20)
(5.35734 0.0417693 0)
(5.34694 0.046907 2.87016e-20)
(5.33525 0.0524361 5.44619e-20)
(5.32217 0.0584887 -5.41218e-22)
(5.30757 0.0651542 0)
(5.29131 0.0725174 -3.30543e-20)
(5.27325 0.0806745 0)
(5.25321 0.0897411 -3.85859e-20)
(5.23099 0.0998353 4.30406e-22)
(5.20642 0.11109 -7.23394e-21)
(5.17922 0.123668 -5.22505e-21)
(5.1491 0.137753 5.2801e-21)
(5.11579 0.153533 0)
(5.07897 0.171237 4.15017e-21)
(5.03825 0.191128 3.3446e-20)
(4.99323 0.213501 4.63183e-20)
(4.94347 0.238691 -2.76174e-20)
(4.88847 0.267083 3.32048e-20)
(4.8277 0.299111 0)
(4.76058 0.335272 2.44542e-20)
(4.68647 0.37613 0)
(4.60469 0.422319 -3.50885e-20)
(4.51449 0.474558 2.04137e-20)
(4.41509 0.53365 6.42315e-21)
(4.30563 0.60049 2.2661e-20)
(4.18523 0.676071 0)
(4.05295 0.761479 5.33252e-21)
(3.90784 0.857894 1.87631e-20)
(3.74889 0.966579 -1.09246e-21)
(3.57512 1.08887 -1.69184e-20)
(3.38553 1.22613 -4.95507e-21)
(3.17916 1.37977 5.43608e-21)
(2.95512 1.55116 1.17639e-20)
(2.71246 1.74162 -6.73182e-21)
(2.45075 1.9521 -8.09132e-21)
(2.16782 2.18371 -4.57909e-21)
(1.86183 2.42438 2.06427e-20)
(1.4795 2.55781 -5.86564e-21)
(0.788055 1.86038 0)
(5.36762 0.040537 -6.31631e-20)
(5.35889 0.0459182 7.85639e-21)
(5.34876 0.0515513 -3.65131e-20)
(5.33736 0.0576119 -8.40902e-20)
(5.3246 0.0642456 -4.84958e-20)
(5.31034 0.0715512 -5.50049e-20)
(5.29445 0.0796205 8.63622e-21)
(5.27681 0.0885584 -8.893e-21)
(5.25724 0.0984901 0)
(5.23554 0.109545 0)
(5.21156 0.121866 7.41199e-21)
(5.18502 0.135632 -4.75507e-20)
(5.15566 0.151042 4.62896e-20)
(5.12321 0.168298 0)
(5.08737 0.187651 3.94343e-21)
(5.04777 0.209383 -3.64931e-20)
(5.00403 0.233814 -2.7487e-20)
(4.95574 0.261307 3.35759e-20)
(4.90243 0.292274 -7.52292e-20)
(4.84362 0.327186 4.59296e-21)
(4.77875 0.366577 -5.94494e-21)
(4.70724 0.41105 6.58272e-21)
(4.62846 0.46129 4.24293e-21)
(4.54173 0.518066 -6.26009e-20)
(4.44635 0.582238 -2.27086e-20)
(4.34154 0.654766 0)
(4.22652 0.73671 3.17934e-20)
(4.10045 0.829231 0)
(3.96249 0.933591 -1.61526e-20)
(3.81178 1.05114 -3.31291e-20)
(3.64746 1.1833 0)
(3.46868 1.33154 -4.5251e-21)
(3.27461 1.49737 4.95793e-21)
(3.06453 1.68225 -7.2483e-21)
(2.83762 1.88764 1.3302e-20)
(2.59361 2.11456 2.13039e-20)
(2.3303 2.36432 0)
(2.04525 2.62302 4.37096e-21)
(1.67237 2.76346 -5.07136e-21)
(0.926164 1.999 0)
(5.36901 0.0441657 6.74057e-20)
(5.36059 0.0499936 -7.89316e-21)
(5.35075 0.0561088 -2.59361e-20)
(5.33967 0.0626864 4.05176e-20)
(5.32725 0.0698855 -3.99126e-20)
(5.31337 0.0778136 9.95431e-20)
(5.29789 0.0865694 3.85429e-20)
(5.2807 0.0962655 -8.51685e-21)
(5.26163 0.107037 4.52111e-20)
(5.2405 0.119023 -5.63539e-21)
(5.21716 0.132377 0)
(5.19134 0.147292 0)
(5.16279 0.16398 -7.41977e-20)
(5.13128 0.182661 -1.20064e-20)
(5.09649 0.2036 6.96291e-21)
(5.0581 0.227102 4.51161e-21)
(5.01575 0.253508 -4.62021e-20)
(4.96905 0.283204 2.47051e-20)
(4.91757 0.316631 5.9981e-20)
(4.86086 0.35429 0)
(4.79841 0.396747 -1.55871e-20)
(4.72969 0.444646 1.90808e-20)
(4.65414 0.498711 0)
(4.57115 0.559756 3.69644e-20)
(4.48007 0.628692 7.5168e-22)
(4.38025 0.706534 -2.50584e-20)
(4.27099 0.794401 -3.07099e-20)
(4.15157 0.893519 0)
(4.02126 1.00522 9.34086e-22)
(3.87935 1.13092 0)
(3.72512 1.27212 2.72198e-20)
(3.55787 1.43039 -1.56314e-20)
(3.37694 1.60731 4.68643e-21)
(3.18176 1.80443 -6.52294e-21)
(2.97164 2.02332 0)
(2.74654 2.26504 -1.93884e-20)
(2.50416 2.53112 -1.4073e-20)
(2.24139 2.80559 2.21862e-20)
(1.87789 2.95074 -4.15801e-21)
(1.07167 2.12098 5.63654e-21)
(5.37054 0.0477299 0)
(5.36244 0.0539885 -7.56686e-21)
(5.35291 0.0605718 1.77878e-20)
(5.34217 0.0676509 -9.42864e-21)
(5.33013 0.0753985 4.45687e-20)
(5.31665 0.0839304 -5.77288e-20)
(5.30161 0.0933513 3.60607e-20)
(5.28491 0.103781 0)
(5.26638 0.115364 -3.39419e-20)
(5.24586 0.128251 -4.94678e-20)
(5.2232 0.142602 -1.90753e-20)
(5.19816 0.158623 -7.61302e-21)
(5.17048 0.176542 7.07722e-20)
(5.13997 0.19659 5.51206e-21)
(5.10632 0.21905 -7.12541e-21)
(5.06922 0.244246 7.95721e-21)
(5.02835 0.272536 3.4845e-20)
(4.98335 0.304329 -1.82639e-20)
(4.93382 0.340092 -2.87445e-20)
(4.87935 0.380352 4.41501e-21)
(4.81948 0.425704 1.56602e-20)
(4.75374 0.476824 -2.45171e-20)
(4.68163 0.534473 2.82075e-20)
(4.6026 0.599504 -2.90152e-20)
(4.5161 0.67287 1.04305e-20)
(4.42157 0.75563 5.67864e-22)
(4.3184 0.848955 6.78678e-21)
(4.20601 0.954121 2.77761e-20)
(4.0838 1.07252 2.91646e-20)
(3.95119 1.20562 1.61656e-20)
(3.80761 1.355 -5.11085e-20)
(3.65254 1.52228 9.25654e-22)
(3.48547 1.70913 0)
(3.306 1.91715 -2.409e-20)
(3.1136 2.14803 2.50121e-20)
(2.90846 2.40281 1.75532e-20)
(2.68812 2.68327 5.4241e-21)
(2.44875 2.97109 -1.38329e-20)
(2.09423 3.11849 0)
(1.22276 2.22525 -8.3659e-21)
(5.37219 0.0512232 1.27007e-20)
(5.36445 0.0578959 -7.00375e-20)
(5.35524 0.0649322 6.51881e-20)
(5.34487 0.0724969 0)
(5.33323 0.0807752 0)
(5.32017 0.0898906 -4.83282e-20)
(5.3056 0.0999538 -2.82209e-20)
(5.28941 0.111092 0)
(5.27147 0.123457 0)
(5.2516 0.13721 4.30129e-20)
(5.22967 0.152519 1.87421e-20)
(5.20545 0.169602 7.27554e-21)
(5.17871 0.1887 -4.11955e-20)
(5.14925 0.210056 5.25276e-21)
(5.11681 0.233968 2.57247e-20)
(5.08109 0.260775 -3.0842e-20)
(5.0418 0.290854 0)
(4.99859 0.324634 -2.20933e-20)
(4.95113 0.362602 0)
(4.89903 0.405308 0)
(4.84189 0.453373 4.95787e-21)
(4.77929 0.507502 -5.48557e-21)
(4.7108 0.568482 -2.74133e-20)
(4.63594 0.6372 -2.87009e-21)
(4.55426 0.714644 2.29679e-20)
(4.46527 0.801909 2.26289e-20)
(4.3685 0.900203 3.20277e-20)
(4.26348 1.01085 -3.84288e-20)
(4.14975 1.13527 -4.52376e-21)
(4.02687 1.27499 -3.04376e-20)
(3.89443 1.43164 -4.18907e-21)
(3.75207 1.60687 -1.18355e-20)
(3.59947 1.80242 1.05663e-20)
(3.43642 2.01995 -1.17952e-20)
(3.26252 2.26121 -3.65673e-20)
(3.07821 2.52725 -9.3542e-21)
(2.88085 2.82002 -1.58544e-20)
(2.66564 3.11857 -1.04993e-20)
(2.3194 3.26568 -8.812e-21)
(1.37749 2.3109 1.19279e-20)
(5.37397 0.0546389 -5.90655e-20)
(5.3666 0.0617086 5.47636e-20)
(5.35774 0.0691824 0)
(5.34777 0.0772162 3.53018e-20)
(5.33654 0.0860064 3.51761e-20)
(5.32392 0.0956841 5.28746e-20)
(5.30985 0.106366 -5.32058e-20)
(5.29422 0.118185 0)
(5.27689 0.131301 0)
(5.2577 0.145884 -4.0381e-20)
(5.23655 0.16211 0)
(5.2132 0.180207 2.83381e-20)
(5.18745 0.20043 4.46984e-21)
(5.15911 0.22303 -5.00548e-21)
(5.12794 0.248321 -3.15378e-20)
(5.09367 0.276654 6.65191e-20)
(5.05603 0.308423 4.61405e-21)
(5.01472 0.344073 1.64071e-20)
(4.96943 0.384109 0)
(4.91982 0.4291 0)
(4.86554 0.47969 -4.65953e-21)
(4.80623 0.536602 -1.57215e-20)
(4.74151 0.600651 0)
(4.67102 0.672747 3.04068e-20)
(4.59435 0.753903 -5.21493e-20)
(4.51115 0.845243 0)
(4.42103 0.948 -2.46374e-20)
(4.32367 1.06353 0)
(4.21872 1.19328 0)
(4.10593 1.33881 1.9137e-20)
(3.98502 1.50177 2.72491e-20)
(3.85584 1.68387 -3.98817e-21)
(3.71821 1.88687 -1.72606e-20)
(3.57213 2.11244 1.90684e-20)
(3.41736 2.36243 1.68364e-20)
(3.25458 2.63784 9.03453e-21)
(3.08097 2.94072 9.47584e-21)
(2.8904 3.24736 9.75692e-21)
(2.55122 3.39152 5.9682e-21)
(1.53375 2.37718 5.8099e-21)
(5.37589 0.0579706 4.62064e-20)
(5.3689 0.0654193 0)
(5.36041 0.0733146 0)
(5.35084 0.081801 -3.44989e-20)
(5.34005 0.0910835 -7.83333e-20)
(5.32791 0.101301 0)
(5.31436 0.112575 1.01428e-21)
(5.29931 0.125046 7.64259e-21)
(5.28262 0.13888 -8.27351e-21)
(5.26416 0.154256 8.89771e-22)
(5.24381 0.171357 4.51479e-20)
(5.22138 0.190419 -2.77304e-20)
(5.19667 0.21171 0)
(5.16951 0.235489 5.10607e-21)
(5.13967 0.262081 -5.70624e-21)
(5.10692 0.291851 -5.6316e-20)
(5.07102 0.325206 0)
(5.03169 0.362605 3.94417e-20)
(4.98866 0.404566 -2.34676e-20)
(4.94164 0.451676 2.05013e-20)
(4.89033 0.504593 4.55883e-20)
(4.83444 0.56406 1.55395e-20)
(4.77365 0.630906 2.30468e-20)
(4.70767 0.70606 0)
(4.6362 0.790553 3.33904e-20)
(4.55896 0.885525 1.85223e-20)
(4.47571 0.992227 2.72071e-20)
(4.38623 1.11202 -1.28344e-20)
(4.29034 1.24639 -7.03098e-21)
(4.18791 1.3969 -2.04977e-20)
(4.07886 1.56521 -1.84232e-20)
(3.96318 1.75304 4.79441e-20)
(3.8409 1.96219 1.71319e-20)
(3.71221 2.19432 -1.85836e-20)
(3.57704 2.45132 3.37239e-21)
(3.43632 2.73416 -3.66147e-21)
(3.28701 3.04491 3.43138e-21)
(3.12132 3.35692 -3.75789e-21)
(2.78744 3.49534 -7.83186e-21)
(1.68932 2.42349 1.24757e-21)
(5.37795 0.061214 -3.24875e-20)
(5.37134 0.0690194 -1.23378e-20)
(5.36324 0.0773214 0)
(5.3541 0.0862438 0)
(5.34376 0.0959982 7.229e-22)
(5.33212 0.106732 -4.2715e-20)
(5.31911 0.118572 7.42349e-21)
(5.30466 0.131665 2.11659e-20)
(5.28865 0.146183 -2.80158e-20)
(5.27095 0.162313 3.33686e-20)
(5.25146 0.180243 -1.12213e-21)
(5.22998 0.200219 0)
(5.20635 0.222518 0)
(5.18041 0.247407 0)
(5.15197 0.275221 0)
(5.1208 0.306337 2.71483e-20)
(5.0867 0.34117 0)
(5.04942 0.380192 -4.35171e-20)
(5.00874 0.423932 2.84231e-20)
(4.96441 0.472989 -2.03409e-20)
(4.91618 0.528033 -3.58986e-20)
(4.86381 0.589817 1.85659e-20)
(4.80707 0.659183 -1.20968e-20)
(4.74573 0.737069 3.81143e-20)
(4.67959 0.824515 -3.67256e-20)
(4.60848 0.922668 -1.81021e-20)
(4.53227 1.03279 -2.10148e-20)
(4.45085 1.15624 0)
(4.3642 1.29449 1.39074e-20)
(4.27234 1.44913 3.04099e-20)
(4.17536 1.62181 1.35265e-20)
(4.07343 1.81423 -3.31825e-20)
(3.96675 2.02821 -1.09337e-20)
(3.85573 2.26537 1.95114e-20)
(3.74046 2.52766 2.96677e-21)
(3.62214 2.81594 2.81352e-21)
(3.49742 3.13227 -8.207e-21)
(3.35657 3.44685 0)
(3.02576 3.57664 1.00352e-21)
(1.84186 2.44943 -4.60969e-21)
(5.38017 0.0643668 3.23942e-20)
(5.37392 0.0725022 -6.2191e-21)
(5.36623 0.0811955 -4.81419e-20)
(5.35754 0.0905382 0)
(5.34767 0.100743 4.58949e-20)
(5.33653 0.111969 -1.45731e-20)
(5.3241 0.124347 5.99877e-20)
(5.31028 0.13803 -4.12481e-20)
(5.29498 0.153195 3.5234e-20)
(5.27806 0.170039 -3.10574e-20)
(5.25945 0.188752 -4.23732e-20)
(5.23898 0.209588 0)
(5.21647 0.232834 0)
(5.1918 0.258763 0)
(5.1648 0.287718 -2.08947e-20)
(5.13527 0.320084 -2.48711e-20)
(5.10302 0.356285 3.34674e-20)
(5.06787 0.396801 -3.94262e-20)
(5.02961 0.442171 -2.07818e-20)
(4.98804 0.493 6.50354e-21)
(4.94297 0.549965 -4.00088e-20)
(4.89422 0.613827 -1.81647e-20)
(4.84162 0.68543 -1.60533e-20)
(4.78503 0.765717 -3.08318e-20)
(4.72434 0.855727 6.62726e-20)
(4.65947 0.956605 -3.95269e-21)
(4.59041 1.0696 -4.77575e-21)
(4.51718 1.19608 2.5805e-20)
(4.4399 1.3375 -1.16376e-20)
(4.35874 1.49541 -1.77159e-20)
(4.27396 1.67147 2.20025e-20)
(4.1859 1.86733 1.34351e-20)
(4.09497 2.0848 0)
(4.00175 2.32547 -1.01618e-20)
(3.90651 2.5913 0)
(3.81071 2.88301 0)
(3.71063 3.20264 8.79918e-21)
(3.59426 3.51691 0)
(3.26374 3.63516 0)
(1.98891 2.45479 0)
(5.38259 0.0673727 -5.07521e-20)
(5.37664 0.075865 0)
(5.36938 0.0849335 1.06838e-19)
(5.36116 0.0946767 -6.03299e-20)
(5.35176 0.105311 0)
(5.34116 0.117003 4.54552e-20)
(5.32931 0.12989 -5.5716e-21)
(5.31615 0.144131 6.74138e-21)
(5.30157 0.159907 -7.30522e-21)
(5.28547 0.177422 6.876e-20)
(5.26778 0.19687 -3.93702e-20)
(5.24833 0.218512 0)
(5.22699 0.242642 -2.79686e-20)
(5.20363 0.269537 4.38522e-21)
(5.17812 0.299549 3.54364e-20)
(5.15027 0.333069 4.17468e-20)
(5.11995 0.370526 -2.21252e-20)
(5.08697 0.412406 3.88221e-20)
(5.05119 0.459252 -3.95758e-21)
(5.01245 0.511675 6.09207e-21)
(4.97061 0.570354 2.16956e-20)
(4.92555 0.63605 0)
(4.87717 0.709606 2.3422e-20)
(4.82541 0.79196 -2.69419e-20)
(4.77024 0.884143 -2.65907e-20)
(4.71169 0.98729 -3.80051e-21)
(4.64985 1.10263 4.17458e-21)
(4.58489 1.23151 -2.01674e-20)
(4.51704 1.37536 1.14093e-20)
(4.44663 1.5357 -1.46105e-20)
(4.37408 1.71414 -1.07989e-20)
(4.29993 1.9123 1.71236e-20)
(4.22474 2.13195 -1.09841e-20)
(4.14932 2.3746 0)
(4.07408 2.64222 5.17239e-21)
(4.00074 2.93535 1.96033e-21)
(3.92508 3.25602 -4.94277e-21)
(3.83244 3.56705 1.37398e-21)
(3.49888 3.67083 -1.89258e-22)
(2.12794 2.43957 -1.15925e-21)
(5.38504 0.0703208 3.9922e-20)
(5.37951 0.0790626 -5.78092e-21)
(5.37273 0.088529 -4.573e-20)
(5.36495 0.0986552 1.29921e-21)
(5.35603 0.109696 0)
(5.34597 0.121828 -3.78749e-20)
(5.33474 0.135194 0)
(5.32225 0.149958 -6.46471e-21)
(5.30843 0.166306 7.00732e-21)
(5.29316 0.184449 -3.76553e-20)
(5.27642 0.204584 4.34267e-20)
(5.25803 0.226975 0)
(5.23788 0.251925 5.41283e-20)
(5.21588 0.279713 0)
(5.19189 0.310697 -7.37118e-22)
(5.16578 0.345271 -2.90108e-20)
(5.13741 0.38387 6.52977e-21)
(5.10666 0.426981 3.10509e-20)
(5.07341 0.47515 8.9944e-22)
(5.03756 0.528988 0)
(4.999 0.589171 0)
(4.95769 0.656457 3.90108e-21)
(4.91358 0.731681 -1.79694e-20)
(4.8667 0.815769 2.14147e-20)
(4.81709 0.909737 1.7025e-20)
(4.7649 1.0147 0)
(4.71032 1.13185 0)
(4.65363 1.26251 0)
(4.5952 1.40807 1.85024e-20)
(4.53553 1.56999 8.66938e-21)
(4.47517 1.74983 5.79975e-21)
(4.41484 1.94917 -7.96439e-21)
(4.35528 2.16968 1.31719e-21)
(4.29748 2.4128 3.32895e-21)
(4.24204 2.68051 -6.83834e-21)
(4.19091 2.97306 0)
(4.13921 3.29253 0)
(4.0692 3.59739 0)
(3.72858 3.68382 1.0963e-21)
(2.25627 2.40399 -1.95061e-22)
(5.38765 0.0738147 -3.77947e-20)
(5.38221 0.0822258 0)
(5.37619 0.0919714 -6.3559e-21)
(5.3689 0.102466 7.14179e-20)
(5.36048 0.113891 3.85752e-22)
(5.35098 0.126435 2.83301e-20)
(5.34036 0.140249 -3.61493e-20)
(5.32857 0.155502 -5.88081e-21)
(5.31552 0.172383 -2.71284e-20)
(5.30112 0.191111 -3.10066e-20)
(5.28535 0.211882 0)
(5.26805 0.234964 1.56866e-20)
(5.24913 0.260669 -1.99559e-20)
(5.22851 0.289275 -2.60099e-20)
(5.20608 0.321143 -4.06202e-20)
(5.18173 0.356672 0)
(5.15536 0.396298 2.47417e-20)
(5.12688 0.440507 -3.44451e-20)
(5.0962 0.489845 5.18367e-21)
(5.06327 0.544917 0)
(5.02804 0.606396 0)
(4.9905 0.675029 -1.36175e-20)
(4.9507 0.751637 0)
(4.90872 0.837128 -1.81608e-20)
(4.8647 0.932495 -2.24606e-20)
(4.81886 1.03882 1.1808e-20)
(4.77152 1.15726 -1.32946e-20)
(4.72307 1.28909 -3.91867e-21)
(4.67401 1.43564 -1.39163e-20)
(4.62496 1.59832 -2.31715e-21)
(4.57666 1.77862 2.52807e-21)
(4.52997 1.97801 -1.3788e-20)
(4.4858 2.19812 6.02985e-21)
(4.44533 2.44024 2.64653e-21)
(4.40931 2.70636 3.56482e-21)
(4.37994 2.9964 5.45308e-22)
(4.3515 3.31249 -5.80481e-22)
(4.30257 3.60824 -8.58026e-24)
(3.95025 3.67457 0)
(2.37111 2.34847 -1.56769e-21)
(5.39025 0.0768639 3.72987e-20)
(5.38515 0.0854043 5.37757e-21)
(5.37972 0.0953189 -5.86832e-21)
(5.37298 0.106118 0)
(5.36508 0.117892 0)
(5.35616 0.130819 3.49782e-20)
(5.34618 0.145049 4.62549e-20)
(5.3351 0.160755 -1.15864e-20)
(5.32284 0.17813 3.66432e-20)
(5.30933 0.197398 5.65974e-20)
(5.29454 0.218753 -3.41753e-20)
(5.27836 0.242469 -4.65741e-20)
(5.26069 0.268861 -2.11754e-20)
(5.24148 0.298209 4.73621e-21)
(5.22064 0.330876 -3.66275e-21)
(5.19809 0.36726 1.01386e-20)
(5.17375 0.407796 -6.9791e-21)
(5.14756 0.452969 3.60909e-21)
(5.11949 0.503321 2.88568e-20)
(5.0895 0.559449 -4.94008e-21)
(5.05762 0.622016 8.34188e-21)
(5.02388 0.691754 6.92659e-21)