/*--------------------------------*- C++ -*----------------------------------*\
  =========                 |
  \\      /  F ield         | OpenFOAM: The Open Source CFD Toolbox
   \\    /   O peration     | Website:  https://openfoam.org
    \\  /    A nd           | Version:  9
     \\/     M anipulation  |
\*---------------------------------------------------------------------------*/
FoamFile
{
    format      ascii;
    class       volVectorField;
    location    "280";
    object      wallShearStress;
}
// * * * * * * * * * * * * * * * * * * * * * * * * * * * * * * * * * * * * * //

dimensions      [0 2 -2 0 0 0 0];

internalField   uniform (0 0 0);

boundaryField
{
    above
    {
        type            calculated;
        value           uniform (0 0 0);
    }
    top
    {
        type            calculated;
        value           uniform (0 0 0);
    }
    inlet
    {
        type            calculated;
        value           uniform (0 0 0);
    }
    outlet
    {
        type            calculated;
        value           uniform (0 0 0);
    }
    plate
    {
        type            calculated;
        value           nonuniform List<vector> 
340
(
(-0.185656 -0.079906 5.87747e-39)
(-0.179988 -0.229379 -6.99416e-21)
(-0.197385 -0.370431 6.34867e-21)
(-0.229298 -0.512845 1.69325e-20)
(-0.271858 -0.653147 -1.02582e-20)
(-0.324031 -0.789004 4.4865e-21)
(-0.385248 -0.918961 -3.99494e-21)
(-0.454868 -1.04182 -7.07909e-21)
(-0.532151 -1.15646 -2.82119e-37)
(-0.616249 -1.26186 -3.17016e-38)
(-0.706199 -1.35711 0)
(-0.800921 -1.4414 -4.32548e-21)
(-0.899225 -1.51404 6.18072e-21)
(-0.999818 -1.57442 -8.66535e-21)
(-1.1013 -1.62205 -4.41678e-21)
(-1.20219 -1.65656 -1.00737e-21)
(-1.30092 -1.67766 3.25778e-21)
(-1.39588 -1.68525 4.70198e-38)
(-1.48534 -1.67934 7.31952e-22)
(-1.56752 -1.66011 -2.91956e-22)
(-1.64059 -1.62787 1.07893e-21)
(-1.70259 -1.58338 2.35099e-38)
(-1.75102 -1.52672 1.88079e-37)
(-1.78437 -1.4581 5.19093e-21)
(-1.80191 -1.37829 -8.38307e-21)
(-1.80291 -1.28852 6.70829e-21)
(-1.7866 -1.19055 -7.2051e-21)
(-1.7523 -1.08633 4.01281e-21)
(-1.69966 -0.977927 -3.76158e-37)
(-1.62886 -0.867434 -9.47683e-21)
(-1.54061 -0.756961 1.01685e-20)
(-1.43628 -0.648596 -1.64568e-20)
(-1.31785 -0.544359 1.76983e-20)
(-1.18795 -0.446163 -3.1887e-22)
(-1.0498 -0.355755 -1.00579e-20)
(-0.907125 -0.274663 3.64036e-21)
(-0.763983 -0.204154 -3.64457e-21)
(-0.624488 -0.145196 1.98056e-21)
(-0.492718 -0.0985966 1.06902e-21)
(-0.371021 -0.0638788 5.50511e-22)
(-0.270004 -0.0363253 0)
(-0.195765 -0.0172735 0)
(-0.140543 -0.00816225 0)
(-0.0989392 -0.00463061 0)
(-0.0669453 -0.00345118 0)
(-0.0417237 -0.00287953 0)
(-0.0214733 -0.00220843 0)
(-0.00516891 -0.00133248 0)
(0.00780512 -0.000423679 0)
(0.0179639 0.000310095 0)
(0.0258537 0.000773988 0)
(0.0320044 0.00100322 0)
(0.0368291 0.00109768 0)
(0.0405911 0.00114624 0)
(0.0434329 0.00119276 0)
(0.0454382 0.00123989 0)
(0.0466848 0.00127288 0)
(0.0472636 0.00128057 0)
(0.047271 0.00126417 0)
(0.0467873 0.00123365 0)
(0.0458648 0.00120011 0)
(0.0445299 0.0011705 0)
(0.0427931 0.00114619 0)
(0.0406617 0.00112514 0)
(0.0381461 0.0011057 0)
(0.0352529 0.00108795 0)
(0.0319867 0.00107232 0)
(0.0283448 0.00105991 0)
(0.0243174 0.00105057 0)
(0.019898 0.00104205 0)
(0.0150842 0.00103416 0)
(0.00987153 0.00102675 0)
(0.00426346 0.00101731 0)
(-0.00172467 0.00100459 0)
(-0.0080783 0.000989432 0)
(-0.0147779 0.00097037 0)
(-0.0217844 0.000945421 0)
(-0.0290464 0.000914638 0)
(-0.0365057 0.000877909 0)
(-0.044092 0.000834773 0)
(-0.051721 0.000785257 0)
(-0.0592991 0.000729925 0)
(-0.0667276 0.000669743 0)
(-0.0739072 0.000606047 0)
(-0.080743 0.000540394 0)
(-0.0871492 0.000474417 0)
(-0.093053 0.000409717 0)
(-0.0983976 0.000347733 0)
(-0.103144 0.000289669 0)
(-0.107271 0.000236477 0)
(-0.110778 0.00018882 0)
(-0.113676 0.000146791 0)
(-0.11599 0.000110239 0)
(-0.11775 7.91096e-05 0)
(-0.119 5.31332e-05 0)
(-0.119786 3.18373e-05 0)
(-0.120158 1.46546e-05 0)
(-0.120162 9.83382e-07 0)
(-0.119844 -9.69295e-06 0)
(-0.119246 -1.78332e-05 0)
(-0.118408 -2.39223e-05 0)
(-0.117363 -2.83501e-05 0)
(-0.116143 -3.14144e-05 0)
(-0.114776 -3.33832e-05 0)
(-0.113284 -3.448e-05 0)
(-0.111692 -3.48658e-05 0)
(-0.110018 -3.47137e-05 0)
(-0.108278 -3.41815e-05 0)
(-0.106486 -3.33564e-05 0)
(-0.104654 -3.23165e-05 0)
(-0.102792 -3.11112e-05 0)
(-0.10091 -2.97866e-05 0)
(-0.0990154 -2.84061e-05 0)
(-0.0971155 -2.69978e-05 0)
(-0.0952157 -2.55844e-05 0)
(-0.09332 -2.41945e-05 0)
(-0.0914321 -2.28313e-05 0)
(-0.089556 -2.15019e-05 0)
(-0.0876947 -2.01922e-05 0)
(-0.0858561 -1.88835e-05 0)
(-0.0840922 -1.76844e-05 0)
(-0.0824279 -1.66278e-05 0)
(-0.0808433 -1.56386e-05 0)
(-0.0793345 -1.47244e-05 0)
(-0.0778951 -1.3892e-05 0)
(-0.0765191 -1.31323e-05 0)
(-0.075201 -1.24362e-05 0)
(-0.0739365 -1.17964e-05 0)
(-0.0727212 -1.12067e-05 0)
(-0.0715517 -1.06616e-05 0)
(-0.0704245 -1.01568e-05 0)
(-0.0693367 -9.68812e-06 0)
(-0.0682856 -9.25147e-06 0)
(-0.067269 -8.84309e-06 0)
(-0.0662848 -8.4594e-06 0)
(-0.0653314 -8.09769e-06 0)
(-0.0644071 -7.756e-06 0)
(-0.0635105 -7.43304e-06 0)
(-0.0626403 -7.12783e-06 0)
(-0.0617952 -6.83915e-06 0)
(-0.060974 -6.56814e-06 0)
(-0.060175 -6.31472e-06 0)
(-0.0593969 -6.07484e-06 0)
(-0.0586389 -5.84527e-06 0)
(-0.0579004 -5.62531e-06 0)
(-0.0571808 -5.4147e-06 0)
(-0.0564794 -5.21324e-06 0)
(-0.0557956 -5.02047e-06 0)
(-0.0551287 -4.83639e-06 0)
(-0.0544781 -4.66087e-06 0)
(-0.0538431 -4.49408e-06 0)
(-0.053223 -4.33572e-06 0)
(-0.052617 -4.1856e-06 0)
(-0.0520245 -4.04304e-06 0)
(-0.0514449 -3.90739e-06 0)
(-0.0508775 -3.77742e-06 0)
(-0.0503221 -3.65256e-06 0)
(-0.0497783 -3.53215e-06 0)
(-0.0492459 -3.41581e-06 0)
(-0.0487245 -3.30328e-06 0)
(-0.048214 -3.19451e-06 0)
(-0.047714 -3.08982e-06 0)
(-0.0472243 -2.98923e-06 0)
(-0.0467446 -2.89203e-06 0)
(-0.0462746 -2.7991e-06 0)
(-0.0458137 -2.71197e-06 0)
(-0.0453613 -2.63031e-06 0)
(-0.0449168 -2.55275e-06 0)
(-0.0444799 -2.47809e-06 0)
(-0.0440505 -2.40555e-06 0)
(-0.0436284 -2.33474e-06 0)
(-0.0432137 -2.26543e-06 0)
(-0.0428063 -2.19754e-06 0)
(-0.0424062 -2.13086e-06 0)
(-0.0420135 -2.0656e-06 0)
(-0.0416281 -2.00152e-06 0)
(-0.0412499 -1.93872e-06 0)
(-0.0408792 -1.8767e-06 0)
(-0.0405158 -1.81536e-06 0)
(-0.0401601 -1.75454e-06 0)
(-0.039812 -1.69342e-06 0)
(-0.0394723 -1.63168e-06 0)
(-0.0391405 -1.57418e-06 0)
(-0.0388172 -1.50212e-06 0)
(-0.0385056 -1.43446e-06 0)
(-0.038203 -1.38804e-06 0)
(-0.0379047 -1.35572e-06 0)
(-0.0376083 -1.33233e-06 0)
(-0.0373144 -1.29903e-06 0)
(-0.0370266 -1.24631e-06 0)
(-0.0367507 -1.16519e-06 0)
(-0.0364941 -1.05656e-06 0)
(-0.0362624 -9.30446e-07 0)
(-0.0360595 -7.86847e-07 0)
(-0.0358909 -6.25827e-07 0)
(-0.0357606 -4.59122e-07 0)
(-0.0356686 -3.0467e-07 0)
(-0.0356112 -1.73918e-07 0)
(-0.0355819 -7.34768e-08 0)
(-0.035574 1.80248e-09 0)
(-0.0355825 6.00866e-08 0)
(-0.0356053 1.14035e-07 0)
(-0.035643 1.70725e-07 0)
(-0.0356973 2.35274e-07 0)
(-0.0357711 3.06916e-07 0)
(-0.0358667 3.86339e-07 0)
(-0.0359864 4.71751e-07 0)
(-0.0361327 5.58486e-07 0)
(-0.0363047 6.48143e-07 0)
(-0.036507 7.5216e-07 0)
(-0.0367429 8.36857e-07 0)
(-0.0369993 8.7811e-07 0)
(-0.0372685 9.30826e-07 0)
(-0.0375664 1.05675e-06 0)
(-0.0379216 1.25885e-06 0)
(-0.038355 1.52709e-06 0)
(-0.0388864 1.80175e-06 0)
(-0.0395038 1.99249e-06 0)
(-0.0401686 2.10316e-06 0)
(-0.0408777 2.26174e-06 0)
(-0.0416682 2.52795e-06 0)
(-0.0425733 2.76294e-06 0)
(-0.0435358 2.81002e-06 0)
(-0.0444926 2.76264e-06 0)
(-0.0454522 2.75311e-06 0)
(-0.0464283 2.74798e-06 0)
(-0.0474058 2.58104e-06 0)
(-0.0482807 2.31392e-06 0)
(-0.049094 2.25761e-06 0)
(-0.0499547 2.39279e-06 0)
(-0.0508923 2.52257e-06 0)
(-0.0518666 2.39353e-06 0)
(-0.0527259 2.25504e-06 0)
(-0.0536191 2.44176e-06 0)
(-0.0546563 2.69527e-06 0)
(-0.0557754 2.67647e-06 0)
(-0.0568694 2.51724e-06 0)
(-0.0577646 2.51441e-06 0)
(-0.0587675 2.30305e-06 0)
(-0.0599406 2.66554e-06 0)
(-0.0610794 2.41106e-06 0)
(-0.0620469 1.70938e-06 0)
(-0.0627511 1.95912e-06 0)
(-0.063562 1.90436e-06 0)
(-0.0644357 1.83559e-06 0)
(-0.0651933 1.47008e-06 0)
(-0.0657639 1.06434e-06 0)
(-0.0661695 7.41666e-07 0)
(-0.0664557 5.14267e-07 0)
(-0.0666589 3.60359e-07 0)
(-0.0668022 2.44794e-07 0)
(-0.0668996 1.6052e-07 0)
(-0.0669601 8.97276e-08 0)
(-0.0669901 3.4085e-08 0)
(-0.0669945 -1.38153e-08 0)
(-0.0669771 -5.08533e-08 0)
(-0.066941 -8.42573e-08 0)
(-0.0668888 -1.11112e-07 0)
(-0.0668227 -1.34783e-07 0)
(-0.0667445 -1.49631e-07 0)
(-0.0666556 -1.73174e-07 0)
(-0.0665575 -1.81417e-07 0)
(-0.0664511 -1.96677e-07 0)
(-0.0663374 -2.03673e-07 0)
(-0.0662172 -2.13206e-07 0)
(-0.0660914 -2.18598e-07 0)
(-0.0659607 -2.23647e-07 0)
(-0.0658257 -2.2764e-07 0)
(-0.0656866 -2.32151e-07 0)
(-0.0655431 -2.36164e-07 0)
(-0.0653953 -2.39543e-07 0)
(-0.0652438 -2.42163e-07 0)
(-0.0650893 -2.42734e-07 0)
(-0.0649323 -2.44297e-07 0)
(-0.0647731 -2.44059e-07 0)
(-0.0646111 -2.44708e-07 0)
(-0.0644472 -2.43967e-07 0)
(-0.0642821 -2.42262e-07 0)
(-0.0641165 -2.39795e-07 0)
(-0.0639506 -2.37141e-07 0)
(-0.0637888 -2.34813e-07 0)
(-0.0636298 -2.32554e-07 0)
(-0.0634686 -2.29945e-07 0)
(-0.0633058 -2.26568e-07 0)
(-0.0631416 -2.23275e-07 0)
(-0.062976 -2.20023e-07 0)
(-0.0628088 -2.17039e-07 0)
(-0.0626401 -2.13535e-07 0)
(-0.0624702 -2.10229e-07 0)
(-0.0622989 -2.08201e-07 0)
(-0.0621265 -2.02055e-07 0)
(-0.0619528 -2.0181e-07 0)
(-0.0617782 -1.95012e-07 0)
(-0.0616028 -1.94615e-07 0)
(-0.0614268 -1.87173e-07 0)
(-0.0612497 -1.87907e-07 0)
(-0.0610721 -1.79577e-07 0)
(-0.0608941 -1.78144e-07 0)
(-0.0607156 -1.73885e-07 0)
(-0.0605365 -1.711e-07 0)
(-0.0603568 -1.67108e-07 0)
(-0.0601765 -1.64092e-07 0)
(-0.059996 -1.59657e-07 0)
(-0.0598155 -1.56778e-07 0)
(-0.0596346 -1.5263e-07 0)
(-0.0594533 -1.50228e-07 0)
(-0.0592716 -1.49465e-07 0)
(-0.0590899 -1.40421e-07 0)
(-0.0589082 -1.42754e-07 0)
(-0.0587266 -1.3332e-07 0)
(-0.0585446 -1.35725e-07 0)
(-0.0583625 -1.26907e-07 0)
(-0.0581804 -1.28653e-07 0)
(-0.0579986 -1.20169e-07 0)
(-0.0578169 -1.21175e-07 0)
(-0.0576351 -1.18482e-07 0)
(-0.0574534 -1.15484e-07 0)
(-0.0572719 -1.12263e-07 0)
(-0.0570909 -1.09431e-07 0)
(-0.0569101 -1.06612e-07 0)
(-0.0567295 -1.04345e-07 0)
(-0.0565492 -1.01556e-07 0)
(-0.0563693 -9.8997e-08 0)
(-0.0561899 -9.55702e-08 0)
(-0.056011 -9.3789e-08 0)
(-0.0558325 -8.9855e-08 0)
(-0.0556542 -9.06282e-08 0)
(-0.0554768 -8.36219e-08 0)
(-0.0552996 -8.77837e-08 0)
(-0.0551232 -7.86523e-08 0)
(-0.0549469 -8.41537e-08 0)
(-0.0547713 -7.86734e-08 0)
(-0.0545961 -7.63846e-08 0)
(-0.0544209 -7.4773e-08 0)
(-0.054247 -7.34015e-08 0)
(-0.0540687 -7.08118e-08 0)
(-0.0539037 -7.46049e-08 0)
(-0.0536904 -5.93224e-08 0)
(-0.053615 -7.10496e-08 0)
(-0.0532829 -7.412e-08 0)
)
;
    }
    defaultFaces
    {
        type            empty;
    }
}


// ************************************************************************* //
