/*--------------------------------*- C++ -*----------------------------------*\
  =========                 |
  \\      /  F ield         | OpenFOAM: The Open Source CFD Toolbox
   \\    /   O peration     | Website:  https://openfoam.org
    \\  /    A nd           | Version:  9
     \\/     M anipulation  |
\*---------------------------------------------------------------------------*/
FoamFile
{
    format      ascii;
    class       volVectorField;
    location    "41";
    object      ddt0(hU);
}
// * * * * * * * * * * * * * * * * * * * * * * * * * * * * * * * * * * * * * //

dimensions      [0 2 -2 0 0 0 0];

internalField   nonuniform List<vector> 
400
(
(8.26552e-09 4.94266e-09 0)
(-1.93245e-08 1.05805e-08 0)
(-3.71549e-08 4.2235e-09 0)
(-2.22568e-08 -2.9352e-09 0)
(-9.37375e-09 -4.02917e-09 0)
(-8.1246e-09 5.29657e-09 0)
(-1.1047e-08 1.14259e-08 0)
(-1.14034e-08 8.88283e-09 0)
(-5.22821e-09 2.59462e-09 0)
(1.08251e-08 -4.51383e-09 0)
(1.89798e-08 -4.10491e-09 0)
(1.36826e-08 4.6559e-09 0)
(-4.79189e-10 6.06048e-09 0)
(-1.47916e-08 4.06299e-09 0)
(-6.75055e-09 -2.1585e-09 0)
(1.70503e-08 -5.35134e-09 0)
(4.03442e-08 5.91802e-10 0)
(4.53013e-08 7.68748e-09 0)
(3.77285e-08 7.66467e-09 0)
(4.84833e-08 1.92031e-09 0)
(8.85915e-09 1.21687e-08 0)
(-1.69843e-08 2.77423e-08 0)
(-3.381e-08 1.41133e-08 0)
(-2.21706e-08 -6.53371e-09 0)
(-1.12041e-08 -8.89361e-09 0)
(-8.87481e-09 1.5505e-08 0)
(-9.86878e-09 3.01712e-08 0)
(-1.06066e-08 2.65807e-08 0)
(-6.43833e-09 8.20014e-09 0)
(4.19183e-09 -4.90635e-09 0)
(1.88832e-08 -8.42834e-09 0)
(1.00087e-08 9.95411e-09 0)
(-7.94294e-10 1.66026e-08 0)
(-9.66187e-09 7.39886e-09 0)
(-5.79242e-09 -8.62963e-09 0)
(1.53687e-08 -1.95757e-08 0)
(3.65911e-08 -3.40858e-09 0)
(4.16908e-08 2.95e-08 0)
(3.79276e-08 2.57938e-08 0)
(4.48496e-08 9.15392e-10 0)
(8.52886e-09 1.991e-08 0)
(-1.2536e-08 4.07765e-08 0)
(-2.83335e-08 1.80371e-08 0)
(-2.21178e-08 -1.40887e-08 0)
(-1.35203e-08 -8.31905e-09 0)
(-1.02548e-08 2.81055e-08 0)
(-7.15807e-09 4.7515e-08 0)
(-1.15772e-08 4.35742e-08 0)
(-4.58851e-09 1.3244e-08 0)
(-3.0556e-09 -2.97839e-09 0)
(7.36585e-09 -5.53915e-09 0)
(6.79376e-09 1.014e-08 0)
(-6.95428e-09 2.83367e-08 0)
(-7.59332e-09 9.23442e-09 0)
(-5.50398e-09 -1.70289e-08 0)
(1.28129e-08 -2.98702e-08 0)
(4.17515e-08 -8.18944e-09 0)
(4.34615e-08 3.27088e-08 0)
(2.50762e-08 2.96739e-08 0)
(2.97894e-08 8.05199e-10 0)
(6.4682e-09 2.95081e-08 0)
(-1.19456e-08 4.93452e-08 0)
(-2.41614e-08 1.60208e-08 0)
(-1.82706e-08 -2.00964e-08 0)
(-1.21186e-08 -3.85719e-09 0)
(-9.29646e-09 3.86111e-08 0)
(-7.96128e-09 6.57088e-08 0)
(-1.02191e-08 5.37591e-08 0)
(-1.12957e-08 2.67738e-08 0)
(8.26927e-10 -1.25602e-08 0)
(-1.20546e-08 3.82669e-09 0)
(5.06285e-09 1.69204e-08 0)
(-6.13377e-09 2.9658e-08 0)
(-1.37556e-08 1.48943e-08 0)
(-2.50915e-09 -2.3363e-08 0)
(1.03202e-08 -4.0649e-08 0)
(2.62492e-08 -1.10321e-08 0)
(3.57342e-08 3.99091e-08 0)
(3.67639e-08 3.49091e-08 0)
(3.38321e-08 -9.89475e-10 0)
(1.57548e-09 3.42687e-08 0)
(-1.33208e-08 5.17943e-08 0)
(-1.70777e-08 1.66203e-08 0)
(-1.19363e-08 -1.67217e-08 0)
(-1.18523e-08 -4.99582e-10 0)
(-1.07516e-08 4.50196e-08 0)
(-1.05414e-08 7.49914e-08 0)
(-4.5774e-09 6.56073e-08 0)
(-1.8422e-08 2.71583e-08 0)
(-6.81365e-09 -7.36447e-10 0)
(5.45878e-09 -1.00132e-08 0)
(-2.94821e-08 3.27079e-08 0)
(-1.58237e-09 2.75721e-08 0)
(-5.41412e-09 1.09411e-08 0)
(-1.04946e-08 -1.95059e-08 0)
(7.47162e-09 -4.00728e-08 0)
(3.0733e-08 -1.20552e-08 0)
(3.82585e-08 4.30332e-08 0)
(2.92714e-08 3.55362e-08 0)
(2.65785e-08 -4.22588e-09 0)
(-3.06161e-09 3.26183e-08 0)
(-1.38948e-08 5.0066e-08 0)
(-8.35925e-09 1.89235e-08 0)
(-5.66036e-09 -1.22472e-08 0)
(-1.1596e-08 4.25788e-10 0)
(-1.49192e-08 4.58795e-08 0)
(-7.27949e-09 7.84246e-08 0)
(-1.54296e-08 7.01518e-08 0)
(1.40959e-10 1.91646e-08 0)
(-4.02288e-08 2.54854e-08 0)
(2.40663e-09 -2.31751e-08 0)
(-1.72958e-08 2.45996e-08 0)
(-3.60385e-08 5.23766e-08 0)
(8.53177e-09 1.01659e-08 0)
(9.41244e-09 -2.54601e-08 0)
(1.41164e-09 -3.82106e-08 0)
(8.47738e-09 -9.55847e-09 0)
(2.5795e-08 3.43874e-08 0)
(3.96769e-08 2.86065e-08 0)
(3.58109e-08 -3.41491e-09 0)
(-5.50766e-09 2.70632e-08 0)
(-1.18449e-08 4.43246e-08 0)
(8.22058e-10 1.97433e-08 0)
(-4.24729e-10 -9.31757e-09 0)
(-1.43554e-08 -6.29645e-10 0)
(-1.59122e-08 4.24419e-08 0)
(-1.21171e-08 7.29906e-08 0)
(-8.79411e-09 5.82284e-08 0)
(-9.95617e-09 3.68241e-08 0)
(-1.55248e-08 -4.09686e-09 0)
(-6.79799e-08 1.25913e-08 0)
(3.39584e-08 -1.75897e-08 0)
(-2.05514e-08 3.42856e-08 0)
(-2.82684e-08 1.91801e-08 0)
(7.70624e-09 -2.82135e-08 0)
(1.18591e-08 -4.47772e-08 0)
(-4.38683e-09 -1.32728e-08 0)
(1.63485e-08 3.94089e-08 0)
(3.67965e-08 3.25878e-08 0)
(3.8452e-08 -1.87568e-09 0)
(-6.19792e-09 2.03191e-08 0)
(-8.20985e-09 3.48778e-08 0)
(8.41021e-09 1.71136e-08 0)
(2.31432e-09 -7.89013e-09 0)
(-1.49621e-08 -2.41207e-09 0)
(-2.02108e-08 3.52285e-08 0)
(-1.17563e-08 5.95881e-08 0)
(-5.83251e-09 5.12047e-08 0)
(-1.9215e-08 3.29045e-08 0)
(8.05362e-09 1.75603e-09 0)
(-5.50929e-07 2.13237e-08 0)
(-4.41634e-08 4.97257e-08 0)
(2.9528e-08 1.72098e-08 0)
(-1.43704e-10 9.32702e-09 0)
(-1.25938e-11 -1.59669e-08 0)
(7.68872e-09 -3.6371e-08 0)
(1.65028e-08 -1.19313e-08 0)
(1.43637e-08 3.29288e-08 0)
(3.33525e-08 3.0712e-08 0)
(3.86088e-08 3.06903e-09 0)
(-6.80955e-09 1.28592e-08 0)
(-4.71333e-09 2.14365e-08 0)
(1.39287e-08 9.82225e-09 0)
(3.62494e-09 -7.80995e-09 0)
(-1.65476e-08 -4.58806e-09 0)
(-1.8882e-08 2.14941e-08 0)
(-1.11496e-08 3.83346e-08 0)
(-9.06169e-09 3.53689e-08 0)
(-4.56737e-09 2.52274e-08 0)
(-5.82716e-08 -4.47919e-09 0)
(4.67707e-07 2.20233e-08 0)
(-2.44724e-08 4.08264e-08 0)
(-6.49123e-08 4.64419e-09 0)
(-5.34029e-09 1.28462e-10 0)
(6.78848e-09 -1.1034e-08 0)
(5.78748e-09 -2.13253e-08 0)
(4.81324e-09 -3.78051e-09 0)
(1.06133e-08 2.36608e-08 0)
(3.19406e-08 2.76013e-08 0)
(3.70213e-08 7.81649e-09 0)
(-7.84245e-09 3.74341e-09 0)
(-3.0617e-09 4.30073e-09 0)
(1.63081e-08 -1.20613e-09 0)
(4.53845e-09 -7.43208e-09 0)
(-1.70908e-08 -6.59527e-09 0)
(-2.15923e-08 4.60154e-09 0)
(-9.60029e-09 1.49709e-08 0)
(-1.82556e-09 1.21334e-08 0)
(-2.05299e-08 9.91522e-09 0)
(-2.79031e-08 -6.26925e-09 0)
(1.55149e-08 -2.47021e-08 0)
(-1.06206e-07 -4.84063e-08 0)
(-1.19412e-08 -5.41041e-09 0)
(2.23719e-08 -5.98637e-09 0)
(8.55981e-09 -1.61679e-08 0)
(7.01669e-09 -1.22973e-08 0)
(4.9203e-09 -8.46539e-10 0)
(1.01656e-08 1.21402e-08 0)
(2.80587e-08 1.90301e-08 0)
(3.09332e-08 1.04455e-08 0)
(-8.72609e-09 -7.23988e-09 0)
(-3.90043e-09 -1.44971e-08 0)
(1.5983e-08 -1.22496e-08 0)
(4.14554e-09 -5.9843e-09 0)
(-1.70339e-08 -5.28067e-09 0)
(-1.92823e-08 -1.19929e-08 0)
(-9.68989e-09 -9.72073e-09 0)
(-2.97561e-09 -4.16211e-09 0)
(-1.86654e-08 -1.58394e-08 0)
(-3.07329e-08 5.38877e-09 0)
(-9.07174e-08 7.15431e-08 0)
(6.11194e-09 -4.68549e-08 0)
(4.62809e-10 1.08018e-09 0)
(-4.50606e-09 -1.52673e-08 0)
(1.43871e-08 -9.5858e-09 0)
(1.96032e-08 -1.82445e-09 0)
(8.70383e-09 -1.21004e-09 0)
(9.92172e-09 -7.64152e-09 0)
(2.6745e-08 2.33245e-09 0)
(3.01034e-08 1.09283e-08 0)
(-8.68225e-09 -1.78322e-08 0)
(-6.17845e-09 -3.14031e-08 0)
(1.27785e-08 -2.21414e-08 0)
(3.17719e-09 -4.33524e-09 0)
(-1.70657e-08 -3.95477e-09 0)
(-1.77375e-08 -2.5216e-08 0)
(-9.96195e-09 -4.02761e-08 0)
(-8.92961e-09 -3.19099e-08 0)
(-2.85571e-08 -1.39124e-08 0)
(1.28111e-07 1.38853e-08 0)
(-6.40485e-07 -8.11912e-08 0)
(-1.47038e-07 6.03618e-08 0)
(2.71863e-08 -1.77291e-08 0)
(-1.03611e-09 -1.20637e-08 0)
(1.77751e-08 4.89565e-09 0)
(1.67871e-08 8.41933e-09 0)
(5.11205e-09 -3.23224e-09 0)
(8.52853e-09 -2.45262e-08 0)
(2.97099e-08 -1.03273e-08 0)
(3.34732e-08 1.15155e-08 0)
(-7.59466e-09 -2.63796e-08 0)
(-9.32706e-09 -4.41675e-08 0)
(7.65524e-09 -2.69955e-08 0)
(1.90634e-09 -1.25193e-09 0)
(-1.56017e-08 -2.8653e-09 0)
(-2.09694e-08 -3.60782e-08 0)
(-1.15503e-08 -5.98648e-08 0)
(-8.48355e-09 -5.42153e-08 0)
(1.12605e-08 -1.65789e-08 0)
(-1.9295e-07 9.39109e-09 0)
(6.03307e-07 -6.11276e-08 0)
(9.24845e-08 3.54814e-08 0)
(-8.47521e-08 -1.76337e-08 0)
(-1.35824e-09 -8.64111e-09 0)
(7.5354e-09 8.3751e-09 0)
(7.61135e-09 1.73546e-08 0)
(5.78595e-09 -2.8119e-09 0)
(1.30097e-08 -3.74774e-08 0)
(3.31481e-08 -1.72211e-08 0)
(3.67771e-08 1.46581e-08 0)
(-5.40996e-09 -3.16868e-08 0)
(-1.12315e-08 -5.18564e-08 0)
(8.73577e-10 -2.67334e-08 0)
(-9.35915e-10 3.48488e-09 0)
(-1.5494e-08 -3.62283e-09 0)
(-1.84287e-08 -4.31165e-08 0)
(-1.45679e-08 -7.03248e-08 0)
(-4.71103e-09 -5.86077e-08 0)
(-1.84958e-08 -2.92636e-08 0)
(2.39629e-08 -1.11364e-08 0)
(-2.78568e-08 1.12041e-07 0)
(-6.91978e-08 -6.85086e-08 0)
(-1.18424e-08 -3.42462e-08 0)
(-1.66667e-08 -2.28483e-08 0)
(-3.06091e-09 8.94926e-09 0)
(3.82608e-09 2.63376e-08 0)
(5.71073e-09 2.13023e-09 0)
(1.92626e-08 -4.1118e-08 0)
(3.68515e-08 -1.92797e-08 0)
(3.71504e-08 1.72271e-08 0)
(-2.55814e-09 -3.25215e-08 0)
(-1.19987e-08 -5.41989e-08 0)
(-7.87214e-09 -2.51183e-08 0)
(-6.64842e-09 7.44324e-09 0)
(-1.43925e-08 -4.84233e-09 0)
(-1.61077e-08 -4.70243e-08 0)
(-1.2532e-08 -7.5756e-08 0)
(-9.32584e-09 -5.8764e-08 0)
(-6.41178e-09 -2.98153e-08 0)
(-1.01605e-08 1.04543e-09 0)
(-2.2991e-08 -4.54556e-08 0)
(-1.05719e-08 -3.81847e-08 0)
(-2.41917e-08 -5.54771e-08 0)
(-1.2122e-08 -3.23379e-08 0)
(2.73012e-09 8.28711e-09 0)
(5.13551e-09 2.83157e-08 0)
(1.28665e-08 7.58197e-09 0)
(2.78985e-08 -3.76645e-08 0)
(3.62282e-08 -1.9502e-08 0)
(3.36726e-08 1.74599e-08 0)
(3.39686e-10 -3.01862e-08 0)
(-1.23774e-08 -5.22484e-08 0)
(-1.76214e-08 -2.29487e-08 0)
(-1.39722e-08 1.05695e-08 0)
(-1.43206e-08 -2.65366e-09 0)
(-1.2362e-08 -4.60485e-08 0)
(-9.0716e-09 -7.24003e-08 0)
(-9.17521e-09 -5.63745e-08 0)
(-1.06266e-08 -1.94153e-08 0)
(-1.14053e-08 -8.36954e-10 0)
(-7.61486e-09 -6.64975e-10 0)
(-6.29455e-09 -2.92426e-08 0)
(-6.93116e-09 -4.64857e-08 0)
(-4.36602e-09 -2.62333e-08 0)
(1.05795e-09 9.15722e-09 0)
(1.02614e-08 3.00975e-08 0)
(2.56596e-08 9.41343e-09 0)
(3.42441e-08 -3.89379e-08 0)
(3.1856e-08 -2.20368e-08 0)
(3.05274e-08 1.60068e-08 0)
(3.68859e-09 -2.65949e-08 0)
(-1.28286e-08 -4.74401e-08 0)
(-2.61469e-08 -1.97572e-08 0)
(-2.12671e-08 1.20648e-08 0)
(-1.46067e-08 1.974e-09 0)
(-1.02837e-08 -3.77697e-08 0)
(-6.61426e-09 -6.11696e-08 0)
(-8.40207e-09 -4.99969e-08 0)
(-8.23105e-09 -1.50552e-08 0)
(-2.85254e-09 8.28499e-09 0)
(8.52362e-09 8.3694e-09 0)
(4.19434e-09 -2.01372e-08 0)
(-8.17804e-09 -3.75353e-08 0)
(-6.29747e-09 -1.93238e-08 0)
(2.16359e-09 1.25019e-08 0)
(1.42376e-08 2.9698e-08 0)
(3.17452e-08 6.97721e-09 0)
(3.9218e-08 -4.08477e-08 0)
(3.22268e-08 -2.6178e-08 0)
(3.17696e-08 1.15066e-08 0)
(7.84093e-09 -2.24517e-08 0)
(-1.37681e-08 -4.07598e-08 0)
(-3.30892e-08 -1.37223e-08 0)
(-2.62041e-08 1.61727e-08 0)
(-1.4305e-08 8.32081e-09 0)
(-8.76326e-09 -2.71456e-08 0)
(-7.07771e-09 -4.72288e-08 0)
(-1.02808e-08 -3.9194e-08 0)
(-7.00076e-09 -1.12802e-08 0)
(2.31777e-09 9.53105e-09 0)
(9.55191e-09 7.31081e-09 0)
(8.99774e-09 -1.65332e-08 0)
(5.73444e-09 -2.79717e-08 0)
(-1.17861e-09 -1.24713e-08 0)
(-1.32818e-09 1.15674e-08 0)
(1.47445e-08 2.35066e-08 0)
(3.5843e-08 3.04732e-09 0)
(3.9692e-08 -3.77147e-08 0)
(3.05249e-08 -2.84897e-08 0)
(3.71608e-08 4.78797e-09 0)
(1.0619e-08 -1.47066e-08 0)
(-1.35373e-08 -2.82675e-08 0)
(-3.47504e-08 -1.01324e-08 0)
(-2.77322e-08 1.34021e-08 0)
(-1.64735e-08 9.51253e-09 0)
(-1.0758e-08 -1.45206e-08 0)
(-9.72365e-09 -3.00565e-08 0)
(-9.8813e-09 -2.50333e-08 0)
(-4.89025e-09 -8.98503e-09 0)
(8.58827e-09 4.66901e-09 0)
(2.12787e-08 4.29349e-09 0)
(1.72516e-08 -7.59018e-09 0)
(2.15263e-09 -1.58782e-08 0)
(-8.55631e-09 -8.75067e-09 0)
(-2.14415e-09 8.36857e-09 0)
(1.65669e-08 1.67799e-08 0)
(3.5765e-08 7.27607e-10 0)
(3.72675e-08 -2.88205e-08 0)
(2.93147e-08 -2.3233e-08 0)
(4.48414e-08 1.02778e-09 0)
(1.2408e-08 -4.57287e-09 0)
(-1.39926e-08 -9.76618e-09 0)
(-3.52635e-08 -5.28674e-09 0)
(-2.743e-08 3.2959e-09 0)
(-1.69955e-08 3.56829e-09 0)
(-1.23459e-08 -3.57048e-09 0)
(-1.10679e-08 -9.36463e-09 0)
(-1.11499e-08 -8.57092e-09 0)
(-4.65309e-09 -5.24503e-09 0)
(1.09677e-08 -4.59116e-10 0)
(2.13773e-08 -5.71005e-10 0)
(1.92788e-08 -6.47554e-09 0)
(6.729e-09 -7.96756e-09 0)
(-4.39239e-09 -2.86179e-09 0)
(-9.09336e-10 4.32935e-09 0)
(1.30367e-08 6.72479e-09 0)
(3.08894e-08 2.94437e-10 0)
(3.57039e-08 -1.08025e-08 0)
(3.14055e-08 -9.17071e-09 0)
(5.17216e-08 -2.14347e-10 0)
)
;

boundaryField
{
    sides
    {
        type            calculated;
        value           nonuniform List<vector> 
40
(
(1.2408e-08 0 0)
(-1.39926e-08 0 0)
(-3.52635e-08 0 0)
(-2.743e-08 0 0)
(-1.69955e-08 0 0)
(-1.23459e-08 0 0)
(-1.10679e-08 0 0)
(-1.11499e-08 0 0)
(-4.65309e-09 0 0)
(1.09677e-08 0 0)
(2.13773e-08 0 0)
(1.92788e-08 0 0)
(6.729e-09 0 0)
(-4.39239e-09 0 0)
(-9.09336e-10 0 0)
(1.30367e-08 0 0)
(3.08894e-08 0 0)
(3.57039e-08 0 0)
(3.14055e-08 0 0)
(5.17216e-08 0 0)
(8.26552e-09 0 0)
(-1.93245e-08 0 0)
(-3.71549e-08 0 0)
(-2.22568e-08 0 0)
(-9.37375e-09 0 0)
(-8.1246e-09 0 0)
(-1.1047e-08 0 0)
(-1.14034e-08 0 0)
(-5.22821e-09 0 0)
(1.08251e-08 0 0)
(1.89798e-08 0 0)
(1.36826e-08 0 0)
(-4.79189e-10 0 0)
(-1.47916e-08 0 0)
(-6.75055e-09 0 0)
(1.70503e-08 0 0)
(4.03442e-08 0 0)
(4.53013e-08 0 0)
(3.77285e-08 0 0)
(4.84833e-08 0 0)
)
;
    }
    inlet
    {
        type            calculated;
        value           uniform (0 0 0);
    }
    outlet
    {
        type            calculated;
        value           nonuniform List<vector> 
20
(
(4.84833e-08 1.92031e-09 0)
(4.48496e-08 9.15392e-10 0)
(2.97894e-08 8.05199e-10 0)
(3.38321e-08 -9.89475e-10 0)
(2.65785e-08 -4.22588e-09 0)
(3.58109e-08 -3.41491e-09 0)
(3.8452e-08 -1.87568e-09 0)
(3.86088e-08 3.06903e-09 0)
(3.70213e-08 7.81649e-09 0)
(3.09332e-08 1.04455e-08 0)
(3.01034e-08 1.09283e-08 0)
(3.34732e-08 1.15155e-08 0)
(3.67771e-08 1.46581e-08 0)
(3.71504e-08 1.72271e-08 0)
(3.36726e-08 1.74599e-08 0)
(3.05274e-08 1.60068e-08 0)
(3.17696e-08 1.15066e-08 0)
(3.71608e-08 4.78797e-09 0)
(4.48414e-08 1.02778e-09 0)
(5.17216e-08 -2.14347e-10 0)
)
;
    }
    frontAndBack
    {
        type            empty;
    }
}


// ************************************************************************* //
