/*--------------------------------*- C++ -*----------------------------------*\
  =========                 |
  \\      /  F ield         | OpenFOAM: The Open Source CFD Toolbox
   \\    /   O peration     | Website:  https://openfoam.org
    \\  /    A nd           | Version:  9
     \\/     M anipulation  |
\*---------------------------------------------------------------------------*/
FoamFile
{
    format      ascii;
    class       volScalarField;
    location    "41";
    object      ddt0(h);
}
// * * * * * * * * * * * * * * * * * * * * * * * * * * * * * * * * * * * * * //

dimensions      [0 1 -1 0 0 0 0];

internalField   nonuniform List<scalar> 
400
(
1.44569e-07
1.42119e-07
1.37326e-07
1.04764e-07
8.95578e-08
7.40174e-08
3.4581e-08
1.49391e-08
-2.37476e-08
-1.48014e-08
2.08302e-08
7.79117e-08
1.18298e-07
1.26795e-07
1.59275e-07
1.61392e-07
1.18302e-07
8.67958e-08
5.25773e-08
1.95089e-08
1.34791e-07
1.26295e-07
1.13183e-07
1.10832e-07
1.08475e-07
6.42318e-08
3.38414e-08
4.43195e-09
-2.03007e-08
-2.76409e-08
3.1934e-08
5.08002e-08
1.1476e-07
1.318e-07
1.47314e-07
1.51576e-07
1.18218e-07
6.95752e-08
3.22074e-08
1.93424e-09
1.05639e-07
9.53343e-08
9.93058e-08
1.2546e-07
1.02729e-07
4.34261e-08
4.4751e-08
-1.36994e-08
2.08837e-09
-4.57043e-08
2.36911e-09
4.68356e-08
7.49204e-08
1.38162e-07
1.30452e-07
1.18362e-07
9.54861e-08
3.02455e-08
-2.66555e-08
-1.45933e-08
6.21033e-08
6.29584e-08
9.3027e-08
1.02575e-07
5.65202e-08
5.24069e-08
3.18946e-08
7.24205e-09
-2.82219e-08
2.89893e-08
-6.54961e-08
8.61551e-08
7.09282e-08
9.36367e-08
1.09726e-07
7.70874e-08
5.20778e-08
1.81435e-08
-7.40111e-09
-9.3862e-09
1.45039e-08
3.62389e-08
6.33612e-08
4.3088e-08
1.88454e-08
4.33868e-08
2.04601e-08
7.34262e-09
-1.69544e-08
3.76364e-08
1.16993e-07
-3.92634e-08
1.47176e-07
1.11652e-07
5.60952e-08
3.50967e-08
1.47348e-08
3.14076e-09
2.06664e-09
1.9704e-09
-3.20101e-08
2.03063e-09
7.52695e-09
-2.01302e-08
-1.43241e-08
1.97712e-08
1.36595e-08
-5.21593e-08
1.52659e-07
-1.40271e-07
2.25685e-07
6.18584e-08
-5.0119e-09
1.47452e-07
8.95069e-08
8.49571e-09
-1.62573e-08
8.89201e-10
1.3542e-08
6.93749e-09
-7.15154e-08
-4.71826e-08
-5.74252e-08
-7.08842e-08
-4.23219e-08
-5.72326e-09
-5.31392e-08
7.35372e-08
-7.51978e-08
2.23331e-07
-1.13448e-07
4.03531e-07
9.1048e-08
2.89151e-08
6.98807e-08
1.54591e-08
-1.23044e-07
-1.69812e-08
-1.46753e-09
4.57258e-10
-1.07696e-07
-9.93023e-08
-1.13154e-07
-1.03616e-07
-6.95713e-08
-5.68813e-08
-1.81558e-08
-2.24399e-08
3.37759e-08
4.63586e-07
-4.69845e-06
1.03601e-07
2.46649e-07
1.09472e-07
4.72027e-08
4.94926e-09
7.56562e-08
-2.30119e-08
-1.76545e-08
-8.97648e-09
-1.42043e-07
-1.42909e-07
-1.43541e-07
-1.20409e-07
-9.85692e-08
-8.18698e-08
-5.39998e-08
7.95697e-09
6.27549e-08
-2.03243e-07
4.97655e-06
2.61836e-07
6.4548e-08
1.11399e-07
4.31818e-08
-1.0057e-08
-2.93984e-08
-3.15999e-08
-2.69938e-08
-1.35131e-08
-1.6728e-07
-1.63818e-07
-1.53284e-07
-1.16091e-07
-1.1388e-07
-1.03096e-07
-3.14667e-08
-6.06052e-08
1.91989e-07
2.86576e-08
5.15361e-07
-1.2058e-07
2.4194e-07
1.73337e-07
3.46844e-08
-1.15711e-08
-2.61068e-08
-3.38541e-08
-3.35462e-08
-1.56259e-08
-1.67863e-07
-1.56861e-07
-1.444e-07
-1.11565e-07
-1.0155e-07
-1.19443e-07
-5.87568e-08
4.7228e-08
4.71825e-08
3.21062e-07
-1.60463e-07
3.81094e-07
2.1608e-07
8.93609e-08
5.7345e-08
2.46344e-08
-1.6628e-08
-3.31074e-08
-3.10993e-08
-1.35072e-08
-1.40824e-07
-1.20865e-07
-1.20233e-07
-1.04213e-07
-9.02352e-08
-9.94074e-08
-8.43962e-08
4.2205e-08
6.09737e-08
6.60695e-07
-5.47275e-06
1.62092e-07
1.7749e-07
9.76961e-08
7.06734e-08
3.16231e-08
-2.30653e-08
-3.863e-08
-2.29095e-08
-5.94904e-09
-9.70347e-08
-6.8278e-08
-7.65417e-08
-9.12098e-08
-6.64893e-08
-6.94806e-08
-2.93442e-08
-1.97326e-08
1.30432e-07
-4.90952e-07
6.10085e-06
2.09312e-07
3.87766e-08
1.01758e-07
5.33828e-08
8.13744e-09
-2.6588e-08
-3.73349e-08
-9.83799e-09
3.74355e-09
-4.76233e-08
-1.38695e-08
-2.01608e-08
-5.61008e-08
-4.25418e-08
-1.43984e-08
-1.9706e-08
2.31888e-08
-5.61685e-08
1.12889e-07
-3.5662e-08
-1.73657e-08
1.59721e-07
4.9777e-08
4.13309e-08
2.10055e-08
-1.29492e-08
-2.69173e-08
-4.72494e-09
5.45047e-09
-3.39477e-09
3.3962e-08
3.67338e-08
4.80787e-09
-4.5804e-09
2.21586e-08
1.46691e-08
2.44969e-08
-1.93945e-10
1.99759e-08
-3.5237e-08
1.00178e-07
4.54392e-08
6.50706e-08
6.76459e-08
3.83827e-08
7.8675e-09
-8.56418e-09
-2.42618e-09
1.93815e-09
3.3193e-08
7.56337e-08
9.01311e-08
6.87926e-08
4.43533e-08
5.2115e-08
3.11126e-08
2.86492e-08
1.71095e-08
5.2356e-09
4.30068e-08
3.33724e-08
6.35166e-08
9.90044e-08
9.39366e-08
6.30833e-08
3.49193e-08
1.10575e-08
4.30428e-09
2.73862e-09
6.91543e-08
1.09755e-07
1.37793e-07
1.16606e-07
8.49201e-08
6.65883e-08
4.85955e-08
1.36646e-08
1.87991e-08
6.4842e-09
3.12372e-08
5.16137e-08
9.48961e-08
1.37739e-07
1.17962e-07
8.74809e-08
6.39485e-08
3.01752e-08
1.15033e-08
5.64698e-09
1.15724e-07
1.27829e-07
1.61126e-07
1.4591e-07
1.122e-07
7.53495e-08
5.39918e-08
1.55814e-08
5.25577e-09
-1.52148e-09
1.95064e-08
5.83747e-08
1.17134e-07
1.5177e-07
1.38354e-07
1.20809e-07
9.22373e-08
4.45075e-08
1.24828e-08
4.16881e-09
1.64301e-07
1.45072e-07
1.49701e-07
1.544e-07
1.36345e-07
9.86714e-08
5.5727e-08
2.29171e-08
-3.63785e-09
-6.35446e-09
2.18475e-08
6.65244e-08
1.19541e-07
1.47346e-07
1.56605e-07
1.44207e-07
1.09248e-07
5.64703e-08
3.52123e-09
-8.29139e-09
1.96883e-07
1.58444e-07
1.29183e-07
1.39682e-07
1.47563e-07
1.15855e-07
6.17884e-08
2.44312e-08
-2.5347e-09
-5.38431e-09
2.14723e-08
7.28426e-08
1.12033e-07
1.41859e-07
1.64122e-07
1.52383e-07
1.19171e-07
6.90198e-08
4.27811e-10
-1.87365e-08
)
;

boundaryField
{
    sides
    {
        type            calculated;
        value           nonuniform List<scalar> 
40
(
1.96883e-07
1.58444e-07
1.29183e-07
1.39682e-07
1.47563e-07
1.15855e-07
6.17884e-08
2.44312e-08
-2.5347e-09
-5.38431e-09
2.14723e-08
7.28426e-08
1.12033e-07
1.41859e-07
1.64122e-07
1.52383e-07
1.19171e-07
6.90198e-08
4.27811e-10
-1.87365e-08
1.44569e-07
1.42119e-07
1.37326e-07
1.04764e-07
8.95578e-08
7.40174e-08
3.4581e-08
1.49391e-08
-2.37476e-08
-1.48014e-08
2.08302e-08
7.79117e-08
1.18298e-07
1.26795e-07
1.59275e-07
1.61392e-07
1.18302e-07
8.67958e-08
5.25773e-08
1.95089e-08
)
;
    }
    inlet
    {
        type            calculated;
        value           nonuniform List<scalar> 
20
(
1.44569e-07
1.34791e-07
1.05639e-07
6.21033e-08
1.45039e-08
-3.20101e-08
-7.15154e-08
-1.07696e-07
-1.42043e-07
-1.6728e-07
-1.67863e-07
-1.40824e-07
-9.70347e-08
-4.76233e-08
-3.39477e-09
3.3193e-08
6.91543e-08
1.15724e-07
1.64301e-07
1.96883e-07
)
;
    }
    outlet
    {
        type            calculated;
        value           uniform 0;
    }
    frontAndBack
    {
        type            empty;
    }
}


// ************************************************************************* //
