/*--------------------------------*- C++ -*----------------------------------*\
  =========                 |
  \\      /  F ield         | OpenFOAM: The Open Source CFD Toolbox
   \\    /   O peration     | Website:  https://openfoam.org
    \\  /    A nd           | Version:  9
     \\/     M anipulation  |
\*---------------------------------------------------------------------------*/
FoamFile
{
    format      ascii;
    class       surfaceScalarField;
    location    "41";
    object      ddtCorrDdt0(phi);
}
// * * * * * * * * * * * * * * * * * * * * * * * * * * * * * * * * * * * * * //

dimensions      [0 4 -2 0 0 0 0];

internalField   nonuniform List<scalar> 
760
(
-7.04541e-11
3.48305e-11
-1.43021e-10
9.05672e-11
-1.50435e-10
5.37537e-11
-7.82538e-11
-1.035e-11
-5.49209e-11
-4.25458e-11
-4.00765e-11
3.77741e-11
-7.29631e-11
9.86612e-11
-3.27153e-11
8.32743e-11
3.06758e-11
3.53687e-11
1.03469e-10
-2.52794e-11
6.61294e-11
-3.31032e-11
2.49699e-11
4.52566e-11
-4.32662e-11
5.87648e-11
-6.86789e-11
3.69841e-11
1.80477e-11
-2.55109e-11
1.41773e-10
-6.64012e-11
2.11829e-10
-6.56997e-12
2.10647e-10
1.13231e-10
2.25127e-10
1.1209e-10
1.44506e-11
-5.6969e-11
7.63184e-11
-1.23627e-10
1.72828e-10
-1.3508e-10
8.65858e-11
-1.0481e-10
-5.54603e-11
-5.28426e-11
-5.8993e-11
-3.47011e-11
1.07981e-10
-7.06862e-11
1.94216e-10
-2.63718e-11
1.77843e-10
6.86804e-12
4.84386e-11
7.17945e-11
-5.13822e-12
6.95901e-11
-7.04336e-11
1.14039e-11
7.35045e-11
-2.57195e-11
1.1253e-10
-5.59339e-11
3.83639e-11
1.24665e-11
-6.01177e-11
1.29337e-10
-1.21656e-10
2.00911e-10
-2.98529e-11
2.06445e-10
1.4522e-10
2.0685e-10
1.37974e-10
3.18145e-12
-3.0546e-11
1.26312e-10
-9.0195e-11
2.30848e-10
-1.32053e-10
8.56856e-11
-1.27423e-10
-9.37764e-11
-3.79758e-11
-2.63941e-11
-4.37033e-11
1.74478e-10
-4.98633e-11
2.76357e-10
-4.19332e-11
2.54476e-10
2.13011e-12
8.45257e-11
2.9485e-12
-1.91277e-11
6.41337e-11
-9.97207e-12
-2.94215e-11
3.58859e-11
-4.06377e-11
1.6927e-10
-3.90978e-11
5.39819e-11
2.05066e-12
-1.09262e-10
1.34552e-10
-1.75955e-10
2.25208e-10
-4.42173e-11
1.84655e-10
2.02554e-10
1.39649e-10
1.78854e-10
-1.12823e-12
-1.53619e-11
1.6876e-10
-8.23752e-11
2.54652e-10
-1.31176e-10
7.86146e-11
-9.52042e-11
-9.12135e-11
-2.48182e-11
1.97247e-12
-6.3555e-11
2.07138e-10
-2.4665e-11
3.7009e-10
-7.75794e-11
2.75788e-10
8.78753e-12
1.87471e-10
-3.44261e-11
-8.70032e-11
-3.21531e-11
2.62887e-11
2.4613e-11
9.38933e-11
-8.32998e-11
1.09845e-10
-4.54493e-11
9.20659e-11
1.03249e-11
-1.02527e-10
9.01593e-11
-1.98884e-10
1.69305e-10
-5.34378e-11
1.98285e-10
1.8369e-10
1.74544e-10
1.57135e-10
-1.31055e-11
-2.51319e-11
1.74727e-10
-7.65681e-11
2.56377e-10
-1.01838e-10
8.81068e-11
-5.10971e-11
-6.27555e-11
-5.03396e-11
6.31815e-12
-5.20872e-11
2.42026e-10
-5.80386e-11
3.66377e-10
3.32763e-13
3.8259e-10
-1.47392e-10
7.70228e-11
1.00883e-10
1.04173e-10
-1.41881e-10
-1.78255e-10
-6.46815e-11
2.54687e-10
3.04582e-12
1.79562e-10
-7.31337e-11
-6.35769e-12
-1.22539e-11
-1.17829e-10
9.99158e-11
-1.99547e-10
1.89623e-10
-5.97152e-11
1.8272e-10
2.06979e-10
1.36562e-10
1.55557e-10
-2.71789e-11
-3.76906e-11
1.51619e-10
-6.18753e-11
2.37009e-10
-5.18021e-11
1.04339e-10
-3.27998e-11
-4.40311e-11
-5.70957e-11
1.09967e-11
-8.30499e-11
2.14973e-10
-5.42006e-12
4.04593e-10
-8.81375e-11
3.03948e-10
-4.58092e-11
1.20024e-10
-1.92892e-10
1.92964e-10
9.75945e-11
-1.34131e-10
-2.50059e-10
-1.33451e-10
-5.19759e-11
3.05675e-10
6.35633e-11
1.08942e-10
1.40888e-11
-1.42772e-10
2.63521e-11
-2.03954e-10
9.66961e-11
-4.09022e-11
1.74706e-10
1.82088e-10
1.86858e-10
1.47661e-10
-1.55106e-11
-3.71646e-11
1.1936e-10
-2.67247e-11
2.01343e-10
-1.0606e-11
9.78913e-11
-2.56213e-11
-3.37595e-11
-8.67889e-11
-6.99542e-12
-5.91092e-11
2.07031e-10
-2.5785e-11
3.22454e-10
-1.52961e-10
2.64349e-10
1.66952e-10
2.76038e-10
-4.89158e-10
-3.75835e-10
4.05732e-11
7.52327e-10
6.50636e-11
1.05373e-11
-2.00571e-10
1.12143e-11
-3.55702e-11
8.11149e-11
5.9059e-11
-9.00409e-11
3.20102e-11
-1.64573e-10
2.48439e-11
1.06154e-09
1.39763e-10
1.63567e-10
1.86998e-10
1.61044e-10
2.75671e-12
-2.08826e-11
8.65105e-11
9.76992e-12
1.46392e-10
1.7592e-11
7.04309e-11
-3.85716e-11
-4.32319e-11
-7.74724e-11
-9.33616e-12
-7.68017e-11
1.389e-10
-5.50653e-11
2.53206e-10
1.69715e-11
2.05399e-10
-1.77359e-10
-6.02405e-12
-1.2079e-09
3.98681e-10
-1.6635e-09
4.33777e-08
7.94221e-11
4.66239e-10
4.40604e-11
1.43224e-10
-2.48265e-11
-2.21059e-12
4.76901e-11
-1.12267e-10
5.6022e-11
-1.18635e-10
9.39179e-11
-1.44407e-11
1.11806e-10
1.57555e-10
1.83373e-10
1.52141e-10
2.78063e-11
-1.68702e-12
4.49528e-11
4.17798e-11
6.96217e-11
2.2781e-11
2.5437e-11
-4.13512e-11
-4.32922e-11
-7.48582e-11
-3.51713e-11
-6.70796e-11
8.08175e-11
-3.80994e-11
1.16729e-10
-9.98594e-11
1.45059e-10
-9.42688e-12
2.06705e-10
8.29176e-10
-4.91924e-10
1.25947e-09
6.87297e-10
-3.55718e-10
-1.37652e-10
-1.47242e-10
-2.01998e-10
1.42724e-11
-6.32344e-11
3.13041e-11
-1.13217e-10
4.7993e-11
-8.6444e-11
4.24823e-11
8.76287e-10
1.02585e-10
9.83717e-11
1.75505e-10
1.09996e-10
8.50647e-11
9.27552e-12
-6.90407e-12
5.38639e-11
-2.52503e-11
2.6803e-11
-3.42704e-11
-5.21133e-11
-3.40651e-11
-6.19598e-11
-3.27592e-11
-8.26499e-11
-2.54392e-11
-4.14894e-11
3.85743e-11
5.94301e-11
-1.34593e-12
-3.70006e-10
-9.03421e-11
2.27872e-10
2.1889e-10
-3.97764e-10
-6.13405e-10
-3.32987e-10
-2.1861e-10
1.08862e-10
1.10743e-10
6.19924e-11
-4.83434e-11
3.17184e-11
-9.57719e-11
5.65412e-11
-4.14211e-11
4.37984e-11
-1.17279e-12
9.38619e-11
1.39777e-11
1.45618e-10
4.88741e-11
5.05412e-11
3.5118e-12
-6.37394e-11
4.7833e-11
-1.20493e-10
2.7688e-11
-9.20846e-11
-5.33958e-11
-2.47538e-11
-7.04947e-11
-2.06375e-11
-4.04724e-11
-1.0223e-10
-4.98366e-11
-1.32775e-10
-4.09961e-11
-6.35978e-11
-9.172e-11
-9.39605e-11
-4.56825e-10
-2.00177e-10
-1.41039e-10
3.95455e-09
5.15935e-11
-2.11992e-10
-4.66136e-11
-7.0042e-11
1.6267e-11
-6.93034e-11
1.0421e-10
-1.43971e-11
9.13347e-11
2.75762e-11
5.63003e-11
-9.14354e-12
8.39627e-11
-8.36546e-11
1.39019e-10
-2.6394e-11
5.18402e-11
-1.24828e-11
-1.16563e-10
2.69854e-11
-1.96188e-10
2.32853e-11
-1.29042e-10
-4.63766e-11
-1.19227e-11
-8.03169e-11
-1.8124e-11
-4.22223e-11
-1.52765e-10
-3.05188e-11
-2.60928e-10
-8.66008e-11
-1.9595e-10
-1.23729e-10
-5.82296e-11
-3.24913e-10
3.94942e-10
-3.02829e-09
-2.98227e-08
1.89565e-10
8.05757e-10
-2.32488e-11
-6.44331e-11
5.52906e-11
-3.56413e-11
9.25024e-11
5.34981e-11
6.9688e-11
-2.21379e-12
4.53963e-11
-2.03259e-11
9.12271e-11
-1.69079e-10
1.53984e-10
-7.6782e-11
6.31993e-11
-2.93744e-11
-1.52601e-10
-5.96095e-12
-2.46069e-10
1.59688e-11
-1.38933e-10
-3.40058e-11
-1.40773e-12
-8.73747e-11
-1.51844e-11
-6.62722e-11
-2.02683e-10
-5.37467e-11
-3.30295e-10
-4.51814e-11
-2.93363e-10
-1.72493e-11
-7.64697e-11
-9.29075e-11
-3.01691e-10
2.91824e-09
3.45852e-09
-5.61307e-10
-5.11286e-10
-1.29153e-10
-1.24843e-10
1.97294e-11
-6.37522e-11
4.36542e-11
3.41706e-11
4.23861e-11
9.31004e-11
5.50098e-11
-2.00033e-12
1.19012e-10
-1.95387e-10
1.7435e-10
-8.90406e-11
8.07407e-11
-3.78515e-11
-1.6698e-10
-3.33103e-11
-2.68136e-10
-1.13919e-11
-1.31757e-10
-2.37456e-11
2.15356e-11
-9.19358e-11
-3.29376e-11
-6.71134e-11
-2.27254e-10
-8.13957e-11
-3.7197e-10
-1.46573e-11
-2.83076e-10
-9.84551e-11
-2.05676e-10
2.65773e-10
1.05568e-10
-5.3466e-10
-5.88867e-10
-1.0088e-10
-1.10461e-10
-9.12332e-11
-2.1624e-10
-5.34876e-11
-1.60786e-10
9.30637e-12
3.46365e-11
2.25324e-11
1.30063e-10
7.21668e-11
2.43414e-11
1.5388e-10
-1.95116e-10
1.84963e-10
-9.1564e-11
8.88929e-11
-3.65412e-11
-1.58744e-10
-5.92291e-11
-2.66788e-10
-5.08138e-11
-1.21011e-10
-4.12975e-11
3.94481e-11
-7.16296e-11
-2.95913e-11
-7.47983e-11
-2.43644e-10
-5.173e-11
-3.71396e-10
-6.19037e-11
-2.93564e-10
1.40239e-11
-1.1602e-10
-1.30746e-10
-5.28217e-11
-6.35655e-11
5.87586e-11
-9.68765e-11
-1.76944e-10
-1.12822e-10
-2.62732e-10
-1.86423e-11
-1.47378e-10
1.86229e-11
4.56766e-11
3.95021e-11
1.53575e-10
1.15091e-10
4.62956e-11
1.80275e-10
-1.87047e-10
1.72904e-10
-9.72803e-11
8.60431e-11
-3.08831e-11
-1.42233e-10
-8.61605e-11
-2.45903e-10
-9.61036e-11
-1.09775e-10
-6.97842e-11
4.96475e-11
-5.65241e-11
-1.14971e-11
-5.74544e-11
-2.13797e-10
-3.67267e-11
-3.39783e-10
-5.82605e-11
-2.65931e-10
-4.2356e-11
-7.68326e-11
-6.80461e-11
4.47663e-11
-3.05017e-12
1.75598e-11
-4.76196e-11
-1.35474e-10
-5.13634e-11
-2.18787e-10
-8.19394e-12
-1.08809e-10
2.56295e-11
6.32465e-11
8.47093e-11
1.4864e-10
1.65351e-10
4.34556e-11
1.86245e-10
-1.87741e-10
1.52104e-10
-1.1683e-10
6.87285e-11
-2.27033e-11
-1.25074e-10
-1.12e-10
-2.22666e-10
-1.35414e-10
-8.51482e-11
-9.93737e-11
6.36334e-11
-4.71148e-11
2.18522e-11
-4.71866e-11
-1.65698e-10
-2.97735e-11
-2.67298e-10
-4.74084e-11
-2.26156e-10
-1.28328e-11
-6.19416e-11
1.6914e-11
4.69164e-11
3.19607e-11
3.70584e-11
-1.57046e-11
-7.6647e-11
-4.77791e-11
-1.53613e-10
-1.9473e-11
-8.13269e-11
3.18725e-11
4.87475e-11
1.14724e-10
1.28998e-10
1.93586e-10
2.47456e-11
1.9681e-10
-2.01394e-10
1.54153e-10
-1.41941e-10
3.93805e-11
-2.53823e-11
-9.79108e-11
-1.23442e-10
-1.82071e-10
-1.66715e-10
-6.12443e-11
-1.13845e-10
7.84993e-11
-4.94655e-11
4.77845e-11
-3.37887e-11
-1.04434e-10
-4.88202e-11
-1.95492e-10
-3.30642e-11
-1.62065e-10
-9.47009e-12
-5.60417e-11
4.01401e-11
3.5288e-11
5.31214e-11
2.91397e-11
2.76527e-11
-6.6072e-11
1.23639e-12
-1.10831e-10
-2.22778e-11
-4.91393e-11
2.78092e-11
5.8167e-11
1.2837e-10
1.07016e-10
1.95257e-10
4.34519e-12
1.89975e-10
-1.79886e-10
1.69268e-10
-1.36323e-10
1.22616e-11
-4.09509e-11
-5.72799e-11
-1.14163e-10
-1.06313e-10
-1.63221e-10
-3.58095e-11
-1.29048e-10
6.04725e-11
-6.9874e-11
4.53239e-11
-4.35972e-11
-4.59333e-11
-5.61038e-11
-1.08152e-10
-2.98288e-11
-9.0056e-11
2.46721e-11
-4.19519e-11
9.06254e-11
1.06801e-11
9.04305e-11
1.00729e-11
4.24031e-11
-3.40951e-11
-2.23184e-11
-5.64584e-11
-4.38604e-11
-2.76297e-11
3.0703e-11
3.41885e-11
1.30083e-10
5.76248e-11
1.79909e-10
-6.63976e-13
1.76253e-10
-1.01456e-10
1.92542e-10
-8.74748e-11
-3.91512e-12
-5.61873e-11
-1.1067e-10
-1.48141e-10
-1.33489e-10
-8.31736e-11
-5.46802e-11
-5.70746e-11
-3.50279e-11
3.33304e-11
9.64868e-11
9.76886e-11
5.92937e-11
-2.80796e-12
-2.4683e-11
2.49916e-11
1.05397e-10
1.57435e-10
1.72136e-10
2.19089e-10
)
;

boundaryField
{
    sides
    {
        type            calculated;
        value           uniform 0;
    }
    inlet
    {
        type            calculated;
        value           uniform 0;
    }
    outlet
    {
        type            calculated;
        value           nonuniform List<scalar> 
20
(
2.58649e-10
2.39865e-10
1.40435e-10
1.55577e-10
1.16945e-10
1.70325e-10
1.93007e-10
1.91351e-10
1.80579e-10
1.45795e-10
1.45603e-10
1.64235e-10
1.76608e-10
1.71566e-10
1.48457e-10
1.32043e-10
1.45834e-10
1.80242e-10
2.28754e-10
2.75358e-10
)
;
    }
    frontAndBack
    {
        type            empty;
        value           nonuniform List<scalar> 0();
    }
}


// ************************************************************************* //
