/*--------------------------------*- C++ -*----------------------------------*\
  =========                 |
  \\      /  F ield         | OpenFOAM: The Open Source CFD Toolbox
   \\    /   O peration     | Website:  https://openfoam.org
    \\  /    A nd           | Version:  9
     \\/     M anipulation  |
\*---------------------------------------------------------------------------*/
FoamFile
{
    format      ascii;
    class       volScalarField;
    location    "41";
    object      hTotal;
}
// * * * * * * * * * * * * * * * * * * * * * * * * * * * * * * * * * * * * * //

dimensions      [0 1 0 0 0 0 0];

internalField   nonuniform List<scalar> 
400
(
0.0100003
0.0100003
0.0100002
0.0100001
0.00999993
0.00999973
0.00999951
0.00999928
0.00999906
0.00999888
0.00999879
0.0099988
0.00999893
0.00999916
0.00999945
0.00999973
0.00999995
0.0100001
0.0100001
0.0100001
0.0100003
0.0100002
0.0100001
0.01
0.00999984
0.00999963
0.00999938
0.00999912
0.00999887
0.00999866
0.00999855
0.00999858
0.00999875
0.00999901
0.00999934
0.00999964
0.00999986
0.00999997
0.01
0.01
0.0100003
0.0100002
0.0100001
0.01
0.00999984
0.0099996
0.00999932
0.00999902
0.00999872
0.00999847
0.00999833
0.00999835
0.00999854
0.0099989
0.00999932
0.00999971
0.00999999
0.0100001
0.0100001
0.01
0.0100003
0.0100003
0.0100002
0.0100001
0.00999986
0.00999959
0.00999925
0.00999886
0.00999845
0.00999808
0.00999786
0.0099979
0.00999822
0.00999876
0.00999936
0.0099998
0.01
0.01
0.00999999
0.00999997
0.0100004
0.0100004
0.0100003
0.0100002
0.00999994
0.00999963
0.00999922
0.0099987
0.00999812
0.00999755
0.00999717
0.00999719
0.00999772
0.00999862
0.00999958
0.0100002
0.0100004
0.0100003
0.0100001
0.01
0.0100005
0.0100005
0.0100004
0.0100003
0.0100001
0.00999978
0.00999926
0.00999854
0.0099977
0.00999686
0.00999632
0.00999628
0.00999708
0.00999847
0.00999979
0.0100005
0.0100005
0.0100002
0.00999995
0.00999992
0.0100007
0.0100007
0.0100006
0.0100006
0.0100004
0.0100001
0.00999957
0.00999858
0.00999708
0.00999533
0.00999412
0.00999455
0.00999671
0.00999952
0.0100014
0.0100016
0.0100008
0.0100001
0.00999976
0.00999988
0.0100008
0.0100008
0.0100009
0.0100009
0.0100009
0.0100007
0.0100002
0.00999917
0.0099973
0.00999426
0.00999027
0.00999022
0.00999452
0.0100002
0.0100034
0.0100031
0.0100013
0.00999988
0.00999952
0.00999984
0.0100009
0.010001
0.0100011
0.0100014
0.0100017
0.0100018
0.0100013
0.00999937
0.0099954
0.00998964
0.00998696
0.00998976
0.00999807
0.0100037
0.0100045
0.0100025
0.0100003
0.00999938
0.00999946
0.00999988
0.0100009
0.010001
0.0100012
0.0100017
0.0100025
0.0100039
0.0100057
0.0100077
0.0100048
0.0099784
0.00995241
0.00997584
0.0100089
0.0100179
0.0100105
0.0100024
0.00999889
0.00999893
0.0099998
0.0100002
0.0100008
0.010001
0.0100012
0.0100017
0.0100024
0.0100038
0.0100057
0.0100076
0.0100047
0.00997839
0.00995235
0.00997583
0.0100088
0.0100178
0.0100105
0.0100023
0.00999889
0.00999892
0.00999976
0.0100001
0.0100007
0.0100008
0.010001
0.0100012
0.0100015
0.0100016
0.0100011
0.00999918
0.00999522
0.00998951
0.00998652
0.00998959
0.00999796
0.0100036
0.0100044
0.0100023
0.0100002
0.00999935
0.00999947
0.00999989
0.0100005
0.0100005
0.0100006
0.0100006
0.0100006
0.0100004
0.00999991
0.00999888
0.00999703
0.00999396
0.00999031
0.00998999
0.00999426
0.00999999
0.0100031
0.0100029
0.0100012
0.0099998
0.00999949
0.00999983
0.0100002
0.0100002
0.0100002
0.0100001
0.00999999
0.00999969
0.00999913
0.00999815
0.00999665
0.0099949
0.00999373
0.00999414
0.00999637
0.00999922
0.0100011
0.0100014
0.0100007
0.00999994
0.00999966
0.00999984
0.00999991
0.00999989
0.00999984
0.00999973
0.00999953
0.00999921
0.0099987
0.009998
0.00999716
0.00999636
0.00999582
0.00999583
0.00999667
0.00999809
0.00999945
0.0100002
0.0100003
0.01
0.00999984
0.00999989
0.00999965
0.00999962
0.00999955
0.00999942
0.00999922
0.00999892
0.00999852
0.00999803
0.00999746
0.00999691
0.00999655
0.00999661
0.00999716
0.00999811
0.00999911
0.00999981
0.0100001
0.01
0.00999993
0.00999994
0.00999942
0.00999938
0.00999931
0.00999919
0.009999
0.00999874
0.00999842
0.00999805
0.00999766
0.00999733
0.00999717
0.00999723
0.00999759
0.00999818
0.00999885
0.00999939
0.0099997
0.00999982
0.00999987
0.00999993
0.00999922
0.00999919
0.00999913
0.00999901
0.00999884
0.00999862
0.00999835
0.00999806
0.00999777
0.00999754
0.00999743
0.0099975
0.00999776
0.00999818
0.00999866
0.00999912
0.00999947
0.00999968
0.00999982
0.00999993
0.00999907
0.00999905
0.00999898
0.00999888
0.00999873
0.00999853
0.00999831
0.00999808
0.00999786
0.00999769
0.00999762
0.00999767
0.00999788
0.00999821
0.00999862
0.00999903
0.00999937
0.00999962
0.0099998
0.00999993
0.00999894
0.00999891
0.00999884
0.00999873
0.00999859
0.00999841
0.0099982
0.00999798
0.00999779
0.00999764
0.00999759
0.00999765
0.00999784
0.00999814
0.0099985
0.00999886
0.0099992
0.00999947
0.00999969
0.00999988
)
;

boundaryField
{
    sides
    {
        type            calculated;
        value           nonuniform List<scalar> 
40
(
0.00999894
0.00999891
0.00999884
0.00999873
0.00999859
0.00999841
0.0099982
0.00999798
0.00999779
0.00999764
0.00999759
0.00999765
0.00999784
0.00999814
0.0099985
0.00999886
0.0099992
0.00999947
0.00999969
0.00999988
0.0100003
0.0100003
0.0100002
0.0100001
0.00999993
0.00999973
0.00999951
0.00999928
0.00999906
0.00999888
0.00999879
0.0099988
0.00999893
0.00999916
0.00999945
0.00999973
0.00999995
0.0100001
0.0100001
0.0100001
)
;
    }
    inlet
    {
        type            calculated;
        value           nonuniform List<scalar> 
20
(
0.0100003
0.0100003
0.0100003
0.0100003
0.0100004
0.0100005
0.0100007
0.0100008
0.0100009
0.0100009
0.0100008
0.0100007
0.0100005
0.0100002
0.00999991
0.00999965
0.00999942
0.00999922
0.00999907
0.00999894
)
;
    }
    outlet
    {
        type            calculated;
        value           uniform 0.01;
    }
    frontAndBack
    {
        type            empty;
    }
}


// ************************************************************************* //
