/*--------------------------------*- C++ -*----------------------------------*\
  =========                 |
  \\      /  F ield         | OpenFOAM: The Open Source CFD Toolbox
   \\    /   O peration     | Website:  https://openfoam.org
    \\  /    A nd           | Version:  9
     \\/     M anipulation  |
\*---------------------------------------------------------------------------*/
FoamFile
{
    format      ascii;
    class       volVectorField;
    location    "41";
    object      hU;
}
// * * * * * * * * * * * * * * * * * * * * * * * * * * * * * * * * * * * * * //

dimensions      [0 2 -1 0 0 0 0];

internalField   nonuniform List<vector> 
400
(
(0.001 -2.42221e-08 0)
(0.00100003 -7.49798e-08 0)
(0.00100011 -1.20402e-07 0)
(0.00100024 -1.56677e-07 0)
(0.00100039 -1.86414e-07 0)
(0.00100057 -2.13679e-07 0)
(0.00100077 -2.36097e-07 0)
(0.00100098 -2.47778e-07 0)
(0.00100117 -2.39452e-07 0)
(0.00100132 -2.11764e-07 0)
(0.0010014 -1.64817e-07 0)
(0.00100139 -1.2521e-07 0)
(0.00100127 -9.86926e-08 0)
(0.00100109 -9.57983e-08 0)
(0.00100085 -1.03056e-07 0)
(0.00100063 -1.36136e-07 0)
(0.00100041 -1.53974e-07 0)
(0.00100029 -1.98795e-07 0)
(0.00100021 -1.87406e-07 0)
(0.00100029 -2.68665e-07 0)
(0.001 -2.65196e-08 0)
(0.00100004 -8.8752e-08 0)
(0.00100013 -1.45475e-07 0)
(0.00100026 -1.85699e-07 0)
(0.00100042 -2.12464e-07 0)
(0.00100061 -2.329e-07 0)
(0.00100083 -2.42847e-07 0)
(0.00100106 -2.24923e-07 0)
(0.00100129 -1.61286e-07 0)
(0.00100147 -4.94279e-08 0)
(0.00100156 9.84268e-08 0)
(0.00100153 2.54485e-07 0)
(0.00100139 3.89295e-07 0)
(0.00100117 4.6798e-07 0)
(0.0010009 4.95106e-07 0)
(0.00100064 4.50036e-07 0)
(0.00100045 3.88345e-07 0)
(0.00100033 2.64956e-07 0)
(0.00100029 1.9856e-07 0)
(0.00100025 7.43326e-08 0)
(0.001 -5.21408e-08 0)
(0.00100004 -1.73077e-07 0)
(0.00100013 -2.92236e-07 0)
(0.00100026 -3.91759e-07 0)
(0.00100042 -4.72664e-07 0)
(0.00100064 -5.44197e-07 0)
(0.00100089 -5.98436e-07 0)
(0.00100116 -6.03539e-07 0)
(0.00100142 -5.2729e-07 0)
(0.00100164 -3.53515e-07 0)
(0.00100176 -1.02009e-07 0)
(0.00100174 1.73599e-07 0)
(0.00100157 4.02385e-07 0)
(0.00100128 5.07128e-07 0)
(0.00100092 4.84543e-07 0)
(0.0010006 3.5078e-07 0)
(0.00100034 2.16266e-07 0)
(0.00100022 5.71199e-08 0)
(0.00100017 -1.03523e-08 0)
(0.00100026 -1.25199e-07 0)
(0.001 -7.29845e-08 0)
(0.00100004 -2.41076e-07 0)
(0.00100013 -4.08342e-07 0)
(0.00100026 -5.54073e-07 0)
(0.00100044 -6.79079e-07 0)
(0.00100069 -7.95395e-07 0)
(0.00100099 -8.82484e-07 0)
(0.00100133 -8.93093e-07 0)
(0.0010017 -7.66769e-07 0)
(0.00100202 -4.76509e-07 0)
(0.00100221 -6.82957e-09 0)
(0.00100218 5.09346e-07 0)
(0.00100191 9.37998e-07 0)
(0.00100144 1.12422e-06 0)
(0.00100095 1.03657e-06 0)
(0.00100055 7.41165e-07 0)
(0.00100038 4.43295e-07 0)
(0.00100032 1.8617e-07 0)
(0.00100036 9.44029e-08 0)
(0.00100031 -1.048e-08 0)
(0.001 -9.05544e-08 0)
(0.00100004 -2.99303e-07 0)
(0.00100012 -5.14484e-07 0)
(0.00100025 -7.20286e-07 0)
(0.00100044 -9.19241e-07 0)
(0.00100072 -1.12322e-06 0)
(0.00100109 -1.29138e-06 0)
(0.00100155 -1.34486e-06 0)
(0.00100206 -1.18675e-06 0)
(0.00100256 -7.79073e-07 0)
(0.00100289 -1.56654e-07 0)
(0.00100286 5.98101e-07 0)
(0.00100242 1.23375e-06 0)
(0.00100165 1.4961e-06 0)
(0.00100083 1.35659e-06 0)
(0.00100028 9.62973e-07 0)
(0.0010001 6.03532e-07 0)
(0.00100018 3.3288e-07 0)
(0.00100032 2.51645e-07 0)
(0.00100039 1.54901e-07 0)
(0.000999999 -1.03467e-07 0)
(0.00100003 -3.40446e-07 0)
(0.00100009 -5.99707e-07 0)
(0.00100019 -8.7046e-07 0)
(0.00100037 -1.17079e-06 0)
(0.00100068 -1.50861e-06 0)
(0.00100115 -1.851e-06 0)
(0.00100178 -2.06133e-06 0)
(0.00100253 -1.9245e-06 0)
(0.00100325 -1.19934e-06 0)
(0.00100376 9.76609e-08 0)
(0.00100376 1.56231e-06 0)
(0.00100307 2.43737e-06 0)
(0.00100189 2.28818e-06 0)
(0.00100079 1.41171e-06 0)
(0.00100015 4.91734e-07 0)
(0.00100014 3.41433e-08 0)
(0.00100034 -6.74235e-08 0)
(0.00100061 5.38627e-08 0)
(0.00100051 3.92292e-08 0)
(0.000999997 -1.0344e-07 0)
(0.00100001 -3.53583e-07 0)
(0.00100003 -6.353e-07 0)
(0.00100007 -9.84353e-07 0)
(0.0010002 -1.3899e-06 0)
(0.00100048 -1.93078e-06 0)
(0.001001 -2.48083e-06 0)
(0.00100188 -3.08932e-06 0)
(0.0010032 -3.24194e-06 0)
(0.00100472 -2.87966e-06 0)
(0.00100572 -6.53713e-07 0)
(0.00100534 2.56963e-06 0)
(0.00100347 4.83169e-06 0)
(0.0010011 4.7233e-06 0)
(0.000999577 3.012e-06 0)
(0.000999334 1.26637e-06 0)
(0.000999969 4.5621e-07 0)
(0.00100053 3.47741e-07 0)
(0.00100089 5.56609e-07 0)
(0.00100062 5.22894e-07 0)
(0.000999993 -9.37429e-08 0)
(0.000999974 -3.04436e-07 0)
(0.000999912 -6.02284e-07 0)
(0.00099987 -9.73414e-07 0)
(0.000999872 -1.5746e-06 0)
(0.0010001 -2.33124e-06 0)
(0.00100051 -3.39488e-06 0)
(0.00100153 -4.12845e-06 0)
(0.00100308 -4.3785e-06 0)
(0.001006 -2.54932e-06 0)
(0.00100906 7.63136e-07 0)
(0.00100913 4.28212e-06 0)
(0.00100549 4.72149e-06 0)
(0.00100071 2.7742e-06 0)
(0.000998115 7.25039e-07 0)
(0.000998236 -2.70863e-07 0)
(0.00099976 -2.62968e-07 0)
(0.00100084 1.00237e-08 0)
(0.0010013 2.1118e-07 0)
(0.00100081 9.5431e-08 0)
(0.000999992 -5.02584e-08 0)
(0.000999923 -2.13342e-07 0)
(0.000999761 -4.01225e-07 0)
(0.000999524 -7.43797e-07 0)
(0.00099928 -1.33469e-06 0)
(0.000999212 -2.47045e-06 0)
(0.000999712 -4.68041e-06 0)
(0.0010014 -8.06874e-06 0)
(0.00100491 -1.32878e-05 0)
(0.00100956 -1.4913e-05 0)
(0.00101189 3.84777e-06 0)
(0.00100891 1.8739e-05 0)
(0.00100219 1.57802e-05 0)
(0.000997539 5.73413e-06 0)
(0.000996849 -3.21861e-07 0)
(0.00099842 -1.26039e-06 0)
(0.00100023 -7.83344e-08 0)
(0.00100097 6.49796e-07 0)
(0.00100104 6.5429e-07 0)
(0.00100051 2.38177e-07 0)
(0.000999801 -2.01136e-08 0)
(0.00100018 -6.87885e-08 0)
(0.000999221 -1.54087e-07 0)
(0.000999896 -2.48289e-07 0)
(0.000997513 -5.86761e-07 0)
(0.000998845 -1.12318e-06 0)
(0.000993355 -2.87668e-06 0)
(0.000997535 -5.58865e-06 0)
(0.000991661 -1.15399e-05 0)
(0.000915818 -1.27057e-05 0)
(0.000951453 2.72279e-07 0)
(0.0010102 1.46336e-05 0)
(0.000990929 1.3081e-05 0)
(0.000983947 5.13601e-06 0)
(0.000989547 1.91632e-07 0)
(0.000996238 -7.77069e-07 0)
(0.000999198 -1.00905e-07 0)
(0.000999382 2.59995e-07 0)
(0.000998619 1.81311e-07 0)
(0.000998469 -1.86994e-07 0)
(0.000999801 1.3849e-08 0)
(0.00100018 5.1997e-08 0)
(0.000999221 1.27535e-07 0)
(0.000999894 2.09675e-07 0)
(0.00099751 5.36047e-07 0)
(0.00099884 1.05532e-06 0)
(0.000993347 2.79065e-06 0)
(0.000997523 5.47791e-06 0)
(0.000991644 1.13971e-05 0)
(0.000915795 1.25465e-05 0)
(0.000951407 -4.77958e-07 0)
(0.00101019 -1.49166e-05 0)
(0.000990927 -1.34137e-05 0)
(0.000983938 -5.53619e-06 0)
(0.00098953 -6.45099e-07 0)
(0.0009962 2.53981e-07 0)
(0.000999156 -4.68275e-07 0)
(0.000999336 -9.96369e-07 0)
(0.000998604 -9.76955e-07 0)
(0.000998419 -8.85683e-07 0)
(0.000999992 4.40219e-08 0)
(0.000999923 1.96908e-07 0)
(0.000999759 3.74957e-07 0)
(0.000999522 7.0585e-07 0)
(0.000999277 1.28464e-06 0)
(0.000999211 2.40306e-06 0)
(0.000999708 4.59281e-06 0)
(0.00100139 7.95059e-06 0)
(0.0010049 1.31375e-05 0)
(0.00100957 1.47177e-05 0)
(0.00101187 -4.07618e-06 0)
(0.00100888 -1.90152e-05 0)
(0.00100212 -1.61032e-05 0)
(0.000997449 -6.11959e-06 0)
(0.000996777 -7.69428e-08 0)
(0.000998358 7.80336e-07 0)
(0.00100013 -4.28896e-07 0)
(0.00100082 -1.30438e-06 0)
(0.00100085 -1.36545e-06 0)
(0.00100033 -1.24487e-06 0)
(0.000999993 8.76176e-08 0)
(0.000999973 2.8851e-07 0)
(0.000999908 5.76342e-07 0)
(0.000999863 9.36524e-07 0)
(0.000999862 1.52322e-06 0)
(0.00100008 2.26151e-06 0)
(0.00100048 3.29808e-06 0)
(0.00100149 4.00198e-06 0)
(0.00100303 4.22011e-06 0)
(0.00100592 2.36335e-06 0)
(0.001009 -9.92461e-07 0)
(0.00100904 -4.55601e-06 0)
(0.0010054 -5.02848e-06 0)
(0.00100064 -3.12342e-06 0)
(0.000998021 -1.12004e-06 0)
(0.000998094 -2.45762e-07 0)
(0.000999584 -3.2925e-07 0)
(0.00100061 -7.43729e-07 0)
(0.00100103 -9.4944e-07 0)
(0.00100052 -1.06474e-06 0)
(0.000999998 9.76498e-08 0)
(0.00100001 3.37932e-07 0)
(0.00100002 6.10655e-07 0)
(0.00100006 9.49326e-07 0)
(0.00100019 1.34305e-06 0)
(0.00100046 1.86786e-06 0)
(0.00100097 2.40115e-06 0)
(0.00100185 2.98717e-06 0)
(0.00100317 3.12283e-06 0)
(0.00100468 2.72877e-06 0)
(0.00100567 4.91976e-07 0)
(0.00100525 -2.77803e-06 0)
(0.00100336 -5.08717e-06 0)
(0.00100093 -5.06061e-06 0)
(0.000999374 -3.43231e-06 0)
(0.000999083 -1.78714e-06 0)
(0.000999708 -1.0314e-06 0)
(0.00100022 -1.06411e-06 0)
(0.00100058 -1.28675e-06 0)
(0.0010002 -1.50401e-06 0)
(0.000999999 9.83504e-08 0)
(0.00100003 3.26212e-07 0)
(0.00100008 5.7765e-07 0)
(0.00100018 8.3981e-07 0)
(0.00100036 1.13027e-06 0)
(0.00100066 1.4541e-06 0)
(0.00100111 1.78019e-06 0)
(0.00100174 1.96629e-06 0)
(0.00100247 1.79815e-06 0)
(0.00100316 1.03434e-06 0)
(0.00100364 -3.05083e-07 0)
(0.00100361 -1.80945e-06 0)
(0.0010029 -2.71883e-06 0)
(0.00100168 -2.61788e-06 0)
(0.00100055 -1.75936e-06 0)
(0.000999868 -8.8742e-07 0)
(0.000999823 -4.3785e-07 0)
(0.000999948 -4.53907e-07 0)
(0.00100019 -5.95373e-07 0)
(0.00099997 -8.35907e-07 0)
(0.001 8.61003e-08 0)
(0.00100003 2.86897e-07 0)
(0.00100011 4.95428e-07 0)
(0.00100023 6.94597e-07 0)
(0.00100042 8.85225e-07 0)
(0.00100069 1.07793e-06 0)
(0.00100105 1.23126e-06 0)
(0.00100149 1.26771e-06 0)
(0.00100199 1.08936e-06 0)
(0.00100247 6.57367e-07 0)
(0.00100279 4.80504e-10 0)
(0.00100273 -7.93102e-07 0)
(0.00100225 -1.45782e-06 0)
(0.00100143 -1.76134e-06 0)
(0.00100059 -1.6488e-06 0)
(0.000999973 -1.34048e-06 0)
(0.00099976 -1.04111e-06 0)
(0.000999729 -9.43527e-07 0)
(0.00099985 -9.2446e-07 0)
(0.000999733 -1.09581e-06 0)
(0.001 6.91847e-08 0)
(0.00100004 2.2935e-07 0)
(0.00100012 3.90099e-07 0)
(0.00100025 5.30243e-07 0)
(0.00100042 6.50337e-07 0)
(0.00100066 7.59383e-07 0)
(0.00100095 8.37968e-07 0)
(0.00100128 8.38459e-07 0)
(0.00100162 7.05886e-07 0)
(0.00100191 4.08479e-07 0)
(0.00100205 -6.01958e-08 0)
(0.00100198 -5.94463e-07 0)
(0.00100168 -1.04025e-06 0)
(0.00100117 -1.26682e-06 0)
(0.00100062 -1.2103e-06 0)
(0.00100013 -9.86995e-07 0)
(0.000999882 -7.12951e-07 0)
(0.000999703 -5.6322e-07 0)
(0.000999716 -4.69194e-07 0)
(0.000999525 -5.87208e-07 0)
(0.001 5.05751e-08 0)
(0.00100003 1.65703e-07 0)
(0.00100012 2.75514e-07 0)
(0.00100024 3.6136e-07 0)
(0.00100041 4.26036e-07 0)
(0.00100061 4.78024e-07 0)
(0.00100085 5.09386e-07 0)
(0.00100111 4.84118e-07 0)
(0.00100136 3.73661e-07 0)
(0.00100156 1.58059e-07 0)
(0.00100166 -1.2861e-07 0)
(0.00100159 -4.35672e-07 0)
(0.00100137 -6.83905e-07 0)
(0.00100101 -8.30167e-07 0)
(0.00100061 -8.35095e-07 0)
(0.00100019 -7.64978e-07 0)
(0.000999918 -6.46446e-07 0)
(0.000999649 -6.02697e-07 0)
(0.00099959 -5.48949e-07 0)
(0.000999353 -6.76297e-07 0)
(0.001 3.47285e-08 0)
(0.00100003 1.13821e-07 0)
(0.00100011 1.91464e-07 0)
(0.00100022 2.55319e-07 0)
(0.00100037 3.04795e-07 0)
(0.00100055 3.46287e-07 0)
(0.00100075 3.7541e-07 0)
(0.00100096 3.75349e-07 0)
(0.00100116 3.27263e-07 0)
(0.0010013 2.25308e-07 0)
(0.00100136 8.01518e-08 0)
(0.0010013 -7.9224e-08 0)
(0.00100113 -2.08896e-07 0)
(0.00100084 -2.90748e-07 0)
(0.00100051 -3.027e-07 0)
(0.00100014 -2.77896e-07 0)
(0.000999869 -2.08576e-07 0)
(0.000999571 -1.7311e-07 0)
(0.000999478 -1.10779e-07 0)
(0.000999217 -1.93285e-07 0)
(0.001 -4.13492e-09 0)
(0.00100003 -7.91673e-09 0)
(0.00100011 -8.61221e-09 0)
(0.00100023 -1.07581e-08 0)
(0.00100038 -1.6047e-08 0)
(0.00100055 -2.39626e-08 0)
(0.00100074 -3.4289e-08 0)
(0.00100093 -5.22989e-08 0)
(0.00100111 -8.01939e-08 0)
(0.00100123 -1.21834e-07 0)
(0.00100128 -1.73144e-07 0)
(0.0010012 -2.34755e-07 0)
(0.00100105 -2.90289e-07 0)
(0.00100078 -3.37618e-07 0)
(0.00100051 -3.55466e-07 0)
(0.00100016 -3.66079e-07 0)
(0.000999914 -3.44098e-07 0)
(0.000999567 -3.54128e-07 0)
(0.000999483 -3.24915e-07 0)
(0.000999098 -4.0863e-07 0)
)
;

boundaryField
{
    sides
    {
        type            slip;
    }
    inlet
    {
        type            fixedValue;
        value           uniform (0.001 0 0);
    }
    outlet
    {
        type            zeroGradient;
    }
    frontAndBack
    {
        type            empty;
    }
}


// ************************************************************************* //
