/*--------------------------------*- C++ -*----------------------------------*\
  =========                 |
  \\      /  F ield         | OpenFOAM: The Open Source CFD Toolbox
   \\    /   O peration     | Website:  https://openfoam.org
    \\  /    A nd           | Version:  9
     \\/     M anipulation  |
\*---------------------------------------------------------------------------*/
FoamFile
{
    format      ascii;
    class       volVectorField;
    location    "41";
    object      hU_0;
}
// * * * * * * * * * * * * * * * * * * * * * * * * * * * * * * * * * * * * * //

dimensions      [0 2 -1 0 0 0 0];

internalField   nonuniform List<vector> 
400
(
(0.001 -2.47028e-08 0)
(0.00100003 -7.611e-08 0)
(0.00100012 -1.20982e-07 0)
(0.00100024 -1.56365e-07 0)
(0.00100039 -1.85943e-07 0)
(0.00100057 -2.14181e-07 0)
(0.00100077 -2.37219e-07 0)
(0.00100098 -2.48761e-07 0)
(0.00100117 -2.39743e-07 0)
(0.00100132 -2.11414e-07 0)
(0.0010014 -1.64369e-07 0)
(0.00100138 -1.2568e-07 0)
(0.00100127 -9.93469e-08 0)
(0.00100109 -9.62126e-08 0)
(0.00100085 -1.02921e-07 0)
(0.00100062 -1.35652e-07 0)
(0.0010004 -1.53974e-07 0)
(0.00100029 -1.99535e-07 0)
(0.00100021 -1.88186e-07 0)
(0.00100029 -2.68933e-07 0)
(0.001 -2.77601e-08 0)
(0.00100004 -9.1703e-08 0)
(0.00100013 -1.47176e-07 0)
(0.00100026 -1.85062e-07 0)
(0.00100042 -2.11539e-07 0)
(0.00100061 -2.34354e-07 0)
(0.00100083 -2.45781e-07 0)
(0.00100106 -2.27747e-07 0)
(0.00100129 -1.62194e-07 0)
(0.00100147 -4.90742e-08 0)
(0.00100156 9.90959e-08 0)
(0.00100153 2.53569e-07 0)
(0.00100139 3.87437e-07 0)
(0.00100117 4.67098e-07 0)
(0.0010009 4.95731e-07 0)
(0.00100064 4.51775e-07 0)
(0.00100045 3.88781e-07 0)
(0.00100032 2.62019e-07 0)
(0.00100028 1.95607e-07 0)
(0.00100024 7.39916e-08 0)
(0.001 -5.41821e-08 0)
(0.00100004 -1.77388e-07 0)
(0.00100013 -2.94405e-07 0)
(0.00100026 -3.90648e-07 0)
(0.00100043 -4.71915e-07 0)
(0.00100064 -5.46704e-07 0)
(0.00100089 -6.03136e-07 0)
(0.00100116 -6.07933e-07 0)
(0.00100142 -5.28959e-07 0)
(0.00100164 -3.53026e-07 0)
(0.00100176 -1.01701e-07 0)
(0.00100174 1.72704e-07 0)
(0.00100157 3.99541e-07 0)
(0.00100129 5.05746e-07 0)
(0.00100092 4.85782e-07 0)
(0.0010006 3.53415e-07 0)
(0.00100033 2.17059e-07 0)
(0.00100021 5.38709e-08 0)
(0.00100017 -1.36101e-08 0)
(0.00100025 -1.25464e-07 0)
(0.001 -7.59017e-08 0)
(0.00100004 -2.46298e-07 0)
(0.00100013 -4.10565e-07 0)
(0.00100026 -5.52719e-07 0)
(0.00100045 -6.78726e-07 0)
(0.00100069 -7.98884e-07 0)
(0.00100099 -8.88959e-07 0)
(0.00100133 -8.98648e-07 0)
(0.0010017 -7.69553e-07 0)
(0.00100202 -4.75415e-07 0)
(0.00100221 -6.26753e-09 0)
(0.00100218 5.07422e-07 0)
(0.00100191 9.3514e-07 0)
(0.00100144 1.12249e-06 0)
(0.00100095 1.03824e-06 0)
(0.00100055 7.44811e-07 0)
(0.00100037 4.44412e-07 0)
(0.00100031 1.82338e-07 0)
(0.00100036 9.0844e-08 0)
(0.0010003 -1.05002e-08 0)
(0.001 -9.38808e-08 0)
(0.00100004 -3.04849e-07 0)
(0.00100012 -5.17026e-07 0)
(0.00100025 -7.19368e-07 0)
(0.00100044 -9.19177e-07 0)
(0.00100072 -1.12742e-06 0)
(0.00100109 -1.29881e-06 0)
(0.00100155 -1.35172e-06 0)
(0.00100206 -1.18918e-06 0)
(0.00100256 -7.79557e-07 0)
(0.00100289 -1.5485e-07 0)
(0.00100287 5.95715e-07 0)
(0.00100242 1.23044e-06 0)
(0.00100165 1.49474e-06 0)
(0.00100083 1.35821e-06 0)
(0.00100028 9.66698e-07 0)
(0.0010001 6.04839e-07 0)
(0.00100017 3.28769e-07 0)
(0.00100032 2.47875e-07 0)
(0.00100039 1.5513e-07 0)
(0.000999999 -1.06645e-07 0)
(0.00100003 -3.45921e-07 0)
(0.00100009 -6.02559e-07 0)
(0.00100019 -8.69903e-07 0)
(0.00100038 -1.17082e-06 0)
(0.00100068 -1.51299e-06 0)
(0.00100115 -1.85892e-06 0)
(0.00100178 -2.06818e-06 0)
(0.00100253 -1.9273e-06 0)
(0.00100325 -1.20035e-06 0)
(0.00100376 9.7718e-08 0)
(0.00100376 1.56144e-06 0)
(0.00100308 2.43257e-06 0)
(0.00100189 2.2863e-06 0)
(0.00100078 1.41385e-06 0)
(0.00100015 4.95516e-07 0)
(0.00100014 3.53511e-08 0)
(0.00100034 -7.07224e-08 0)
(0.0010006 5.06964e-08 0)
(0.0010005 3.9317e-08 0)
(0.000999998 -1.0613e-07 0)
(0.00100001 -3.58526e-07 0)
(0.00100003 -6.38124e-07 0)
(0.00100007 -9.83938e-07 0)
(0.00100021 -1.38987e-06 0)
(0.00100049 -1.93494e-06 0)
(0.001001 -2.48804e-06 0)
(0.00100188 -3.09534e-06 0)
(0.0010032 -3.24592e-06 0)
(0.00100472 -2.87791e-06 0)
(0.00100573 -6.64221e-07 0)
(0.00100534 2.56912e-06 0)
(0.00100347 4.82932e-06 0)
(0.0010011 4.72128e-06 0)
(0.000999576 3.01422e-06 0)
(0.000999333 1.2708e-06 0)
(0.000999969 4.57977e-07 0)
(0.00100053 3.44042e-07 0)
(0.00100089 5.52964e-07 0)
(0.00100062 5.22771e-07 0)
(0.000999993 -9.5834e-08 0)
(0.000999975 -3.08369e-07 0)
(0.000999911 -6.046e-07 0)
(0.00099987 -9.72991e-07 0)
(0.000999873 -1.57445e-06 0)
(0.0010001 -2.33471e-06 0)
(0.00100051 -3.40073e-06 0)
(0.00100153 -4.13398e-06 0)
(0.00100308 -4.38141e-06 0)
(0.001006 -2.55103e-06 0)
(0.00100909 7.7308e-07 0)
(0.00100914 4.27943e-06 0)
(0.00100549 4.71947e-06 0)
(0.00100071 2.77342e-06 0)
(0.000998115 7.26403e-07 0)
(0.000998235 -2.67368e-07 0)
(0.00099976 -2.61435e-07 0)
(0.00100084 7.0117e-09 0)
(0.0010013 2.07888e-07 0)
(0.00100081 9.49013e-08 0)
(0.000999992 -5.16422e-08 0)
(0.000999924 -2.15778e-07 0)
(0.00099976 -4.02522e-07 0)
(0.000999523 -7.43201e-07 0)
(0.000999282 -1.33432e-06 0)
(0.000999214 -2.47254e-06 0)
(0.000999713 -4.68422e-06 0)
(0.0010014 -8.07244e-06 0)
(0.00100491 -1.32898e-05 0)
(0.00100957 -1.49142e-05 0)
(0.00101188 3.85801e-06 0)
(0.0010089 1.87368e-05 0)
(0.00100219 1.57792e-05 0)
(0.000997539 5.73419e-06 0)
(0.000996848 -3.20868e-07 0)
(0.000998419 -1.25834e-06 0)
(0.00100023 -7.77249e-08 0)
(0.00100097 6.47646e-07 0)
(0.00100104 6.51459e-07 0)
(0.0010005 2.37274e-07 0)
(0.000999801 -2.05466e-08 0)
(0.00100018 -6.92968e-08 0)
(0.00099922 -1.5403e-07 0)
(0.000999896 -2.47547e-07 0)
(0.000997515 -5.86108e-07 0)
(0.000998848 -1.12369e-06 0)
(0.000993356 -2.8781e-06 0)
(0.000997536 -5.58974e-06 0)
(0.000991662 -1.15407e-05 0)
(0.000915824 -1.27038e-05 0)
(0.00095145 2.63804e-07 0)
(0.00101021 1.46361e-05 0)
(0.000990932 1.30822e-05 0)
(0.000983945 5.13655e-06 0)
(0.000989545 1.9313e-07 0)
(0.000996237 -7.75651e-07 0)
(0.000999197 -1.0059e-07 0)
(0.000999381 2.58958e-07 0)
(0.000998616 1.79448e-07 0)
(0.000998467 -1.88073e-07 0)
(0.000999801 1.46042e-08 0)
(0.00100018 5.36073e-08 0)
(0.000999219 1.28934e-07 0)
(0.000999894 2.1038e-07 0)
(0.000997512 5.36668e-07 0)
(0.000998842 1.05642e-06 0)
(0.000993349 2.79152e-06 0)
(0.000997524 5.47874e-06 0)
(0.000991647 1.13979e-05 0)
(0.000915795 1.25478e-05 0)
(0.000951417 -4.8569e-07 0)
(0.00101019 -1.49133e-05 0)
(0.000990927 -1.34134e-05 0)
(0.000983938 -5.5351e-06 0)
(0.000989528 -6.44051e-07 0)
(0.000996198 2.54426e-07 0)
(0.000999154 -4.68121e-07 0)
(0.000999335 -9.95614e-07 0)
(0.000998601 -9.77053e-07 0)
(0.000998416 -8.86699e-07 0)
(0.000999993 4.58828e-08 0)
(0.000999923 2.00413e-07 0)
(0.000999758 3.77586e-07 0)
(0.000999521 7.0651e-07 0)
(0.000999278 1.28515e-06 0)
(0.000999213 2.40559e-06 0)
(0.000999709 4.59682e-06 0)
(0.0010014 7.9537e-06 0)
(0.0010049 1.31391e-05 0)
(0.00100956 1.47144e-05 0)
(0.00101187 -4.06737e-06 0)
(0.00100889 -1.9019e-05 0)
(0.00100212 -1.61026e-05 0)
(0.000997449 -6.1184e-06 0)
(0.000996776 -7.72276e-08 0)
(0.000998356 7.79445e-07 0)
(0.00100012 -4.28835e-07 0)
(0.00100082 -1.30213e-06 0)
(0.00100085 -1.3642e-06 0)
(0.00100033 -1.24584e-06 0)
(0.000999993 9.03018e-08 0)
(0.000999974 2.934e-07 0)
(0.000999907 5.79712e-07 0)
(0.000999863 9.37039e-07 0)
(0.000999864 1.52364e-06 0)
(0.00100008 2.26519e-06 0)
(0.00100049 3.30418e-06 0)
(0.00100149 4.00733e-06 0)
(0.00100303 4.22167e-06 0)
(0.00100594 2.36091e-06 0)
(0.00100901 -9.87083e-07 0)
(0.00100903 -4.55857e-06 0)
(0.00100541 -5.02713e-06 0)
(0.00100064 -3.12251e-06 0)
(0.00099802 -1.1208e-06 0)
(0.000998093 -2.47585e-07 0)
(0.000999583 -3.29303e-07 0)
(0.00100061 -7.40188e-07 0)
(0.00100103 -9.47391e-07 0)
(0.00100051 -1.06596e-06 0)
(0.000999998 1.00781e-07 0)
(0.00100001 3.43605e-07 0)
(0.00100002 6.14191e-07 0)
(0.00100006 9.4959e-07 0)
(0.00100019 1.34352e-06 0)
(0.00100046 1.8722e-06 0)
(0.00100097 2.40824e-06 0)
(0.00100185 2.99333e-06 0)
(0.00100317 3.12551e-06 0)
(0.00100468 2.73069e-06 0)
(0.00100566 4.81582e-07 0)
(0.00100526 -2.77447e-06 0)
(0.00100336 -5.08356e-06 0)
(0.00100093 -5.05823e-06 0)
(0.000999374 -3.43288e-06 0)
(0.000999082 -1.78963e-06 0)
(0.000999707 -1.03185e-06 0)
(0.00100022 -1.06011e-06 0)
(0.00100058 -1.28442e-06 0)
(0.0010002 -1.50548e-06 0)
(0.000999999 1.01495e-07 0)
(0.00100003 3.32082e-07 0)
(0.00100008 5.81083e-07 0)
(0.00100018 8.3983e-07 0)
(0.00100036 1.13085e-06 0)
(0.00100066 1.4587e-06 0)
(0.00100112 1.7878e-06 0)
(0.00100174 1.9725e-06 0)
(0.00100247 1.8015e-06 0)
(0.00100316 1.03434e-06 0)
(0.00100364 -3.03159e-07 0)
(0.00100362 -1.80561e-06 0)
(0.0010029 -2.71369e-06 0)
(0.00100168 -2.61427e-06 0)
(0.00100055 -1.7596e-06 0)
(0.000999867 -8.89991e-07 0)
(0.000999822 -4.38718e-07 0)
(0.000999946 -4.50139e-07 0)
(0.00100018 -5.92993e-07 0)
(0.000999967 -8.37403e-07 0)
(0.001 8.90106e-08 0)
(0.00100004 2.92525e-07 0)
(0.00100011 4.98594e-07 0)
(0.00100023 6.94256e-07 0)
(0.00100042 8.85575e-07 0)
(0.00100069 1.08231e-06 0)
(0.00100105 1.2385e-06 0)
(0.00100149 1.27356e-06 0)
(0.00100199 1.09177e-06 0)
(0.00100247 6.5734e-07 0)
(0.00100279 7.33786e-10 0)
(0.00100273 -7.90607e-07 0)
(0.00100226 -1.45312e-06 0)
(0.00100144 -1.75809e-06 0)
(0.00100059 -1.64912e-06 0)
(0.000999972 -1.34319e-06 0)
(0.000999757 -1.0421e-06 0)
(0.000999726 -9.39624e-07 0)
(0.000999847 -9.2183e-07 0)
(0.000999729 -1.09715e-06 0)
(0.001 7.18203e-08 0)
(0.00100004 2.34381e-07 0)
(0.00100012 3.92773e-07 0)
(0.00100025 5.29584e-07 0)
(0.00100042 6.50198e-07 0)
(0.00100066 7.629e-07 0)
(0.00100095 8.44073e-07 0)
(0.00100128 8.43584e-07 0)
(0.00100162 7.07683e-07 0)
(0.00100191 4.07764e-07 0)
(0.00100205 -6.10814e-08 0)
(0.00100198 -5.92603e-07 0)
(0.00100169 -1.03628e-06 0)
(0.00100117 -1.26431e-06 0)
(0.00100062 -1.21102e-06 0)
(0.00100013 -9.89675e-07 0)
(0.000999879 -7.13704e-07 0)
(0.000999699 -5.59212e-07 0)
(0.000999712 -4.66285e-07 0)
(0.000999522 -5.88153e-07 0)
(0.001 5.29058e-08 0)
(0.00100003 1.69936e-07 0)
(0.00100012 2.77303e-07 0)
(0.00100025 3.60133e-07 0)
(0.00100041 4.25281e-07 0)
(0.00100061 4.80564e-07 0)
(0.00100085 5.14074e-07 0)
(0.00100111 4.88185e-07 0)
(0.00100136 3.74949e-07 0)
(0.00100156 1.57158e-07 0)
(0.00100166 -1.29453e-07 0)
(0.00100159 -4.34139e-07 0)
(0.00100137 -6.80968e-07 0)
(0.00100101 -8.28587e-07 0)
(0.00100061 -8.3585e-07 0)
(0.00100019 -7.6705e-07 0)
(0.000999915 -6.46816e-07 0)
(0.000999645 -5.99086e-07 0)
(0.000999587 -5.46026e-07 0)
(0.000999349 -6.76699e-07 0)
(0.001 3.63314e-08 0)
(0.00100003 1.16721e-07 0)
(0.00100011 1.92575e-07 0)
(0.00100023 2.54183e-07 0)
(0.00100037 3.03951e-07 0)
(0.00100055 3.47712e-07 0)
(0.00100075 3.7836e-07 0)
(0.00100096 3.77961e-07 0)
(0.00100116 3.28228e-07 0)
(0.0010013 2.24883e-07 0)
(0.00100136 7.96817e-08 0)
(0.0010013 -7.85266e-08 0)
(0.00100113 -2.07322e-07 0)
(0.00100084 -2.89771e-07 0)
(0.00100051 -3.03239e-07 0)
(0.00100014 -2.79376e-07 0)
(0.000999865 -2.08733e-07 0)
(0.000999567 -1.70362e-07 0)
(0.000999475 -1.08479e-07 0)
(0.000999212 -1.93409e-07 0)
(0.001 -3.61043e-09 0)
(0.00100003 -6.92539e-09 0)
(0.00100012 -8.11315e-09 0)
(0.00100024 -1.10472e-08 0)
(0.00100038 -1.63437e-08 0)
(0.00100055 -2.35875e-08 0)
(0.00100074 -3.33756e-08 0)
(0.00100093 -5.14262e-08 0)
(0.00100111 -7.9659e-08 0)
(0.00100123 -1.21767e-07 0)
(0.00100127 -1.73125e-07 0)
(0.0010012 -2.3414e-07 0)
(0.00100105 -2.89508e-07 0)
(0.00100078 -3.37294e-07 0)
(0.00100051 -3.55784e-07 0)
(0.00100015 -3.66691e-07 0)
(0.000999911 -3.44166e-07 0)
(0.000999563 -3.5309e-07 0)
(0.00099948 -3.24013e-07 0)
(0.000999093 -4.08632e-07 0)
)
;

boundaryField
{
    sides
    {
        type            slip;
    }
    inlet
    {
        type            fixedValue;
        value           uniform (0.001 0 0);
    }
    outlet
    {
        type            zeroGradient;
    }
    frontAndBack
    {
        type            empty;
    }
}


// ************************************************************************* //
