/*--------------------------------*- C++ -*----------------------------------*\
  =========                 |
  \\      /  F ield         | OpenFOAM: The Open Source CFD Toolbox
   \\    /   O peration     | Website:  https://openfoam.org
    \\  /    A nd           | Version:  9
     \\/     M anipulation  |
\*---------------------------------------------------------------------------*/
FoamFile
{
    format      ascii;
    class       volVectorField;
    location    "41";
    object      U;
}
// * * * * * * * * * * * * * * * * * * * * * * * * * * * * * * * * * * * * * //

dimensions      [0 1 -1 0 0 0 0];

internalField   nonuniform List<vector> 
400
(
(0.0999971 -2.42214e-06 0)
(0.1 -7.49777e-06 0)
(0.100009 -1.204e-05 0)
(0.100023 -1.56676e-05 0)
(0.10004 -1.86415e-05 0)
(0.10006 -2.13685e-05 0)
(0.100082 -2.36109e-05 0)
(0.100105 -2.47796e-05 0)
(0.100127 -2.39474e-05 0)
(0.100144 -2.11788e-05 0)
(0.100152 -1.64837e-05 0)
(0.10015 -1.25225e-05 0)
(0.100138 -9.87031e-06 0)
(0.100117 -9.58064e-06 0)
(0.100091 -1.03061e-05 0)
(0.100065 -1.3614e-05 0)
(0.100041 -1.53974e-05 0)
(0.100029 -1.98794e-05 0)
(0.10002 -1.87404e-05 0)
(0.100029 -2.68663e-05 0)
(0.0999976 -2.65189e-06 0)
(0.100001 -8.87501e-06 0)
(0.100011 -1.45473e-05 0)
(0.100026 -1.85699e-05 0)
(0.100043 -2.12467e-05 0)
(0.100065 -2.32908e-05 0)
(0.100089 -2.42862e-05 0)
(0.100115 -2.24943e-05 0)
(0.10014 -1.61304e-05 0)
(0.10016 -4.94345e-06 0)
(0.100171 9.84411e-06 0)
(0.100167 2.54521e-05 0)
(0.100152 3.89344e-05 0)
(0.100127 4.68026e-05 0)
(0.100097 4.95139e-05 0)
(0.100068 4.50052e-05 0)
(0.100047 3.88351e-05 0)
(0.100033 2.64957e-05 0)
(0.100029 1.9856e-05 0)
(0.100025 7.43326e-06 0)
(0.0999975 -5.21394e-06 0)
(0.100001 -1.73074e-05 0)
(0.100011 -2.92232e-05 0)
(0.100025 -3.91758e-05 0)
(0.100044 -4.72672e-05 0)
(0.100068 -5.44218e-05 0)
(0.100095 -5.98476e-05 0)
(0.100125 -6.03599e-05 0)
(0.100155 -5.27358e-05 0)
(0.100179 -3.53569e-05 0)
(0.100192 -1.02026e-05 0)
(0.100191 1.73628e-05 0)
(0.100172 4.02443e-05 0)
(0.100139 5.07184e-05 0)
(0.100099 4.84576e-05 0)
(0.100063 3.5079e-05 0)
(0.100034 2.16266e-05 0)
(0.100021 5.71193e-06 0)
(0.100016 -1.03522e-06 0)
(0.100025 -1.25199e-05 0)
(0.099997 -7.29822e-06 0)
(0.100001 -2.41069e-05 0)
(0.100011 -4.08334e-05 0)
(0.100025 -5.5407e-05 0)
(0.100046 -6.79089e-05 0)
(0.100073 -7.95428e-05 0)
(0.100106 -8.8255e-05 0)
(0.100145 -8.93195e-05 0)
(0.100186 -7.66888e-05 0)
(0.100221 -4.766e-05 0)
(0.100242 -6.83103e-07 0)
(0.100239 5.09453e-05 0)
(0.100208 9.38165e-05 0)
(0.100156 0.000112436 0)
(0.100101 0.000103664 0)
(0.100057 7.41179e-05 0)
(0.100038 4.43294e-05 0)
(0.100031 1.86169e-05 0)
(0.100036 9.4403e-06 0)
(0.100031 -1.048e-06 0)
(0.099996 -9.05509e-06 0)
(0.1 -2.99292e-05 0)
(0.100009 -5.14469e-05 0)
(0.100023 -7.20275e-05 0)
(0.100045 -9.19247e-05 0)
(0.100076 -0.000112326 0)
(0.100117 -0.000129148 0)
(0.100168 -0.000134504 0)
(0.100225 -0.000118697 0)
(0.100281 -7.79264e-05 0)
(0.100317 -1.56698e-05 0)
(0.100314 5.98269e-05 0)
(0.100265 0.000123403 0)
(0.100179 0.000149631 0)
(0.100088 0.000135664 0)
(0.100026 9.62951e-05 0)
(0.100006 6.03507e-05 0)
(0.100015 3.3287e-05 0)
(0.100031 2.51642e-05 0)
(0.100039 1.54901e-05 0)
(0.0999947 -1.03461e-05 0)
(0.0999979 -3.4043e-05 0)
(0.100004 -5.99681e-05 0)
(0.100016 -8.70432e-05 0)
(0.100036 -0.000117078 0)
(0.10007 -0.000150864 0)
(0.100122 -0.000185113 0)
(0.100193 -0.000206163 0)
(0.100276 -0.000192494 0)
(0.100356 -0.000119972 0)
(0.100413 9.76969e-06 0)
(0.100414 0.000156289 0)
(0.100337 0.000243808 0)
(0.100205 0.000228853 0)
(0.100081 0.000141174 0)
(0.10001 4.9171e-05 0)
(0.100008 3.41415e-06 0)
(0.100032 -6.7422e-06 0)
(0.100061 5.38629e-06 0)
(0.100052 3.92295e-06 0)
(0.0999931 -1.03433e-05 0)
(0.0999942 -3.53559e-05 0)
(0.0999962 -6.3526e-05 0)
(0.100001 -9.84296e-05 0)
(0.100016 -0.000138984 0)
(0.100047 -0.000193075 0)
(0.100104 -0.000248094 0)
(0.100202 -0.000308976 0)
(0.10035 -0.000324289 0)
(0.100519 -0.0002881 0)
(0.100631 -6.54098e-05 0)
(0.100589 0.000257103 0)
(0.10038 0.000483328 0)
(0.100114 0.000472353 0)
(0.099944 0.000301159 0)
(0.0999176 0.000126617 0)
(0.0999885 4.56172e-05 0)
(0.100052 3.47739e-05 0)
(0.100092 5.56623e-05 0)
(0.100063 5.22901e-05 0)
(0.0999912 -9.37354e-06 0)
(0.0999891 -3.04411e-05 0)
(0.0999823 -6.0223e-05 0)
(0.0999776 -9.73322e-05 0)
(0.099978 -0.000157445 0)
(0.100002 -0.000233108 0)
(0.100049 -0.000339481 0)
(0.100161 -0.00041288 0)
(0.100335 -0.000437969 0)
(0.100658 -0.000255079 0)
(0.101005 7.6388e-05 0)
(0.101011 0.000428631 0)
(0.100604 0.000472408 0)
(0.100068 0.000277413 0)
(0.0997778 7.24794e-05 0)
(0.0997924 -2.70778e-05 0)
(0.0999629 -2.62934e-05 0)
(0.100086 1.00238e-06 0)
(0.100135 2.11191e-05 0)
(0.100083 9.54326e-06 0)
(0.0999902 -5.02539e-06 0)
(0.0999826 -2.13321e-05 0)
(0.0999647 -4.01179e-05 0)
(0.0999383 -7.43692e-05 0)
(0.0999112 -0.000133446 0)
(0.0999033 -0.000247001 0)
(0.0999586 -0.000467982 0)
(0.100146 -0.000806925 0)
(0.100537 -0.00132939 0)
(0.101061 -0.00149285 0)
(0.101321 0.00038528 0)
(0.100995 0.00187582 0)
(0.100238 0.00157832 0)
(0.0997167 0.000573199 0)
(0.0996402 -3.21716e-05 0)
(0.0998173 -0.000126008 0)
(0.10002 -7.83317e-06 0)
(0.100104 6.49837e-05 0)
(0.10011 6.54325e-05 0)
(0.100052 2.3818e-05 0)
(0.0999711 -2.01118e-06 0)
(0.100008 -6.87815e-06 0)
(0.0999097 -1.54068e-05 0)
(0.0999722 -2.48245e-05 0)
(0.0997264 -5.86615e-05 0)
(0.0998457 -0.000112275 0)
(0.0992787 -0.000287503 0)
(0.0996768 -0.000558436 0)
(0.0991186 -0.00115344 0)
(0.102002 -0.00141515 0)
(0.106279 3.0414e-05 0)
(0.101265 0.0014669 0)
(0.0990051 0.00130694 0)
(0.0982191 0.000512685 0)
(0.0988509 1.91431e-05 0)
(0.0996002 -7.76885e-05 0)
(0.0999308 -1.00916e-05 0)
(0.0999489 2.60023e-05 0)
(0.0998639 1.81315e-05 0)
(0.0998454 -1.86991e-05 0)
(0.0999717 1.38479e-06 0)
(0.100009 5.19921e-06 0)
(0.0999102 1.27519e-05 0)
(0.0999727 2.0964e-05 0)
(0.0997267 5.35916e-05 0)
(0.0998458 0.000105492 0)
(0.0992785 0.000278907 0)
(0.0996761 0.000547372 0)
(0.0991174 0.00113917 0)
(0.102 0.00139741 0)
(0.106275 -5.33891e-05 0)
(0.101263 -0.00149527 0)
(0.0990055 -0.00134019 0)
(0.0982189 -0.000552635 0)
(0.0988495 -6.44424e-05 0)
(0.0995967 2.53921e-05 0)
(0.0999267 -4.68327e-05 0)
(0.0999445 -9.96477e-05 0)
(0.0998628 -9.76978e-05 0)
(0.0998406 -8.85671e-05 0)
(0.0999922 4.40188e-06 0)
(0.0999845 1.96892e-05 0)
(0.0999664 3.74922e-05 0)
(0.0999401 7.05765e-05 0)
(0.0999128 0.000128445 0)
(0.0999052 0.000240267 0)
(0.0999601 0.000459232 0)
(0.100148 0.000795124 0)
(0.100538 0.00131438 0)
(0.101063 0.00147332 0)
(0.101323 -0.000408168 0)
(0.100993 -0.00190351 0)
(0.100232 -0.00161065 0)
(0.0997087 -0.000611736 0)
(0.0996343 -7.69092e-06 0)
(0.0998124 7.80153e-05 0)
(0.10001 -4.28885e-05 0)
(0.100089 -0.000130447 0)
(0.10009 -0.000136552 0)
(0.100034 -0.000124489 0)
(0.0999946 8.76135e-06 0)
(0.0999922 2.88496e-05 0)
(0.0999852 5.7631e-05 0)
(0.0999801 9.36466e-05 0)
(0.0999802 0.000152312 0)
(0.100004 0.000226142 0)
(0.100049 0.000329811 0)
(0.10016 0.000400243 0)
(0.100333 0.000422136 0)
(0.100653 0.000236478 0)
(0.100998 -9.93424e-05 0)
(0.101005 -0.000456058 0)
(0.100598 -0.000503137 0)
(0.100064 -0.000312343 0)
(0.0997708 -0.000111969 0)
(0.09978 -2.4569e-05 0)
(0.0999467 -3.29211e-05 0)
(0.100063 -7.43744e-05 0)
(0.100108 -9.49488e-05 0)
(0.100053 -0.000106476 0)
(0.0999978 9.76479e-06 0)
(0.0999986 3.37926e-05 0)
(0.1 6.10644e-05 0)
(0.100005 9.49314e-05 0)
(0.100019 0.000134305 0)
(0.100049 0.000186791 0)
(0.100106 0.000240136 0)
(0.100204 0.000298772 0)
(0.100351 0.000312388 0)
(0.100519 0.000273016 0)
(0.10063 4.92284e-05 0)
(0.100584 -0.000277966 0)
(0.100372 -0.000508901 0)
(0.100101 -0.0005061 0)
(0.0999263 -0.000343193 0)
(0.0998944 -0.00017869 0)
(0.0999639 -0.000103133 0)
(0.100023 -0.000106412 0)
(0.100062 -0.000128679 0)
(0.100022 -0.000150404 0)
(0.100001 9.83513e-06 0)
(0.100004 3.26215e-05 0)
(0.10001 5.77659e-05 0)
(0.100021 8.39833e-05 0)
(0.10004 0.000113032 0)
(0.100074 0.000145421 0)
(0.100124 0.000178042 0)
(0.100194 0.000196668 0)
(0.100275 0.000179866 0)
(0.100353 0.000103471 0)
(0.100406 -3.05211e-05 0)
(0.100403 -0.00018102 0)
(0.100323 -0.000271973 0)
(0.100187 -0.000261838 0)
(0.10006 -0.000175946 0)
(0.0999847 -8.87402e-05 0)
(0.0999794 -4.37838e-05 0)
(0.0999945 -4.53905e-05 0)
(0.10002 -5.95383e-05 0)
(0.0999982 -8.35916e-05 0)
(0.100004 8.61034e-06 0)
(0.100007 2.86908e-05 0)
(0.100016 4.9545e-05 0)
(0.100029 6.94637e-05 0)
(0.10005 8.85294e-05 0)
(0.10008 0.000107805 0)
(0.10012 0.000123145 0)
(0.100169 0.000126796 0)
(0.100224 0.000108964 0)
(0.100278 6.57571e-05 0)
(0.100313 4.80671e-08 0)
(0.100307 -7.93371e-05 0)
(0.100254 -0.000145824 0)
(0.100162 -0.000176167 0)
(0.100068 -0.000164895 0)
(0.0999992 -0.00013405 0)
(0.0999752 -0.00010411 0)
(0.0999726 -9.43524e-05 0)
(0.0999857 -9.24466e-05 0)
(0.0999739 -0.000109581 0)
(0.100006 6.91887e-06 0)
(0.10001 2.29364e-05 0)
(0.100019 3.90126e-05 0)
(0.100033 5.30286e-05 0)
(0.100052 6.50402e-05 0)
(0.100078 7.59479e-05 0)
(0.10011 8.381e-05 0)
(0.100147 8.38623e-05 0)
(0.100185 7.06052e-05 0)
(0.100217 4.08588e-05 0)
(0.100234 -6.02129e-06 0)
(0.100226 -5.94628e-05 0)
(0.100193 -0.00010405 0)
(0.100135 -0.000126705 0)
(0.100074 -0.000121044 0)
(0.100019 -9.87056e-05 0)
(0.0999912 -7.12972e-05 0)
(0.0999721 -5.6323e-05 0)
(0.0999729 -4.69201e-05 0)
(0.0999532 -5.87212e-05 0)
(0.100008 5.0579e-06 0)
(0.100011 1.65716e-05 0)
(0.100021 2.75538e-05 0)
(0.100034 3.61396e-05 0)
(0.100052 4.26085e-05 0)
(0.100075 4.78091e-05 0)
(0.100101 5.0947e-05 0)
(0.10013 4.84212e-05 0)
(0.100159 3.73745e-05 0)
(0.100181 1.58098e-05 0)
(0.100192 -1.28643e-05 0)
(0.100184 -4.35782e-05 0)
(0.10016 -6.84058e-05 0)
(0.100119 -8.30318e-05 0)
(0.100074 -8.35207e-05 0)
(0.100028 -7.65045e-05 0)
(0.0999972 -6.4648e-05 0)
(0.0999681 -6.02716e-05 0)
(0.0999608 -5.48958e-05 0)
(0.099936 -6.76302e-05 0)
(0.100009 3.47317e-06 0)
(0.100012 1.13831e-05 0)
(0.100021 1.91483e-05 0)
(0.100034 2.55348e-05 0)
(0.10005 3.04834e-05 0)
(0.10007 3.46338e-05 0)
(0.100092 3.75474e-05 0)
(0.100115 3.75421e-05 0)
(0.100137 3.27333e-05 0)
(0.100153 2.2536e-05 0)
(0.10016 8.01708e-06 0)
(0.100153 -7.92424e-06 0)
(0.100134 -2.08941e-05 0)
(0.100102 -2.908e-05 0)
(0.100065 -3.02742e-05 0)
(0.100024 -2.77923e-05 0)
(0.0999932 -2.0859e-05 0)
(0.0999609 -1.73117e-05 0)
(0.0999498 -1.10781e-05 0)
(0.0999224 -1.93286e-05 0)
(0.100011 -4.13536e-07 0)
(0.100014 -7.91759e-07 0)
(0.100023 -8.61321e-07 0)
(0.100036 -1.07595e-06 0)
(0.100052 -1.60493e-06 0)
(0.100071 -2.39664e-06 0)
(0.100092 -3.42952e-06 0)
(0.100113 -5.23095e-06 0)
(0.100133 -8.02116e-06 0)
(0.100147 -1.21862e-05 0)
(0.100152 -1.73186e-05 0)
(0.100144 -2.3481e-05 0)
(0.100126 -2.90352e-05 0)
(0.100097 -3.37681e-05 0)
(0.100066 -3.5552e-05 0)
(0.100027 -3.66121e-05 0)
(0.0999994 -3.44126e-05 0)
(0.099962 -3.54147e-05 0)
(0.0999513 -3.24925e-05 0)
(0.099911 -4.08635e-05 0)
)
;

boundaryField
{
    sides
    {
        type            calculated;
        value           nonuniform List<vector> 
40
(
(0.100011 0 0)
(0.100014 0 0)
(0.100023 0 0)
(0.100036 0 0)
(0.100052 0 0)
(0.100071 0 0)
(0.100092 0 0)
(0.100113 0 0)
(0.100133 0 0)
(0.100147 0 0)
(0.100152 0 0)
(0.100144 0 0)
(0.100126 0 0)
(0.100097 0 0)
(0.100066 0 0)
(0.100027 0 0)
(0.0999994 0 0)
(0.099962 0 0)
(0.0999513 0 0)
(0.099911 0 0)
(0.0999971 0 0)
(0.1 0 0)
(0.100009 0 0)
(0.100023 0 0)
(0.10004 0 0)
(0.10006 0 0)
(0.100082 0 0)
(0.100105 0 0)
(0.100127 0 0)
(0.100144 0 0)
(0.100152 0 0)
(0.10015 0 0)
(0.100138 0 0)
(0.100117 0 0)
(0.100091 0 0)
(0.100065 0 0)
(0.100041 0 0)
(0.100029 0 0)
(0.10002 0 0)
(0.100029 0 0)
)
;
    }
    inlet
    {
        type            calculated;
        value           nonuniform List<vector> 
20
(
(0.099997 0 0)
(0.0999975 0 0)
(0.0999974 0 0)
(0.0999969 0 0)
(0.099996 0 0)
(0.0999948 0 0)
(0.0999933 0 0)
(0.099992 0 0)
(0.099991 0 0)
(0.099991 0 0)
(0.0999917 0 0)
(0.0999931 0 0)
(0.0999953 0 0)
(0.0999981 0 0)
(0.100001 0 0)
(0.100004 0 0)
(0.100006 0 0)
(0.100008 0 0)
(0.100009 0 0)
(0.100011 0 0)
)
;
    }
    outlet
    {
        type            calculated;
        value           nonuniform List<vector> 
20
(
(0.100029 -2.68665e-05 0)
(0.100025 7.43326e-06 0)
(0.100026 -1.25199e-05 0)
(0.100031 -1.048e-06 0)
(0.100039 1.54901e-05 0)
(0.100051 3.92292e-06 0)
(0.100062 5.22894e-05 0)
(0.100081 9.5431e-06 0)
(0.100051 2.38177e-05 0)
(0.0998469 -1.86994e-05 0)
(0.0998419 -8.85683e-05 0)
(0.100033 -0.000124487 0)
(0.100052 -0.000106474 0)
(0.10002 -0.000150401 0)
(0.099997 -8.35907e-05 0)
(0.0999733 -0.000109581 0)
(0.0999525 -5.87208e-05 0)
(0.0999353 -6.76297e-05 0)
(0.0999217 -1.93285e-05 0)
(0.0999098 -4.0863e-05 0)
)
;
    }
    frontAndBack
    {
        type            empty;
    }
}


// ************************************************************************* //
