/*--------------------------------*- C++ -*----------------------------------*\
  =========                 |
  \\      /  F ield         | OpenFOAM: The Open Source CFD Toolbox
   \\    /   O peration     | Website:  https://openfoam.org
    \\  /    A nd           | Version:  9
     \\/     M anipulation  |
\*---------------------------------------------------------------------------*/
FoamFile
{
    format      ascii;
    class       volVectorField;
    location    "52";
    object      ddt0(hU);
}
// * * * * * * * * * * * * * * * * * * * * * * * * * * * * * * * * * * * * * //

dimensions      [0 2 -2 0 0 0 0];

internalField   nonuniform List<vector> 
400
(
(2.35671e-09 -6.70945e-11 0)
(1.18989e-09 2.22178e-09 0)
(8.50059e-10 3.17602e-09 0)
(-4.43438e-09 5.94723e-10 0)
(-1.04547e-08 -2.33276e-09 0)
(-1.24572e-08 -2.08558e-09 0)
(-9.15953e-09 -2.01793e-09 0)
(-3.41676e-09 9.32409e-10 0)
(-4.53855e-09 3.09605e-09 0)
(-1.01543e-08 5.15476e-09 0)
(-1.02671e-08 6.77011e-10 0)
(-8.59547e-09 -5.90879e-12 0)
(-7.6905e-10 -1.13907e-09 0)
(-3.89116e-09 -4.29574e-11 0)
(-1.10183e-08 2.06023e-09 0)
(-1.45335e-08 5.76897e-10 0)
(-1.71486e-08 -1.94228e-10 0)
(-1.11417e-08 2.99261e-09 0)
(-3.02029e-09 5.05578e-09 0)
(1.2721e-10 3.62376e-09 0)
(2.02385e-09 1.63508e-09 0)
(1.82642e-09 5.43531e-09 0)
(-1.57589e-09 5.62217e-09 0)
(-6.90451e-09 4.25489e-10 0)
(-1.00115e-08 -3.18018e-09 0)
(-1.11275e-08 -3.0222e-09 0)
(-7.03988e-09 -5.5887e-09 0)
(-4.66566e-09 2.09748e-09 0)
(-2.51279e-09 6.22278e-09 0)
(-1.08379e-08 9.87197e-09 0)
(-1.12026e-08 2.21548e-09 0)
(-7.08649e-09 -4.43027e-09 0)
(-5.11062e-09 -3.23694e-09 0)
(-2.70344e-09 -7.776e-10 0)
(-9.42292e-09 4.21092e-09 0)
(-1.22331e-08 2.66199e-09 0)
(-9.51841e-09 -3.13922e-09 0)
(-5.23177e-09 -7.8675e-10 0)
(-3.22032e-09 1.2075e-08 0)
(-6.67622e-09 9.47449e-09 0)
(3.38447e-10 3.03034e-09 0)
(-1.52962e-10 5.47578e-09 0)
(-5.90407e-09 5.28424e-09 0)
(-8.5147e-09 4.11345e-09 0)
(-8.59502e-09 3.82776e-09 0)
(-8.69169e-09 -3.83391e-09 0)
(-6.27302e-09 -7.55277e-09 0)
(-3.86934e-09 -5.26616e-10 0)
(-4.63061e-09 9.15971e-09 0)
(-5.39259e-09 4.57376e-09 0)
(-1.33099e-08 1.11944e-09 0)
(-4.73488e-09 -1.42709e-08 0)
(-5.7598e-09 -1.12528e-08 0)
(-5.41089e-09 -5.27926e-10 0)
(-6.31736e-09 4.64799e-09 0)
(-1.1946e-08 3.98555e-09 0)
(-8.70479e-09 -4.65005e-09 0)
(1.30547e-09 -7.40298e-09 0)
(-5.86774e-11 5.35026e-09 0)
(-1.0489e-08 7.30142e-09 0)
(-8.95747e-10 8.78739e-10 0)
(-3.25693e-09 2.92905e-09 0)
(-8.50389e-09 7.05415e-09 0)
(-8.5093e-09 1.35696e-08 0)
(-8.43358e-09 1.07027e-08 0)
(-7.19647e-09 -4.7278e-09 0)
(-7.37835e-09 -8.70552e-09 0)
(-1.29866e-09 -3.0757e-09 0)
(-9.15437e-09 5.60823e-09 0)
(-6.10094e-09 6.06904e-09 0)
(-5.23552e-09 -1.7723e-08 0)
(-1.4752e-08 -1.69471e-08 0)
(1.83165e-10 -2.13122e-08 0)
(-4.10034e-09 -6.01069e-09 0)
(-7.48405e-09 5.54852e-09 0)
(-7.9247e-09 3.80802e-09 0)
(-6.55298e-09 -8.72986e-09 0)
(-3.43804e-09 -1.70046e-08 0)
(-4.29847e-09 -3.52376e-09 0)
(-1.0544e-08 5.23968e-09 0)
(-4.93869e-10 -2.92162e-09 0)
(-5.51434e-09 6.90667e-10 0)
(-8.62163e-09 1.07619e-08 0)
(-8.37102e-09 1.94834e-08 0)
(-7.83228e-09 1.20539e-08 0)
(-9.09418e-09 -3.114e-09 0)
(-5.46105e-09 -8.91285e-09 0)
(-9.59052e-09 -3.45876e-09 0)
(7.21175e-11 -2.90029e-09 0)
(-2.3462e-08 1.01309e-08 0)
(-2.98351e-09 -1.65937e-08 0)
(2.21671e-09 -3.08763e-08 0)
(-1.72726e-08 -1.72779e-08 0)
(1.7131e-09 -1.11236e-08 0)
(-7.69413e-10 -7.27729e-10 0)
(-9.56379e-09 9.78482e-10 0)
(-1.14814e-08 -1.20395e-08 0)
(-5.14639e-09 -2.23548e-08 0)
(5.34979e-10 -6.16177e-09 0)
(-3.55548e-09 4.36938e-09 0)
(1.19744e-09 -5.90124e-09 0)
(-4.93265e-09 7.33184e-10 0)
(-7.85581e-09 1.32411e-08 0)
(-7.74483e-09 1.87271e-08 0)
(-9.23233e-09 1.03372e-08 0)
(-8.38475e-09 -1.52199e-09 0)
(-9.38406e-09 -7.22658e-09 0)
(-8.74159e-09 -9.25164e-09 0)
(-1.35727e-08 1.13413e-08 0)
(7.01464e-09 -1.67965e-08 0)
(-3.38241e-08 2.44649e-08 0)
(1.37463e-08 -4.23055e-08 0)
(-2.51457e-09 -3.13646e-08 0)
(-2.02169e-08 -4.95506e-09 0)
(-8.92762e-10 1.09106e-10 0)
(8.80228e-10 -1.69797e-09 0)
(-7.91389e-09 -1.22944e-08 0)
(-1.22384e-08 -1.79371e-08 0)
(-7.75724e-09 -2.83756e-09 0)
(-1.33298e-09 5.13378e-09 0)
(3.65616e-09 -6.1033e-09 0)
(-2.9448e-09 1.67646e-09 0)
(-7.16981e-09 1.19743e-08 0)
(-8.42559e-09 1.3887e-08 0)
(-8.62343e-09 8.1294e-09 0)
(-9.41817e-09 -2.23727e-11 0)
(-1.13506e-08 -8.36811e-09 0)
(-7.57522e-09 -3.687e-09 0)
(-2.49285e-08 6.3965e-09 0)
(1.73914e-08 -8.50144e-09 0)
(-8.73715e-09 1.35487e-07 0)
(-7.07717e-08 1.8251e-08 0)
(1.65122e-08 -2.99608e-08 0)
(5.68196e-09 -9.53553e-09 0)
(-8.51008e-09 4.42193e-09 0)
(-2.28774e-09 -6.94184e-10 0)
(-4.53657e-09 -1.31829e-08 0)
(-9.63841e-09 -1.65079e-08 0)
(-9.24672e-09 2.69394e-09 0)
(-3.49443e-09 8.36441e-09 0)
(5.24403e-09 -4.20918e-09 0)
(-1.50123e-09 1.59027e-09 0)
(-7.80621e-09 7.84185e-09 0)
(-8.18601e-09 8.56296e-09 0)
(-8.47621e-09 6.67153e-09 0)
(-8.92994e-09 9.65262e-10 0)
(-1.15482e-08 -6.52854e-09 0)
(-1.52601e-08 1.65942e-09 0)
(-1.26406e-08 1.44001e-09 0)
(9.6326e-08 2.49383e-08 0)
(3.13688e-09 -1.8227e-07 0)
(-1.89835e-07 -4.59929e-08 0)
(-5.83831e-08 -7.9647e-09 0)
(-4.598e-10 -7.51547e-09 0)
(1.4573e-09 7.43535e-10 0)
(-1.32638e-09 2.77594e-10 0)
(-2.53702e-09 -9.75608e-09 0)
(-6.92302e-09 -1.10472e-08 0)
(-9.32837e-09 3.51287e-09 0)
(-4.54201e-09 6.8868e-09 0)
(5.66251e-09 -2.32504e-09 0)
(-1.64611e-09 1.60238e-10 0)
(-8.59826e-09 3.34738e-09 0)
(-7.82628e-09 4.49473e-09 0)
(-6.31068e-09 5.08487e-09 0)
(-8.81023e-09 1.93474e-09 0)
(-1.15939e-08 -1.17782e-09 0)
(-1.33808e-08 7.34922e-10 0)
(-1.55014e-08 -3.0942e-09 0)
(-1.14818e-07 2.16074e-08 0)
(-1.41696e-08 -1.83724e-07 0)
(1.7719e-07 -4.07775e-08 0)
(4.64188e-08 -4.63131e-09 0)
(-6.78318e-09 -6.82167e-09 0)
(-2.47868e-09 -2.13566e-09 0)
(-9.55606e-11 -1.6575e-09 0)
(-3.80922e-09 -5.09084e-09 0)
(-3.16588e-09 -5.589e-09 0)
(-9.15857e-09 4.41509e-09 0)
(-5.05077e-09 5.48762e-09 0)
(5.44158e-09 -1.17192e-09 0)
(-2.62823e-09 -1.96457e-09 0)
(-9.33477e-09 -1.48053e-10 0)
(-7.01874e-09 1.86082e-09 0)
(-5.18119e-09 3.02768e-09 0)
(-7.2343e-09 4.03766e-09 0)
(-1.32981e-08 2.6937e-09 0)
(-2.21947e-08 -1.12382e-09 0)
(-9.19312e-10 -6.13257e-09 0)
(-3.51216e-08 -2.27657e-08 0)
(-1.19283e-08 1.52376e-07 0)
(6.1527e-08 3.6432e-08 0)
(-3.35369e-08 -1.75059e-08 0)
(-1.42922e-08 -9.45776e-09 0)
(3.30394e-09 -5.47188e-09 0)
(2.95223e-09 -5.69492e-09 0)
(8.15148e-09 -2.19117e-09 0)
(-1.10409e-09 -8.27377e-10 0)
(-6.6032e-09 3.93205e-09 0)
(-4.84138e-09 2.9258e-09 0)
(5.11411e-09 3.16152e-10 0)
(-3.59628e-09 -3.27081e-09 0)
(-9.03729e-09 -3.1983e-09 0)
(-6.26875e-09 -1.00051e-10 0)
(-3.88995e-09 7.55209e-10 0)
(-7.02283e-09 4.0557e-09 0)
(-1.56434e-08 6.25979e-09 0)
(-2.1086e-08 -2.25657e-09 0)
(-2.55385e-08 1.4345e-09 0)
(-1.43444e-09 -9.4754e-09 0)
(7.19666e-08 -6.23935e-08 0)
(-8.32201e-08 3.88189e-09 0)
(-1.91953e-08 -8.00729e-09 0)
(6.11125e-10 -2.4483e-09 0)
(-4.83697e-09 -6.63248e-09 0)
(3.34491e-09 -4.14484e-09 0)
(8.32033e-09 2.75452e-09 0)
(8.80049e-10 5.13847e-09 0)
(-6.81709e-09 2.25066e-09 0)
(-3.53766e-09 -8.44363e-10 0)
(4.32132e-09 2.73891e-09 0)
(-4.69699e-09 -2.85293e-09 0)
(-8.12807e-09 -5.81709e-09 0)
(-5.89099e-09 -3.49544e-09 0)
(-4.63814e-09 -1.34385e-09 0)
(-7.76216e-09 1.60934e-09 0)
(-1.43816e-08 4.80315e-09 0)
(-2.25684e-08 6.0713e-09 0)
(-4.16311e-09 5.67839e-09 0)
(-1.42633e-07 5.36725e-09 0)
(-2.20747e-07 8.70628e-08 0)
(1.0616e-07 -1.69277e-08 0)
(-3.45371e-08 2.13279e-08 0)
(-1.21408e-08 6.79082e-09 0)
(-3.20144e-09 1.98951e-10 0)
(6.18113e-09 3.23042e-09 0)
(6.68489e-09 9.19215e-09 0)
(-2.49305e-09 1.07385e-08 0)
(-7.91863e-09 2.55342e-09 0)
(-1.42521e-09 -2.90816e-09 0)
(2.70205e-09 4.8885e-09 0)
(-5.84023e-09 -1.37807e-09 0)
(-7.77837e-09 -8.30181e-09 0)
(-5.97351e-09 -8.40584e-09 0)
(-6.54961e-09 -4.14505e-09 0)
(-9.02781e-09 6.67374e-10 0)
(-1.24739e-08 4.73496e-09 0)
(-1.10485e-08 7.0653e-09 0)
(-3.52227e-08 1.1938e-08 0)
(1.42942e-07 8.49616e-09 0)
(1.56531e-07 7.72321e-08 0)
(-1.28256e-07 1.04348e-08 0)
(2.84999e-08 2.18387e-08 0)
(-1.04054e-08 1.30798e-08 0)
(-6.65058e-09 4.91482e-09 0)
(-1.61175e-09 5.96347e-09 0)
(-1.54482e-09 1.49573e-08 0)
(-7.16301e-09 1.82291e-08 0)
(-8.51985e-09 4.99433e-09 0)
(7.18908e-10 -3.57381e-09 0)
(8.19874e-10 5.70294e-09 0)
(-7.02375e-09 -2.47987e-10 0)
(-8.14564e-09 -9.75922e-09 0)
(-6.96077e-09 -1.35526e-08 0)
(-7.98048e-09 -6.98719e-09 0)
(-1.05751e-08 2.17507e-09 0)
(-8.95021e-09 8.37074e-09 0)
(-9.76546e-09 4.17143e-09 0)
(3.51999e-09 -1.57486e-09 0)
(-4.79326e-08 1.3987e-08 0)
(-1.92937e-08 -9.11225e-08 0)
(5.50559e-08 4.89746e-08 0)
(-5.87758e-09 2.20348e-08 0)
(-4.72244e-09 7.78609e-09 0)
(-7.96642e-09 -2.40303e-09 0)
(-5.7949e-09 1.39071e-09 0)
(-6.13714e-09 1.59564e-08 0)
(-1.07533e-08 2.23866e-08 0)
(-7.73033e-09 8.36747e-09 0)
(1.72285e-09 -2.69841e-09 0)
(-9.0941e-10 5.11085e-09 0)
(-7.4973e-09 -3.7791e-10 0)
(-9.12772e-09 -1.04551e-08 0)
(-7.96042e-09 -1.57193e-08 0)
(-9.40204e-09 -9.14801e-09 0)
(-1.00371e-08 5.21492e-09 0)
(-9.96122e-09 1.22192e-08 0)
(-4.77078e-09 4.59543e-09 0)
(-9.50133e-09 -9.16988e-09 0)
(-6.54476e-09 -1.41485e-08 0)
(3.5927e-09 5.24307e-08 0)
(-1.18422e-08 2.62941e-08 0)
(-5.00499e-09 2.10614e-08 0)
(-1.34686e-08 2.16366e-09 0)
(-1.15087e-08 -7.77339e-09 0)
(-6.86333e-09 -3.12785e-09 0)
(-7.11993e-09 1.25439e-08 0)
(-7.65132e-09 2.22385e-08 0)
(-3.04629e-09 9.83401e-09 0)
(7.88448e-10 -2.31518e-09 0)
(-2.11576e-09 3.28124e-09 0)
(-7.5082e-09 -1.35292e-09 0)
(-9.43472e-09 -1.07571e-08 0)
(-9.03816e-09 -1.48095e-08 0)
(-9.27878e-09 -7.55886e-09 0)
(-1.01254e-08 6.8207e-09 0)
(-8.69002e-09 1.5389e-08 0)
(-6.43872e-09 7.47234e-09 0)
(-5.36706e-09 -9.61585e-09 0)
(-2.64175e-09 -6.75208e-09 0)
(-1.05529e-08 1.16474e-09 0)
(-1.08288e-08 1.7957e-08 0)
(-1.24599e-08 1.45413e-08 0)
(-1.30796e-08 -2.07208e-10 0)
(-1.10927e-08 -8.28253e-09 0)
(-9.43653e-09 -3.71338e-09 0)
(-6.17433e-09 1.24035e-08 0)
(-2.36538e-09 2.09109e-08 0)
(5.96956e-10 7.03679e-09 0)
(-1.25331e-09 -3.74876e-09 0)
(-2.26176e-09 9.87711e-11 0)
(-6.71314e-09 -1.8091e-09 0)
(-8.90295e-09 -8.42236e-09 0)
(-8.80512e-09 -1.18031e-08 0)
(-9.08307e-09 -4.11529e-09 0)
(-9.28225e-09 7.93402e-09 0)
(-8.71153e-09 1.37223e-08 0)
(-5.82737e-09 7.91389e-09 0)
(-5.20322e-09 -5.39157e-09 0)
(-7.5489e-09 -7.51257e-09 0)
(-1.02539e-08 1.93514e-09 0)
(-6.4104e-09 1.49344e-08 0)
(-7.69827e-09 1.09913e-08 0)
(-1.1697e-08 -5.48521e-10 0)
(-1.09695e-08 -6.30259e-09 0)
(-7.90783e-09 -9.71087e-10 0)
(-5.5381e-09 1.1892e-08 0)
(-2.02245e-09 1.68708e-08 0)
(1.27498e-09 3.72185e-09 0)
(-2.36879e-09 -4.48893e-09 0)
(-7.62381e-10 -3.39718e-09 0)
(-3.49055e-09 -2.02278e-09 0)
(-7.00149e-09 -3.79525e-09 0)
(-8.54533e-09 -6.96674e-09 0)
(-9.15554e-09 -3.06765e-09 0)
(-9.83678e-09 6.88096e-09 0)
(-8.22034e-09 9.77995e-09 0)
(-4.5874e-09 4.55238e-09 0)
(-3.59545e-09 -4.29578e-09 0)
(-4.44057e-09 -4.4665e-09 0)
(-7.21576e-09 6.06727e-09 0)
(-9.10314e-09 1.38628e-08 0)
(-9.39952e-09 9.68171e-09 0)
(-7.7106e-09 1.5977e-09 0)
(-7.96055e-09 -1.31325e-09 0)
(-1.07772e-08 1.06183e-09 0)
(-9.58937e-09 8.66217e-09 0)
(-2.79985e-09 1.25559e-08 0)
(1.24451e-09 3.56068e-09 0)
(-4.17091e-09 -3.01329e-09 0)
(1.64044e-09 -5.09883e-09 0)
(1.65606e-09 -1.87916e-09 0)
(-3.96572e-09 9.32918e-10 0)
(-8.7108e-09 -1.04668e-09 0)
(-1.02636e-08 -2.24119e-09 0)
(-1.0827e-08 2.53019e-09 0)
(-8.63352e-09 5.38671e-09 0)
(-4.76155e-09 1.2375e-09 0)
(-2.11969e-09 -3.24704e-09 0)
(-5.28775e-09 -2.97097e-09 0)
(-8.27412e-09 3.11788e-09 0)
(-6.60953e-09 8.40892e-09 0)
(-4.46791e-09 7.44958e-09 0)
(-5.03598e-09 3.51527e-09 0)
(-1.03869e-08 6.92669e-10 0)
(-1.47228e-08 1.29468e-09 0)
(-1.14149e-08 6.12352e-09 0)
(-2.35443e-09 9.12992e-09 0)
(-6.63509e-10 3.58022e-09 0)
(-9.04096e-09 -1.22103e-09 0)
(3.61448e-09 -2.6346e-09 0)
(6.57802e-09 -7.12729e-10 0)
(-1.04208e-09 1.60312e-09 0)
(-9.05826e-09 1.1249e-09 0)
(-1.23553e-08 -6.33861e-10 0)
(-1.20343e-08 2.12702e-11 0)
(-9.26897e-09 1.17395e-09 0)
(-4.30827e-09 2.77173e-10 0)
(-1.86968e-09 -8.06765e-10 0)
(-4.56766e-09 -9.25074e-10 0)
(-8.20732e-09 2.18314e-09 0)
(-8.56779e-09 3.68026e-09 0)
(-5.10492e-09 2.37472e-09 0)
(-4.53607e-09 8.28626e-10 0)
(-9.59909e-09 2.63322e-10 0)
(-1.43526e-08 8.68791e-10 0)
(-1.22807e-08 2.47583e-09 0)
(-4.45874e-09 3.39525e-09 0)
(-4.30332e-09 1.38592e-09 0)
(-1.30763e-08 -3.32228e-10 0)
)
;

boundaryField
{
    sides
    {
        type            calculated;
        value           nonuniform List<vector> 
40
(
(3.61448e-09 0 0)
(6.57802e-09 0 0)
(-1.04208e-09 0 0)
(-9.05826e-09 0 0)
(-1.23553e-08 0 0)
(-1.20343e-08 0 0)
(-9.26897e-09 0 0)
(-4.30827e-09 0 0)
(-1.86968e-09 0 0)
(-4.56766e-09 0 0)
(-8.20732e-09 0 0)
(-8.56779e-09 0 0)
(-5.10492e-09 0 0)
(-4.53607e-09 0 0)
(-9.59909e-09 0 0)
(-1.43526e-08 0 0)
(-1.22807e-08 0 0)
(-4.45874e-09 0 0)
(-4.30332e-09 0 0)
(-1.30763e-08 0 0)
(2.35671e-09 0 0)
(1.18989e-09 0 0)
(8.50059e-10 0 0)
(-4.43438e-09 0 0)
(-1.04547e-08 0 0)
(-1.24572e-08 0 0)
(-9.15953e-09 0 0)
(-3.41676e-09 0 0)
(-4.53855e-09 0 0)
(-1.01543e-08 0 0)
(-1.02671e-08 0 0)
(-8.59547e-09 0 0)
(-7.6905e-10 0 0)
(-3.89116e-09 0 0)
(-1.10183e-08 0 0)
(-1.45335e-08 0 0)
(-1.71486e-08 0 0)
(-1.11417e-08 0 0)
(-3.02029e-09 0 0)
(1.2721e-10 0 0)
)
;
    }
    inlet
    {
        type            calculated;
        value           uniform (0 0 0);
    }
    outlet
    {
        type            calculated;
        value           nonuniform List<vector> 
20
(
(1.2721e-10 3.62376e-09 0)
(-6.67622e-09 9.47449e-09 0)
(-1.0489e-08 7.30142e-09 0)
(-1.0544e-08 5.23968e-09 0)
(-3.55548e-09 4.36938e-09 0)
(-1.33298e-09 5.13378e-09 0)
(-3.49443e-09 8.36441e-09 0)
(-4.54201e-09 6.8868e-09 0)
(-5.05077e-09 5.48762e-09 0)
(-4.84138e-09 2.9258e-09 0)
(-3.53766e-09 -8.44363e-10 0)
(-1.42521e-09 -2.90816e-09 0)
(7.18908e-10 -3.57381e-09 0)
(1.72285e-09 -2.69841e-09 0)
(7.88448e-10 -2.31518e-09 0)
(-1.25331e-09 -3.74876e-09 0)
(-2.36879e-09 -4.48893e-09 0)
(-4.17091e-09 -3.01329e-09 0)
(-9.04096e-09 -1.22103e-09 0)
(-1.30763e-08 -3.32228e-10 0)
)
;
    }
    frontAndBack
    {
        type            empty;
    }
}


// ************************************************************************* //
