/*--------------------------------*- C++ -*----------------------------------*\
  =========                 |
  \\      /  F ield         | OpenFOAM: The Open Source CFD Toolbox
   \\    /   O peration     | Website:  https://openfoam.org
    \\  /    A nd           | Version:  9
     \\/     M anipulation  |
\*---------------------------------------------------------------------------*/
FoamFile
{
    format      ascii;
    class       volScalarField;
    location    "52";
    object      hTotal;
}
// * * * * * * * * * * * * * * * * * * * * * * * * * * * * * * * * * * * * * //

dimensions      [0 1 0 0 0 0 0];

internalField   nonuniform List<scalar> 
400
(
0.0100003
0.0100003
0.0100002
0.0100001
0.00999989
0.00999968
0.00999945
0.00999922
0.009999
0.00999883
0.00999874
0.00999874
0.00999886
0.00999908
0.00999935
0.00999963
0.00999986
0.01
0.0100001
0.01
0.0100003
0.0100002
0.0100001
0.01
0.00999981
0.00999959
0.00999933
0.00999906
0.00999881
0.00999861
0.0099985
0.00999852
0.00999868
0.00999893
0.00999925
0.00999955
0.00999977
0.0099999
0.00999996
0.00999998
0.0100003
0.0100002
0.0100001
0.01
0.00999981
0.00999957
0.00999928
0.00999897
0.00999867
0.00999842
0.00999828
0.00999829
0.00999848
0.00999882
0.00999923
0.00999962
0.00999991
0.01
0.0100001
0.01
0.0100003
0.0100003
0.0100002
0.0100001
0.00999985
0.00999957
0.00999923
0.00999883
0.00999841
0.00999805
0.00999783
0.00999785
0.00999816
0.00999869
0.00999927
0.00999972
0.00999994
0.00999998
0.00999995
0.00999996
0.0100004
0.0100004
0.0100003
0.0100002
0.00999995
0.00999964
0.00999922
0.00999869
0.00999811
0.00999753
0.00999715
0.00999716
0.00999765
0.00999855
0.0099995
0.0100001
0.0100004
0.0100002
0.0100001
0.00999999
0.0100006
0.0100005
0.0100005
0.0100004
0.0100002
0.00999982
0.00999929
0.00999857
0.0099977
0.00999688
0.00999628
0.00999626
0.00999703
0.0099984
0.00999971
0.0100004
0.0100005
0.0100002
0.00999993
0.00999991
0.0100007
0.0100007
0.0100007
0.0100006
0.0100005
0.0100002
0.00999963
0.00999863
0.00999712
0.00999536
0.00999414
0.00999451
0.00999668
0.00999947
0.0100013
0.0100015
0.0100008
0.01
0.00999973
0.00999987
0.0100008
0.0100009
0.0100009
0.010001
0.010001
0.0100008
0.0100003
0.00999925
0.00999737
0.00999425
0.00999062
0.0099902
0.00999447
0.0100002
0.0100033
0.0100031
0.0100013
0.00999984
0.00999949
0.00999983
0.0100009
0.010001
0.0100012
0.0100015
0.0100018
0.0100019
0.0100014
0.00999946
0.00999549
0.00998976
0.00998666
0.00998976
0.00999805
0.0100037
0.0100044
0.0100024
0.0100003
0.00999934
0.00999943
0.00999987
0.0100009
0.0100011
0.0100013
0.0100018
0.0100026
0.010004
0.0100058
0.0100078
0.0100049
0.00997847
0.00995241
0.00997586
0.0100088
0.0100178
0.0100104
0.0100023
0.00999885
0.0099989
0.00999977
0.0100001
0.0100009
0.010001
0.0100013
0.0100018
0.0100025
0.0100039
0.0100058
0.0100078
0.0100048
0.00997843
0.00995241
0.00997578
0.0100088
0.0100178
0.0100104
0.0100023
0.00999884
0.00999889
0.00999975
0.0100001
0.0100007
0.0100008
0.010001
0.0100013
0.0100016
0.0100017
0.0100012
0.00999927
0.00999531
0.00998953
0.00998652
0.00998957
0.00999791
0.0100036
0.0100043
0.0100023
0.0100002
0.00999932
0.00999945
0.00999989
0.0100005
0.0100005
0.0100006
0.0100007
0.0100007
0.0100005
0.00999998
0.00999895
0.00999708
0.00999405
0.00999031
0.00998999
0.00999423
0.00999993
0.0100031
0.0100029
0.0100011
0.00999977
0.00999947
0.00999982
0.0100002
0.0100002
0.0100002
0.0100002
0.01
0.00999974
0.00999918
0.00999818
0.00999668
0.00999493
0.00999375
0.00999415
0.00999633
0.00999917
0.010001
0.0100013
0.0100006
0.00999989
0.00999963
0.00999983
0.00999994
0.00999992
0.00999986
0.00999975
0.00999955
0.00999923
0.00999872
0.00999801
0.00999716
0.00999636
0.00999581
0.0099958
0.00999662
0.00999802
0.00999937
0.0100001
0.0100002
0.00999998
0.00999981
0.00999988
0.00999967
0.00999964
0.00999956
0.00999942
0.00999922
0.00999892
0.00999851
0.00999801
0.00999744
0.00999688
0.0099965
0.00999655
0.0099971
0.00999803
0.00999903
0.00999973
0.01
0.00999998
0.0099999
0.00999993
0.00999944
0.0099994
0.00999931
0.00999917
0.00999897
0.00999871
0.00999838
0.00999801
0.00999762
0.00999729
0.00999711
0.00999717
0.00999752
0.0099981
0.00999876
0.0099993
0.00999962
0.00999976
0.00999983
0.00999992
0.00999925
0.00999921
0.00999912
0.00999898
0.0099988
0.00999856
0.00999829
0.009998
0.00999771
0.00999748
0.00999736
0.00999743
0.00999768
0.00999809
0.00999857
0.00999902
0.00999938
0.00999962
0.00999978
0.00999991
0.00999909
0.00999905
0.00999897
0.00999885
0.00999868
0.00999847
0.00999824
0.009998
0.00999779
0.00999763
0.00999756
0.00999761
0.0099978
0.00999812
0.00999852
0.00999893
0.00999928
0.00999955
0.00999975
0.00999991
0.00999896
0.00999892
0.00999883
0.0099987
0.00999854
0.00999834
0.00999812
0.0099979
0.00999771
0.00999757
0.00999751
0.00999758
0.00999776
0.00999804
0.00999839
0.00999876
0.00999911
0.00999939
0.00999964
0.00999986
)
;

boundaryField
{
    sides
    {
        type            calculated;
        value           nonuniform List<scalar> 
40
(
0.00999896
0.00999892
0.00999883
0.0099987
0.00999854
0.00999834
0.00999812
0.0099979
0.00999771
0.00999757
0.00999751
0.00999758
0.00999776
0.00999804
0.00999839
0.00999876
0.00999911
0.00999939
0.00999964
0.00999986
0.0100003
0.0100003
0.0100002
0.0100001
0.00999989
0.00999968
0.00999945
0.00999922
0.009999
0.00999883
0.00999874
0.00999874
0.00999886
0.00999908
0.00999935
0.00999963
0.00999986
0.01
0.0100001
0.01
)
;
    }
    inlet
    {
        type            calculated;
        value           nonuniform List<scalar> 
20
(
0.0100003
0.0100003
0.0100003
0.0100003
0.0100004
0.0100006
0.0100007
0.0100008
0.0100009
0.0100009
0.0100009
0.0100007
0.0100005
0.0100002
0.00999994
0.00999967
0.00999944
0.00999925
0.00999909
0.00999896
)
;
    }
    outlet
    {
        type            calculated;
        value           uniform 0.01;
    }
    frontAndBack
    {
        type            empty;
    }
}


// ************************************************************************* //
