/*--------------------------------*- C++ -*----------------------------------*\
  =========                 |
  \\      /  F ield         | OpenFOAM: The Open Source CFD Toolbox
   \\    /   O peration     | Website:  https://openfoam.org
    \\  /    A nd           | Version:  9
     \\/     M anipulation  |
\*---------------------------------------------------------------------------*/
FoamFile
{
    format      ascii;
    class       volVectorField;
    location    "52";
    object      hU_0;
}
// * * * * * * * * * * * * * * * * * * * * * * * * * * * * * * * * * * * * * //

dimensions      [0 2 -1 0 0 0 0];

internalField   nonuniform List<vector> 
400
(
(0.001 -2.40379e-08 0)
(0.00100004 -6.92274e-08 0)
(0.00100011 -1.11499e-07 0)
(0.00100023 -1.51276e-07 0)
(0.00100039 -1.87221e-07 0)
(0.00100058 -2.16743e-07 0)
(0.00100078 -2.3584e-07 0)
(0.00100099 -2.43566e-07 0)
(0.00100118 -2.34999e-07 0)
(0.00100132 -2.11624e-07 0)
(0.00100141 -1.69726e-07 0)
(0.0010014 -1.28382e-07 0)
(0.0010013 -9.76977e-08 0)
(0.00100111 -9.1434e-08 0)
(0.00100087 -9.91721e-08 0)
(0.00100065 -1.36426e-07 0)
(0.00100044 -1.57255e-07 0)
(0.00100034 -2.00908e-07 0)
(0.00100026 -1.87976e-07 0)
(0.00100033 -2.68194e-07 0)
(0.001 -2.59408e-08 0)
(0.00100004 -7.5305e-08 0)
(0.00100013 -1.23728e-07 0)
(0.00100025 -1.71151e-07 0)
(0.00100042 -2.1294e-07 0)
(0.00100062 -2.39963e-07 0)
(0.00100084 -2.43034e-07 0)
(0.00100107 -2.15499e-07 0)
(0.00100129 -1.50842e-07 0)
(0.00100147 -4.73232e-08 0)
(0.00100157 9.22267e-08 0)
(0.00100155 2.48333e-07 0)
(0.00100142 3.93655e-07 0)
(0.00100119 4.81199e-07 0)
(0.00100093 5.06483e-07 0)
(0.00100067 4.49789e-07 0)
(0.00100049 3.75788e-07 0)
(0.00100037 2.59466e-07 0)
(0.00100033 2.09701e-07 0)
(0.00100029 8.12712e-08 0)
(0.001 -5.079e-08 0)
(0.00100004 -1.53636e-07 0)
(0.00100013 -2.60607e-07 0)
(0.00100025 -3.70035e-07 0)
(0.00100043 -4.72854e-07 0)
(0.00100064 -5.54342e-07 0)
(0.00100089 -5.98865e-07 0)
(0.00100117 -5.89637e-07 0)
(0.00100143 -5.11865e-07 0)
(0.00100164 -3.50507e-07 0)
(0.00100177 -1.11189e-07 0)
(0.00100176 1.63723e-07 0)
(0.0010016 4.08212e-07 0)
(0.00100131 5.26629e-07 0)
(0.00100095 5.01373e-07 0)
(0.00100062 3.50634e-07 0)
(0.00100037 1.9891e-07 0)
(0.00100027 4.77383e-08 0)
(0.00100022 1.43325e-09 0)
(0.0010003 -1.16785e-07 0)
(0.001 -7.05423e-08 0)
(0.00100004 -2.15354e-07 0)
(0.00100013 -3.67691e-07 0)
(0.00100026 -5.26355e-07 0)
(0.00100044 -6.79315e-07 0)
(0.00100069 -8.07978e-07 0)
(0.00100099 -8.82355e-07 0)
(0.00100134 -8.75021e-07 0)
(0.00100171 -7.46984e-07 0)
(0.00100203 -4.74184e-07 0)
(0.00100222 -2.55221e-08 0)
(0.00100219 4.94376e-07 0)
(0.00100193 9.43938e-07 0)
(0.00100147 1.14733e-06 0)
(0.00100097 1.0566e-06 0)
(0.00100059 7.38751e-07 0)
(0.00100041 4.18386e-07 0)
(0.00100035 1.72336e-07 0)
(0.0010004 1.07769e-07 0)
(0.00100035 1.24818e-10 0)
(0.001 -8.71947e-08 0)
(0.00100004 -2.70162e-07 0)
(0.00100012 -4.69178e-07 0)
(0.00100025 -6.89014e-07 0)
(0.00100044 -9.18779e-07 0)
(0.00100072 -1.13666e-06 0)
(0.00100109 -1.29092e-06 0)
(0.00100155 -1.3248e-06 0)
(0.00100206 -1.16629e-06 0)
(0.00100257 -7.7663e-07 0)
(0.0010029 -1.73775e-07 0)
(0.00100288 5.80074e-07 0)
(0.00100244 1.2374e-06 0)
(0.00100168 1.51839e-06 0)
(0.00100086 1.37654e-06 0)
(0.00100031 9.5984e-07 0)
(0.00100014 5.7514e-07 0)
(0.00100022 3.16855e-07 0)
(0.00100037 2.68618e-07 0)
(0.00100043 1.67324e-07 0)
(0.001 -9.94611e-08 0)
(0.00100002 -3.10357e-07 0)
(0.00100008 -5.53738e-07 0)
(0.00100019 -8.39063e-07 0)
(0.00100038 -1.17065e-06 0)
(0.00100068 -1.52249e-06 0)
(0.00100115 -1.85094e-06 0)
(0.00100178 -2.04154e-06 0)
(0.00100254 -1.90269e-06 0)
(0.00100326 -1.19806e-06 0)
(0.00100377 8.10748e-08 0)
(0.00100378 1.54251e-06 0)
(0.0010031 2.44247e-06 0)
(0.00100192 2.31317e-06 0)
(0.00100082 1.43187e-06 0)
(0.00100019 4.88058e-07 0)
(0.00100018 7.24985e-09 0)
(0.00100037 -8.44572e-08 0)
(0.00100064 6.45472e-08 0)
(0.00100055 4.90149e-08 0)
(0.000999999 -9.9186e-08 0)
(0.001 -3.25687e-07 0)
(0.00100002 -5.93488e-07 0)
(0.00100008 -9.56311e-07 0)
(0.00100021 -1.39047e-06 0)
(0.00100048 -1.94397e-06 0)
(0.00100099 -2.48208e-06 0)
(0.00100188 -3.07363e-06 0)
(0.00100321 -3.22509e-06 0)
(0.00100473 -2.88032e-06 0)
(0.00100573 -6.64172e-07 0)
(0.00100536 2.5558e-06 0)
(0.0010035 4.83355e-06 0)
(0.00100112 4.74415e-06 0)
(0.000999612 3.03051e-06 0)
(0.000999376 1.26027e-06 0)
(0.00100001 4.25891e-07 0)
(0.00100057 3.28997e-07 0)
(0.00100093 5.67219e-07 0)
(0.00100066 5.32539e-07 0)
(0.000999995 -8.9894e-08 0)
(0.000999965 -2.8204e-07 0)
(0.000999907 -5.695e-07 0)
(0.000999876 -9.51679e-07 0)
(0.000999877 -1.57568e-06 0)
(0.00100009 -2.34279e-06 0)
(0.0010005 -3.39659e-06 0)
(0.00100152 -4.11617e-06 0)
(0.00100308 -4.36716e-06 0)
(0.00100602 -2.54969e-06 0)
(0.00100909 7.40061e-07 0)
(0.00100913 4.26447e-06 0)
(0.0010055 4.72223e-06 0)
(0.00100074 2.78709e-06 0)
(0.000998156 7.37361e-07 0)
(0.000998279 -2.76554e-07 0)
(0.000999801 -2.88928e-07 0)
(0.00100088 -7.49109e-09 0)
(0.00100134 2.1598e-07 0)
(0.00100086 1.01744e-07 0)
(0.000999994 -4.72613e-08 0)
(0.000999912 -1.98768e-07 0)
(0.000999756 -3.80841e-07 0)
(0.000999532 -7.30971e-07 0)
(0.000999286 -1.33684e-06 0)
(0.000999207 -2.4798e-06 0)
(0.000999702 -4.68347e-06 0)
(0.00100139 -8.06287e-06 0)
(0.00100491 -1.32822e-05 0)
(0.00100957 -1.49137e-05 0)
(0.0010119 3.82843e-06 0)
(0.00100894 1.87268e-05 0)
(0.00100221 1.57834e-05 0)
(0.000997569 5.74545e-06 0)
(0.000996891 -3.14347e-07 0)
(0.000998466 -1.26377e-06 0)
(0.00100027 -9.54941e-08 0)
(0.00100101 6.3672e-07 0)
(0.00100108 6.54167e-07 0)
(0.00100055 2.41817e-07 0)
(0.000999803 -1.85933e-08 0)
(0.00100017 -6.37865e-08 0)
(0.000999216 -1.48146e-07 0)
(0.000999905 -2.45979e-07 0)
(0.00099752 -5.90596e-07 0)
(0.000998839 -1.13018e-06 0)
(0.000993342 -2.88182e-06 0)
(0.000997528 -5.59111e-06 0)
(0.000991665 -1.15416e-05 0)
(0.000915829 -1.27087e-05 0)
(0.000951469 2.80007e-07 0)
(0.00101022 1.46363e-05 0)
(0.000990949 1.30833e-05 0)
(0.000983979 5.14272e-06 0)
(0.000989592 1.95696e-07 0)
(0.000996287 -7.79887e-07 0)
(0.000999241 -1.10339e-07 0)
(0.000999415 2.50355e-07 0)
(0.000998654 1.74766e-07 0)
(0.000998513 -1.87448e-07 0)
(0.000999803 1.32407e-08 0)
(0.00100017 4.62801e-08 0)
(0.000999215 1.18087e-07 0)
(0.000999904 2.01292e-07 0)
(0.000997517 5.31251e-07 0)
(0.000998834 1.05242e-06 0)
(0.000993334 2.78625e-06 0)
(0.000997516 5.4722e-06 0)
(0.000991647 1.13953e-05 0)
(0.00091581 1.25459e-05 0)
(0.000951424 -4.76436e-07 0)
(0.0010102 -1.49107e-05 0)
(0.000990949 -1.3409e-05 0)
(0.000983971 -5.53553e-06 0)
(0.000989573 -6.45805e-07 0)
(0.00099625 2.5231e-07 0)
(0.000999199 -4.69278e-07 0)
(0.00099937 -1.00124e-06 0)
(0.00099864 -9.90443e-07 0)
(0.000998463 -8.9141e-07 0)
(0.000999994 4.17383e-08 0)
(0.000999911 1.81805e-07 0)
(0.000999755 3.51631e-07 0)
(0.000999531 6.87355e-07 0)
(0.000999284 1.27844e-06 0)
(0.000999207 2.40229e-06 0)
(0.000999698 4.58578e-06 0)
(0.00100139 7.93644e-06 0)
(0.0010049 1.31265e-05 0)
(0.00100957 1.47207e-05 0)
(0.0010119 -4.0618e-06 0)
(0.0010089 -1.9e-05 0)
(0.00100214 -1.60958e-05 0)
(0.000997482 -6.12336e-06 0)
(0.000996821 -8.17552e-08 0)
(0.000998407 7.80983e-07 0)
(0.00100017 -4.22555e-07 0)
(0.00100085 -1.30432e-06 0)
(0.00100088 -1.3828e-06 0)
(0.00100038 -1.25387e-06 0)
(0.000999994 8.43097e-08 0)
(0.000999964 2.65867e-07 0)
(0.000999904 5.41208e-07 0)
(0.000999872 9.09355e-07 0)
(0.000999869 1.51554e-06 0)
(0.00100008 2.26187e-06 0)
(0.00100048 3.28818e-06 0)
(0.00100148 3.98082e-06 0)
(0.00100303 4.20365e-06 0)
(0.00100595 2.36606e-06 0)
(0.001009 -9.71776e-07 0)
(0.00100906 -4.5338e-06 0)
(0.00100542 -5.02018e-06 0)
(0.00100067 -3.13038e-06 0)
(0.000998062 -1.12872e-06 0)
(0.000998139 -2.43664e-07 0)
(0.000999627 -3.15337e-07 0)
(0.00100064 -7.4123e-07 0)
(0.00100107 -9.72348e-07 0)
(0.00100056 -1.07697e-06 0)
(0.000999999 9.39255e-08 0)
(0.000999999 3.09945e-07 0)
(0.00100002 5.66735e-07 0)
(0.00100007 9.16056e-07 0)
(0.0010002 1.33513e-06 0)
(0.00100046 1.8708e-06 0)
(0.00100097 2.39245e-06 0)
(0.00100185 2.96403e-06 0)
(0.00100317 3.10253e-06 0)
(0.00100469 2.72788e-06 0)
(0.00100568 5.08823e-07 0)
(0.00100527 -2.75369e-06 0)
(0.00100338 -5.08165e-06 0)
(0.00100096 -5.07428e-06 0)
(0.000999412 -3.44678e-06 0)
(0.000999126 -1.78503e-06 0)
(0.000999748 -1.01206e-06 0)
(0.00100026 -1.05886e-06 0)
(0.00100062 -1.31298e-06 0)
(0.00100024 -1.51847e-06 0)
(0.001 9.4934e-08 0)
(0.00100002 2.96168e-07 0)
(0.00100008 5.29789e-07 0)
(0.00100018 8.03675e-07 0)
(0.00100036 1.12245e-06 0)
(0.00100066 1.45861e-06 0)
(0.00100111 1.77129e-06 0)
(0.00100174 1.9393e-06 0)
(0.00100247 1.77237e-06 0)
(0.00100317 1.03147e-06 0)
(0.00100366 -2.77988e-07 0)
(0.00100363 -1.78493e-06 0)
(0.00100292 -2.71764e-06 0)
(0.00100171 -2.63684e-06 0)
(0.00100058 -1.77656e-06 0)
(0.000999908 -8.8598e-07 0)
(0.000999863 -4.17535e-07 0)
(0.000999987 -4.47059e-07 0)
(0.00100022 -6.22463e-07 0)
(0.00100001 -8.51456e-07 0)
(0.001 8.33206e-08 0)
(0.00100003 2.57795e-07 0)
(0.00100011 4.48233e-07 0)
(0.00100024 6.59119e-07 0)
(0.00100042 8.78401e-07 0)
(0.00100069 1.08336e-06 0)
(0.00100105 1.22296e-06 0)
(0.0010015 1.2417e-06 0)
(0.00100199 1.06485e-06 0)
(0.00100248 6.54732e-07 0)
(0.0010028 1.95008e-08 0)
(0.00100274 -7.71247e-07 0)
(0.00100228 -1.45601e-06 0)
(0.00100146 -1.77939e-06 0)
(0.00100063 -1.66631e-06 0)
(0.00100001 -1.33896e-06 0)
(0.0009998 -1.01981e-06 0)
(0.000999772 -9.37053e-07 0)
(0.000999889 -9.52384e-07 0)
(0.00099977 -1.11142e-06 0)
(0.001 6.69466e-08 0)
(0.00100004 2.04077e-07 0)
(0.00100012 3.48628e-07 0)
(0.00100025 4.99019e-07 0)
(0.00100043 6.44526e-07 0)
(0.00100066 7.64912e-07 0)
(0.00100095 8.31424e-07 0)
(0.00100128 8.16069e-07 0)
(0.00100163 6.83924e-07 0)
(0.00100191 4.05175e-07 0)
(0.00100206 -4.43513e-08 0)
(0.001002 -5.7656e-07 0)
(0.00100171 -1.04125e-06 0)
(0.0010012 -1.28623e-06 0)
(0.00100065 -1.22777e-06 0)
(0.00100017 -9.85729e-07 0)
(0.00099992 -6.93779e-07 0)
(0.000999746 -5.58006e-07 0)
(0.000999756 -4.94619e-07 0)
(0.000999562 -6.01231e-07 0)
(0.001 4.85641e-08 0)
(0.00100004 1.45245e-07 0)
(0.00100012 2.42498e-07 0)
(0.00100024 3.37239e-07 0)
(0.00100041 4.22197e-07 0)
(0.00100062 4.82702e-07 0)
(0.00100086 5.03688e-07 0)
(0.00100112 4.65254e-07 0)
(0.00100137 3.55547e-07 0)
(0.00100157 1.55405e-07 0)
(0.00100167 -1.14303e-07 0)
(0.00100161 -4.21784e-07 0)
(0.0010014 -6.86277e-07 0)
(0.00100104 -8.46151e-07 0)
(0.00100064 -8.48893e-07 0)
(0.00100022 -7.64527e-07 0)
(0.000999955 -6.32184e-07 0)
(0.000999696 -5.98356e-07 0)
(0.000999632 -5.67785e-07 0)
(0.000999389 -6.87157e-07 0)
(0.001 3.34797e-08 0)
(0.00100004 1.01774e-07 0)
(0.00100011 1.71748e-07 0)
(0.00100022 2.40895e-07 0)
(0.00100038 3.02655e-07 0)
(0.00100056 3.49275e-07 0)
(0.00100076 3.72173e-07 0)
(0.00100097 3.63763e-07 0)
(0.00100116 3.16194e-07 0)
(0.0010013 2.23656e-07 0)
(0.00100136 8.73784e-08 0)
(0.00100132 -7.05136e-08 0)
(0.00100115 -2.08791e-07 0)
(0.00100086 -2.99957e-07 0)
(0.00100054 -3.119e-07 0)
(0.00100017 -2.78015e-07 0)
(0.000999906 -1.99286e-07 0)
(0.000999619 -1.70447e-07 0)
(0.00099952 -1.23351e-07 0)
(0.000999251 -2.00209e-07 0)
(0.001 -4.40329e-09 0)
(0.00100004 -1.08119e-08 0)
(0.00100012 -1.39123e-08 0)
(0.00100023 -1.51714e-08 0)
(0.00100038 -1.7119e-08 0)
(0.00100056 -2.31104e-08 0)
(0.00100075 -3.46973e-08 0)
(0.00100094 -5.48535e-08 0)
(0.00100111 -8.30394e-08 0)
(0.00100123 -1.22561e-07 0)
(0.00100128 -1.69774e-07 0)
(0.00100122 -2.32055e-07 0)
(0.00100107 -2.91943e-07 0)
(0.00100081 -3.42182e-07 0)
(0.00100054 -3.59286e-07 0)
(0.00100018 -3.66519e-07 0)
(0.00099995 -3.4122e-07 0)
(0.000999615 -3.53611e-07 0)
(0.000999525 -3.29807e-07 0)
(0.000999133 -4.11339e-07 0)
)
;

boundaryField
{
    sides
    {
        type            slip;
    }
    inlet
    {
        type            fixedValue;
        value           uniform (0.001 0 0);
    }
    outlet
    {
        type            zeroGradient;
    }
    frontAndBack
    {
        type            empty;
    }
}


// ************************************************************************* //
