/*--------------------------------*- C++ -*----------------------------------*\
  =========                 |
  \\      /  F ield         | OpenFOAM: The Open Source CFD Toolbox
   \\    /   O peration     | Website:  https://openfoam.org
    \\  /    A nd           | Version:  9
     \\/     M anipulation  |
\*---------------------------------------------------------------------------*/
FoamFile
{
    format      ascii;
    class       surfaceScalarField;
    location    "52";
    object      phi;
}
// * * * * * * * * * * * * * * * * * * * * * * * * * * * * * * * * * * * * * //

dimensions      [0 4 -1 0 0 0 0];

internalField   nonuniform List<scalar> 
760
(
5.00009e-06
-9.0037e-11
5.00039e-06
-2.92646e-10
5.00089e-06
-4.95664e-10
5.00159e-06
-6.96142e-10
5.00246e-06
-8.75922e-10
5.00348e-06
-1.00436e-09
5.00454e-06
-1.05198e-09
5.00555e-06
-9.96867e-10
5.00639e-06
-8.17504e-10
5.00692e-06
-5.19317e-10
5.00707e-06
-1.28336e-10
5.00668e-06
3.98281e-10
5.00582e-06
8.66762e-10
5.00471e-06
1.11807e-09
5.00353e-06
1.17744e-09
5.00258e-06
9.44689e-10
5.00187e-06
7.04172e-10
5.00163e-06
2.51042e-10
5.00151e-06
1.25211e-10
-3.87337e-10
5.00012e-06
-2.05686e-10
5.00044e-06
-6.0788e-10
5.00096e-06
-1.0161e-09
5.00169e-06
-1.42754e-09
5.00263e-06
-1.80481e-09
5.00372e-06
-2.09196e-09
5.00491e-06
-2.23032e-09
5.00609e-06
-2.15856e-09
5.00711e-06
-1.82404e-09
5.00777e-06
-1.1605e-09
5.00776e-06
-1.04767e-10
5.00728e-06
8.84764e-10
5.00629e-06
1.86414e-09
5.00497e-06
2.43959e-09
5.00369e-06
2.45347e-09
5.00279e-06
1.84578e-09
5.00226e-06
1.22511e-09
5.00193e-06
5.83821e-10
5.00166e-06
3.8885e-10
-1.44013e-10
5.00011e-06
-3.08587e-10
5.00042e-06
-9.19513e-10
5.00094e-06
-1.5404e-09
5.00169e-06
-2.182e-09
5.0027e-06
-2.79614e-09
5.00392e-06
-3.30959e-09
5.00531e-06
-3.5985e-09
5.00671e-06
-3.54786e-09
5.00792e-06
-3.01885e-09
5.00872e-06
-1.95535e-09
5.00895e-06
-3.2099e-10
5.00828e-06
1.56215e-09
5.00689e-06
3.24679e-09
5.00517e-06
4.1636e-09
5.00352e-06
4.10075e-09
5.00232e-06
3.03629e-09
5.00169e-06
1.85876e-09
5.00149e-06
7.72199e-10
5.00145e-06
4.25091e-10
-2.19251e-10
5.0001e-06
-4.04979e-10
5.0004e-06
-1.22427e-09
5.00092e-06
-2.07068e-09
5.00172e-06
-2.97667e-09
5.00283e-06
-3.89749e-09
5.00427e-06
-4.73754e-09
5.006e-06
-5.31831e-09
5.00793e-06
-5.47232e-09
5.00983e-06
-4.90556e-09
5.01107e-06
-3.18509e-09
5.0112e-06
-4.59245e-10
5.01001e-06
2.76718e-09
5.00767e-06
5.59024e-09
5.00516e-06
6.66762e-09
5.00348e-06
5.77086e-09
5.00271e-06
3.80751e-09
5.00249e-06
2.07752e-09
5.00232e-06
9.36052e-10
5.00201e-06
7.32052e-10
3.3876e-10
5.00008e-06
-4.86168e-10
5.00033e-06
-1.48082e-09
5.00082e-06
-2.55948e-09
5.00162e-06
-3.77433e-09
5.00283e-06
-5.11675e-09
5.00455e-06
-6.45181e-09
5.00678e-06
-7.53785e-09
5.0094e-06
-8.08898e-09
5.01238e-06
-7.87487e-09
5.01477e-06
-5.58109e-09
5.01484e-06
-4.87904e-10
5.01285e-06
4.73156e-09
5.00868e-06
9.7729e-09
5.00461e-06
1.07474e-08
5.00225e-06
8.12407e-09
5.00176e-06
4.29944e-09
5.00207e-06
1.76906e-09
5.00227e-06
7.27799e-10
5.00202e-06
9.80667e-10
6.26753e-10
5.00004e-06
-5.29208e-10
5.00019e-06
-1.63663e-09
5.00053e-06
-2.89854e-09
5.00119e-06
-4.44614e-09
5.00239e-06
-6.31708e-09
5.0045e-06
-8.56358e-09
5.00758e-06
-1.06167e-08
5.01165e-06
-1.21665e-08
5.01552e-06
-1.17232e-08
5.019e-06
-9.08172e-09
5.0202e-06
-1.66649e-09
5.01603e-06
8.93339e-09
5.00951e-06
1.62685e-08
5.00423e-06
1.60399e-08
5.00219e-06
1.01716e-08
5.00251e-06
3.98199e-09
5.00328e-06
9.99584e-10
5.00341e-06
6.02228e-10
5.00282e-06
1.57533e-09
1.42239e-09
4.99998e-06
-5.11473e-10
4.99993e-06
-1.59784e-09
5.00002e-06
-2.99464e-09
5.00035e-06
-4.78003e-09
5.0012e-06
-7.17824e-09
5.0029e-06
-1.02653e-08
5.00678e-06
-1.45059e-08
5.01391e-06
-1.92883e-08
5.02373e-06
-2.15737e-08
5.03095e-06
-1.622e-08
5.0287e-06
4.45585e-10
5.01674e-06
2.09517e-08
5.0042e-06
2.88345e-08
4.99874e-06
2.14864e-08
5.00059e-06
8.32678e-09
5.00286e-06
1.71845e-09
5.00373e-06
1.38507e-10
5.00368e-06
6.58019e-10
5.00307e-06
2.19109e-09
1.68009e-09
4.99986e-06
-3.79912e-10
4.99955e-06
-1.29083e-09
4.99912e-06
-2.57653e-09
4.99884e-06
-4.51644e-09
4.99931e-06
-7.65469e-09
5.00033e-06
-1.12944e-08
5.00362e-06
-1.78017e-08
5.0098e-06
-2.54821e-08
5.02488e-06
-3.6634e-08
5.05622e-06
-4.75063e-08
5.05001e-06
5.13721e-09
5.02313e-06
4.77254e-08
4.99818e-06
5.3817e-08
4.99352e-06
2.61622e-08
4.99949e-06
2.35804e-09
5.00409e-06
-2.88202e-09
5.00492e-06
-6.82618e-10
5.00374e-06
1.84454e-09
5.00354e-06
2.40123e-09
9.66059e-10
4.99977e-06
-1.5153e-10
4.99915e-06
-6.85929e-10
4.99792e-06
-1.35638e-09
4.9961e-06
-2.71371e-09
4.994e-06
-5.5659e-09
4.99372e-06
-1.10187e-08
4.99942e-06
-2.35175e-08
5.01712e-06
-4.31778e-08
5.05569e-06
-7.52315e-08
5.0667e-06
-5.85872e-08
5.04973e-06
2.36352e-08
4.99653e-06
1.01037e-07
4.98932e-06
6.10107e-08
4.99593e-06
1.95461e-08
5.00022e-06
-1.92453e-09
5.00295e-06
-5.61489e-09
5.00254e-06
-2.77156e-10
5.00186e-06
2.52666e-09
5.00258e-06
1.68646e-09
7.03099e-11
4.99985e-06
-1.35545e-11
4.9992e-06
-4.51594e-11
4.99791e-06
-7.74512e-11
4.9953e-06
-1.16642e-10
4.98988e-06
-1.58317e-10
4.97906e-06
-2.09439e-10
4.9558e-06
-2.62559e-10
4.91293e-06
-3.35301e-10
4.83813e-06
-4.11254e-10
4.77995e-06
-4.85953e-10
4.80429e-06
-5.68784e-10
4.90602e-06
-7.36936e-10
4.96778e-06
-7.57032e-10
4.98825e-06
-8.9989e-10
4.98748e-06
-1.15513e-09
4.98329e-06
-1.41523e-09
4.98457e-06
-1.54858e-09
4.98892e-06
-1.81861e-09
4.99251e-06
-1.89694e-09
-2.59712e-09
4.99985e-06
1.24359e-10
4.9992e-06
5.95252e-10
4.9979e-06
1.20646e-09
4.99529e-06
2.48613e-09
4.98986e-06
5.26098e-09
4.97903e-06
1.06083e-08
4.95574e-06
2.30067e-08
4.91287e-06
4.25237e-08
4.838e-06
7.44337e-08
4.77975e-06
5.78509e-08
4.80422e-06
-2.51134e-08
4.90597e-06
-1.02462e-07
4.96778e-06
-6.25121e-08
4.98809e-06
-2.11994e-08
4.98739e-06
-4.42658e-10
4.98296e-06
3.02155e-09
4.98445e-06
-3.02707e-09
4.98891e-06
-6.27825e-09
4.99238e-06
-5.37081e-09
-4.99999e-09
4.99976e-06
3.51959e-10
4.99914e-06
1.20534e-09
4.99791e-06
2.42656e-09
4.99609e-06
4.29254e-09
4.994e-06
7.34191e-09
4.99371e-06
1.08895e-08
4.9994e-06
1.72957e-08
5.01705e-06
2.48634e-08
5.05559e-06
3.58994e-08
5.06702e-06
4.63837e-08
5.04947e-06
-7.10935e-09
4.99609e-06
-4.90938e-08
4.98885e-06
-5.52503e-08
4.99571e-06
-2.80412e-08
5.00013e-06
-4.84701e-09
5.00235e-06
8.17672e-10
5.00167e-06
-2.35299e-09
5.00092e-06
-5.52751e-09
5.00172e-06
-6.15991e-09
-5.96965e-09
4.99986e-06
4.83484e-10
4.99954e-06
1.51601e-09
4.99911e-06
2.85375e-09
4.99882e-06
4.56755e-09
4.99926e-06
6.89364e-09
5.00024e-06
9.89437e-09
5.00345e-06
1.40798e-08
5.00959e-06
1.87202e-08
5.02459e-06
2.08741e-08
5.05561e-06
1.54201e-08
5.04971e-06
-1.71136e-09
5.02282e-06
-2.21363e-08
4.99787e-06
-3.03122e-08
4.99317e-06
-2.33432e-08
4.99866e-06
-1.03317e-08
5.00347e-06
-3.982e-09
5.00375e-06
-2.62765e-09
5.00238e-06
-4.15039e-09
5.00219e-06
-5.9706e-09
-6.55332e-09
4.99997e-06
5.03494e-10
4.99992e-06
1.56081e-09
5e-06
2.77166e-09
5.0003e-06
4.25915e-09
5.00111e-06
6.06544e-09
5.00277e-06
8.23219e-09
5.00666e-06
1.01906e-08
5.01377e-06
1.16113e-08
5.02357e-06
1.10745e-08
5.03067e-06
8.25337e-09
5.02841e-06
6.66811e-10
5.01625e-06
-1.00213e-08
5.0035e-06
-1.75717e-08
4.99778e-06
-1.76275e-08
4.99943e-06
-1.19772e-08
5.00163e-06
-6.17533e-09
5.00242e-06
-3.41521e-09
5.00215e-06
-3.8784e-09
5.00122e-06
-5.03638e-09
-5.99449e-09
5.00003e-06
4.65054e-10
5.00017e-06
1.41403e-09
5.00049e-06
2.44755e-09
5.00114e-06
3.61105e-09
5.0023e-06
4.89349e-09
5.00437e-06
6.15751e-09
5.00739e-06
7.17096e-09
5.01138e-06
7.63466e-09
5.01512e-06
7.33432e-09
5.01852e-06
4.86311e-09
5.01955e-06
-3.76289e-10
5.01522e-06
-5.69761e-09
5.00854e-06
-1.08929e-08
5.00311e-06
-1.22041e-08
5.00089e-06
-9.74756e-09
5.00102e-06
-6.30435e-09
5.00157e-06
-3.95757e-09
5.00134e-06
-3.64234e-09
5.00037e-06
-4.07675e-09
-4.9945e-09
5.00007e-06
3.87088e-10
5.00031e-06
1.16912e-09
5.00078e-06
1.9778e-09
5.00155e-06
2.83948e-09
5.00273e-06
3.71282e-09
5.00439e-06
4.49822e-09
5.00654e-06
5.02617e-09
5.00908e-06
5.10417e-09
5.01202e-06
4.40874e-09
5.01439e-06
2.49624e-09
5.01414e-06
-1.27834e-10
5.01208e-06
-3.63899e-09
5.00776e-06
-6.56458e-09
5.00349e-06
-7.93757e-09
5.00094e-06
-7.18562e-09
5.00015e-06
-5.51022e-09
5.00013e-06
-3.93674e-09
4.9999e-06
-3.41619e-09
4.99919e-06
-3.37431e-09
-4.18963e-09
5.00009e-06
2.88633e-10
5.00038e-06
8.75502e-10
5.00089e-06
1.47265e-09
5.00165e-06
2.07706e-09
5.00271e-06
2.65236e-09
5.0041e-06
3.1157e-09
5.00577e-06
3.3618e-09
5.00761e-06
3.27009e-09
5.00931e-06
2.71859e-09
5.01026e-06
1.56493e-09
5.01044e-06
-2.91355e-10
5.00904e-06
-2.23087e-09
5.00651e-06
-4.02893e-09
5.00368e-06
-5.10365e-09
5.00155e-06
-5.05707e-09
5.00036e-06
-4.31866e-09
4.99973e-06
-3.30374e-09
4.99919e-06
-2.88557e-09
4.99846e-06
-2.65658e-09
-3.23113e-09
5.0001e-06
1.87155e-10
5.0004e-06
5.73819e-10
5.0009e-06
9.66334e-10
5.00163e-06
1.35022e-09
5.00259e-06
1.69681e-09
5.00376e-06
1.952e-09
5.00508e-06
2.05172e-09
5.00643e-06
1.92582e-09
5.00763e-06
1.53133e-09
5.00838e-06
8.24927e-10
5.00821e-06
-1.15953e-10
5.00735e-06
-1.35562e-09
5.00571e-06
-2.39123e-09
5.00369e-06
-3.0792e-09
5.0018e-06
-3.16357e-09
5.00035e-06
-2.87023e-09
4.99934e-06
-2.29673e-09
4.99854e-06
-2.0946e-09
4.99774e-06
-1.85636e-09
-2.28961e-09
5.00008e-06
1.07083e-10
5.00036e-06
2.92866e-10
5.00084e-06
4.84452e-10
5.00152e-06
6.72165e-10
5.00239e-06
8.35152e-10
5.0034e-06
9.48746e-10
5.00447e-06
9.86042e-10
5.00549e-06
9.17289e-10
5.00631e-06
7.2107e-10
5.00679e-06
3.5838e-10
5.00682e-06
-1.36717e-10
5.00609e-06
-6.25333e-10
5.0048e-06
-1.09662e-09
5.00316e-06
-1.43411e-09
5.00149e-06
-1.49731e-09
5.00003e-06
-1.42343e-09
4.99891e-06
-1.17217e-09
4.99795e-06
-1.13446e-09
4.99708e-06
-9.88224e-10
-1.43106e-09
5.00011e-06
5.00041e-06
5.00089e-06
5.00155e-06
5.00239e-06
5.00335e-06
5.00435e-06
5.00528e-06
5.00601e-06
5.00639e-06
5.00626e-06
5.00564e-06
5.00455e-06
5.00311e-06
5.00161e-06
5.00018e-06
4.999e-06
4.99787e-06
4.99688e-06
)
;

boundaryField
{
    sides
    {
        type            calculated;
        value           uniform 0;
    }
    inlet
    {
        type            calculated;
        value           nonuniform List<scalar> 
20
(
-5e-06
-5e-06
-5e-06
-5e-06
-5e-06
-5e-06
-5e-06
-5e-06
-5e-06
-5e-06
-5e-06
-5e-06
-5e-06
-5e-06
-5e-06
-5e-06
-5e-06
-5e-06
-5e-06
-5e-06
)
;
    }
    outlet
    {
        type            calculated;
        value           nonuniform List<scalar> 
20
(
5.00191e-06
5.00142e-06
5.00152e-06
5.00144e-06
5.00173e-06
5.00203e-06
5.00282e-06
5.00426e-06
5.00348e-06
4.99518e-06
4.99479e-06
5.00269e-06
5.00278e-06
5.00067e-06
4.99937e-06
4.99838e-06
4.9975e-06
4.99679e-06
4.99621e-06
4.99545e-06
)
;
    }
    frontAndBack
    {
        type            empty;
        value           nonuniform List<scalar> 0();
    }
}


// ************************************************************************* //
