/*--------------------------------*- C++ -*----------------------------------*\
  =========                 |
  \\      /  F ield         | OpenFOAM: The Open Source CFD Toolbox
   \\    /   O peration     | Website:  https://openfoam.org
    \\  /    A nd           | Version:  9
     \\/     M anipulation  |
\*---------------------------------------------------------------------------*/
FoamFile
{
    format      ascii;
    class       surfaceScalarField;
    location    "52";
    object      phi_0;
}
// * * * * * * * * * * * * * * * * * * * * * * * * * * * * * * * * * * * * * //

dimensions      [0 4 -1 0 0 0 0];

internalField   nonuniform List<scalar> 
760
(
5.00009e-06
-9.13758e-11
5.00038e-06
-2.94555e-10
5.00089e-06
-4.9651e-10
5.00159e-06
-6.94662e-10
5.00247e-06
-8.74371e-10
5.00348e-06
-1.0043e-09
5.00454e-06
-1.05068e-09
5.00555e-06
-9.98246e-10
5.00639e-06
-8.1947e-10
5.00693e-06
-5.23469e-10
5.00707e-06
-1.30015e-10
5.00668e-06
3.99876e-10
5.00582e-06
8.68408e-10
5.00471e-06
1.11973e-09
5.00354e-06
1.17672e-09
5.00259e-06
9.4415e-10
5.00188e-06
7.05668e-10
5.00163e-06
2.52262e-10
5.00151e-06
1.21866e-10
-3.89384e-10
5.00012e-06
-2.08021e-10
5.00044e-06
-6.10381e-10
5.00096e-06
-1.01709e-09
5.00169e-06
-1.42723e-09
5.00263e-06
-1.80566e-09
5.00373e-06
-2.09105e-09
5.00492e-06
-2.22724e-09
5.00609e-06
-2.15892e-09
5.00712e-06
-1.82785e-09
5.00778e-06
-1.16339e-09
5.00777e-06
-1.06366e-10
5.00729e-06
8.90948e-10
5.00629e-06
1.86834e-09
5.00497e-06
2.44113e-09
5.0037e-06
2.45231e-09
5.00279e-06
1.84382e-09
5.00227e-06
1.22618e-09
5.00193e-06
5.86001e-10
5.00166e-06
3.86778e-10
-1.48263e-10
5.00011e-06
-3.09716e-10
5.00042e-06
-9.20809e-10
5.00094e-06
-1.5424e-09
5.0017e-06
-2.18681e-09
5.0027e-06
-2.8003e-09
5.00393e-06
-3.30634e-09
5.00531e-06
-3.59462e-09
5.00671e-06
-3.54526e-09
5.00792e-06
-3.02259e-09
5.00872e-06
-1.95617e-09
5.00895e-06
-3.1805e-10
5.00828e-06
1.56914e-09
5.00689e-06
3.25648e-09
5.00517e-06
4.16512e-09
5.00352e-06
4.09809e-09
5.00233e-06
3.03364e-09
5.00169e-06
1.86088e-09
5.00149e-06
7.78638e-10
5.00145e-06
4.25262e-10
-2.21426e-10
5.0001e-06
-4.0365e-10
5.0004e-06
-1.2242e-09
5.00093e-06
-2.07522e-09
5.00173e-06
-2.98589e-09
5.00284e-06
-3.90208e-09
5.00427e-06
-4.73554e-09
5.006e-06
-5.31234e-09
5.00794e-06
-5.47035e-09
5.00983e-06
-4.90261e-09
5.01107e-06
-3.19067e-09
5.01121e-06
-4.48135e-10
5.01002e-06
2.77834e-09
5.00767e-06
5.59937e-09
5.00516e-06
6.67373e-09
5.00349e-06
5.76936e-09
5.00271e-06
3.80506e-09
5.00249e-06
2.08103e-09
5.00233e-06
9.44022e-10
5.00201e-06
7.34306e-10
3.36616e-10
5.00008e-06
-4.83014e-10
5.00033e-06
-1.48052e-09
5.00082e-06
-2.56584e-09
5.00162e-06
-3.78341e-09
5.00284e-06
-5.12198e-09
5.00455e-06
-6.45004e-09
5.00678e-06
-7.53376e-09
5.00941e-06
-8.08167e-09
5.01238e-06
-7.87723e-09
5.01479e-06
-5.5767e-09
5.01483e-06
-4.96617e-10
5.01286e-06
4.75474e-09
5.00869e-06
9.78395e-09
5.00461e-06
1.07481e-08
5.00225e-06
8.12412e-09
5.00176e-06
4.29975e-09
5.00207e-06
1.77479e-09
5.00228e-06
7.37394e-10
5.00202e-06
9.8128e-10
6.23175e-10
5.00004e-06
-5.25692e-10
5.00019e-06
-1.63688e-09
5.00053e-06
-2.90417e-09
5.0012e-06
-4.45337e-09
5.00239e-06
-6.32108e-09
5.0045e-06
-8.56399e-09
5.00759e-06
-1.06108e-08
5.01166e-06
-1.21624e-08
5.01553e-06
-1.17273e-08
5.019e-06
-9.07092e-09
5.02022e-06
-1.67689e-09
5.01602e-06
8.92599e-09
5.00952e-06
1.62896e-08
5.00424e-06
1.60465e-08
5.00219e-06
1.01688e-08
5.00251e-06
3.9818e-09
5.00329e-06
1.00558e-09
5.00342e-06
6.10499e-10
5.00283e-06
1.57453e-09
1.41831e-09
4.99998e-06
-5.08942e-10
4.99993e-06
-1.59824e-09
5.00003e-06
-2.99845e-09
5.00035e-06
-4.78443e-09
5.0012e-06
-7.18242e-09
5.0029e-06
-1.02645e-08
5.00678e-06
-1.45017e-08
5.01391e-06
-1.92884e-08
5.02375e-06
-2.15667e-08
5.03092e-06
-1.62559e-08
5.02872e-06
5.53659e-10
5.01676e-06
2.09527e-08
5.00419e-06
2.88339e-08
4.99874e-06
2.14926e-08
5.0006e-06
8.32719e-09
5.00286e-06
1.71842e-09
5.00373e-06
1.43698e-10
5.00368e-06
6.64662e-10
5.00308e-06
2.18989e-09
1.67619e-09
4.99986e-06
-3.78526e-10
4.99955e-06
-1.29082e-09
4.99912e-06
-2.57815e-09
4.99885e-06
-4.51943e-09
4.99931e-06
-7.65758e-09
5.00034e-06
-1.12953e-08
5.00363e-06
-1.77986e-08
5.00982e-06
-2.54822e-08
5.02487e-06
-3.66451e-08
5.05618e-06
-4.74697e-08
5.0499e-06
6.92873e-09
5.02316e-06
4.77752e-08
4.99819e-06
5.38317e-08
4.99352e-06
2.61643e-08
4.99949e-06
2.35858e-09
5.0041e-06
-2.88158e-09
5.00492e-06
-6.79075e-10
5.00375e-06
1.84991e-09
5.00354e-06
2.40033e-09
9.63306e-10
4.99976e-06
-1.50561e-10
4.99915e-06
-6.85081e-10
4.99792e-06
-1.3566e-09
4.9961e-06
-2.71509e-09
4.994e-06
-5.56868e-09
4.99372e-06
-1.10196e-08
4.99943e-06
-2.35189e-08
5.01712e-06
-4.31758e-08
5.0557e-06
-7.52205e-08
5.06675e-06
-5.86222e-08
5.04985e-06
2.37242e-08
4.99651e-06
1.0103e-07
4.98931e-06
6.09996e-08
4.99593e-06
1.95453e-08
5.00022e-06
-1.92153e-09
5.00295e-06
-5.61313e-09
5.00254e-06
-2.49609e-10
5.00186e-06
2.52876e-09
5.00258e-06
1.6855e-09
6.98386e-11
4.99985e-06
-1.28506e-11
4.9992e-06
-4.36763e-11
4.99791e-06
-7.69117e-11
4.9953e-06
-1.17155e-10
4.98988e-06
-1.59317e-10
4.97907e-06
-2.12443e-10
4.9558e-06
-2.62823e-10
4.91294e-06
-3.33783e-10
4.83812e-06
-4.11771e-10
4.77998e-06
-4.74138e-10
4.80429e-06
-5.92144e-10
4.90601e-06
-7.61619e-10
4.9678e-06
-7.48609e-10
4.98825e-06
-8.98784e-10
4.98748e-06
-1.1536e-09
4.98329e-06
-1.41249e-09
4.98457e-06
-1.54682e-09
4.98892e-06
-1.81861e-09
4.99251e-06
-1.89808e-09
-2.59764e-09
4.99985e-06
1.24037e-10
4.9992e-06
5.96605e-10
4.99791e-06
1.20784e-09
4.99529e-06
2.48665e-09
4.98986e-06
5.26166e-09
4.97904e-06
1.06066e-08
4.95575e-06
2.30031e-08
4.91288e-06
4.25243e-08
4.83801e-06
7.44329e-08
4.77974e-06
5.78318e-08
4.80421e-06
-2.5185e-08
4.906e-06
-1.02459e-07
4.96778e-06
-6.25219e-08
4.98809e-06
-2.1203e-08
4.98739e-06
-4.41148e-10
4.98296e-06
3.02276e-09
4.98444e-06
-3.03026e-09
4.98891e-06
-6.28283e-09
4.99239e-06
-5.37278e-09
-4.99952e-09
4.99976e-06
3.5001e-10
4.99914e-06
1.2061e-09
4.99792e-06
2.42917e-09
4.9961e-06
4.29504e-09
4.99401e-06
7.34375e-09
4.99372e-06
1.08898e-08
4.99941e-06
1.72922e-08
5.01706e-06
2.48566e-08
5.05559e-06
3.58906e-08
5.06709e-06
4.64174e-08
5.04951e-06
-7.08316e-09
4.9961e-06
-4.90723e-08
4.98886e-06
-5.52489e-08
4.99572e-06
-2.80435e-08
5.00013e-06
-4.84757e-09
5.00234e-06
8.15694e-10
5.00167e-06
-2.36071e-09
5.00093e-06
-5.53604e-09
5.00172e-06
-6.16246e-09
-5.96814e-09
4.99986e-06
4.80338e-10
4.99954e-06
1.51587e-09
4.99911e-06
2.85777e-09
4.99882e-06
4.57232e-09
4.99926e-06
6.89686e-09
5.00025e-06
9.89412e-09
5.00345e-06
1.40757e-08
5.00959e-06
1.87145e-08
5.02462e-06
2.08745e-08
5.05553e-06
1.53883e-08
5.0497e-06
-1.6663e-09
5.02281e-06
-2.2156e-08
4.99787e-06
-3.03279e-08
4.99317e-06
-2.33471e-08
4.99866e-06
-1.03321e-08
5.00347e-06
-3.98328e-09
5.00375e-06
-2.63459e-09
5.00238e-06
-4.16057e-09
5.0022e-06
-5.97386e-09
-6.55149e-09
4.99997e-06
5.00152e-10
4.99992e-06
1.56026e-09
5e-06
2.77631e-09
5.0003e-06
4.26644e-09
5.00112e-06
6.06898e-09
5.00277e-06
8.23036e-09
5.00666e-06
1.01848e-08
5.01377e-06
1.16094e-08
5.02357e-06
1.1073e-08
5.0307e-06
8.25491e-09
5.0284e-06
6.35714e-10
5.01624e-06
-1.00452e-08
5.0035e-06
-1.75852e-08
4.99778e-06
-1.76334e-08
4.99943e-06
-1.19753e-08
5.00163e-06
-6.17414e-09
5.00242e-06
-3.42123e-09
5.00216e-06
-3.88892e-09
5.00123e-06
-5.04025e-09
-5.99277e-09
5.00004e-06
4.62489e-10
5.00017e-06
1.41397e-09
5.00049e-06
2.45249e-09
5.00114e-06
3.61838e-09
5.00231e-06
4.89766e-09
5.00437e-06
6.15344e-09
5.0074e-06
7.16341e-09
5.01138e-06
7.63084e-09
5.01513e-06
7.33877e-09
5.01853e-06
4.86588e-09
5.01955e-06
-4.03332e-10
5.01523e-06
-5.7091e-09
5.00854e-06
-1.09041e-08
5.00312e-06
-1.22054e-08
5.00089e-06
-9.74332e-09
5.00103e-06
-6.30142e-09
5.00158e-06
-3.96225e-09
5.00134e-06
-3.65218e-09
5.00038e-06
-4.08072e-09
-4.99283e-09
5.00008e-06
3.85955e-10
5.00031e-06
1.16974e-09
5.00078e-06
1.98244e-09
5.00155e-06
2.84551e-09
5.00273e-06
3.71516e-09
5.00439e-06
4.49436e-09
5.00654e-06
5.01742e-09
5.00908e-06
5.09961e-09
5.01202e-06
4.41216e-09
5.0144e-06
2.50174e-09
5.01414e-06
-1.29316e-10
5.01209e-06
-3.64684e-09
5.00776e-06
-6.57063e-09
5.0035e-06
-7.93714e-09
5.00094e-06
-7.18113e-09
5.00015e-06
-5.50733e-09
5.00013e-06
-3.94071e-09
4.9999e-06
-3.42461e-09
4.99919e-06
-3.37733e-09
-4.18776e-09
5.0001e-06
2.89161e-10
5.00039e-06
8.75937e-10
5.00089e-06
1.4757e-09
5.00166e-06
2.08155e-09
5.00272e-06
2.65345e-09
5.00411e-06
3.11161e-09
5.00578e-06
3.35575e-09
5.00761e-06
3.26597e-09
5.00932e-06
2.72058e-09
5.01026e-06
1.56811e-09
5.01044e-06
-2.91308e-10
5.00904e-06
-2.23649e-09
5.00651e-06
-4.03435e-09
5.00368e-06
-5.10454e-09
5.00156e-06
-5.05523e-09
5.00037e-06
-4.31776e-09
4.99973e-06
-3.30763e-09
4.99919e-06
-2.89283e-09
4.99846e-06
-2.65938e-09
-3.22976e-09
5.0001e-06
1.88895e-10
5.0004e-06
5.73878e-10
5.0009e-06
9.66699e-10
5.00164e-06
1.35292e-09
5.0026e-06
1.69865e-09
5.00377e-06
1.94945e-09
5.00508e-06
2.04753e-09
5.00643e-06
1.92354e-09
5.00763e-06
1.53239e-09
5.00838e-06
8.26698e-10
5.00822e-06
-1.18215e-10
5.00735e-06
-1.36085e-09
5.00572e-06
-2.39554e-09
5.0037e-06
-3.08068e-09
5.0018e-06
-3.16331e-09
5.00035e-06
-2.87006e-09
4.99934e-06
-2.30002e-09
4.99854e-06
-2.10119e-09
4.99774e-06
-1.86027e-09
-2.2896e-09
5.00008e-06
1.08789e-10
5.00036e-06
2.92938e-10
5.00084e-06
4.83509e-10
5.00152e-06
6.73052e-10
5.00239e-06
8.36856e-10
5.0034e-06
9.48298e-10
5.00447e-06
9.83907e-10
5.00549e-06
9.16407e-10
5.00631e-06
7.21508e-10
5.00679e-06
3.58883e-10
5.00682e-06
-1.37889e-10
5.00609e-06
-6.28528e-10
5.0048e-06
-1.09943e-09
5.00316e-06
-1.43587e-09
5.0015e-06
-1.49766e-09
5.00004e-06
-1.42332e-09
4.99891e-06
-1.17391e-09
4.99794e-06
-1.13856e-09
4.99708e-06
-9.91548e-10
-1.4317e-09
5.00011e-06
5.00041e-06
5.00089e-06
5.00156e-06
5.0024e-06
5.00336e-06
5.00435e-06
5.00528e-06
5.00602e-06
5.00639e-06
5.00626e-06
5.00564e-06
5.00455e-06
5.00312e-06
5.00162e-06
5.00019e-06
4.999e-06
4.99787e-06
4.99688e-06
)
;

boundaryField
{
    sides
    {
        type            calculated;
        value           uniform 0;
    }
    inlet
    {
        type            calculated;
        value           nonuniform List<scalar> 
20
(
-5e-06
-5e-06
-5e-06
-5e-06
-5e-06
-5e-06
-5e-06
-5e-06
-5e-06
-5e-06
-5e-06
-5e-06
-5e-06
-5e-06
-5e-06
-5e-06
-5e-06
-5e-06
-5e-06
-5e-06
)
;
    }
    outlet
    {
        type            calculated;
        value           nonuniform List<scalar> 
20
(
5.00191e-06
5.00142e-06
5.00152e-06
5.00145e-06
5.00173e-06
5.00203e-06
5.00282e-06
5.00426e-06
5.00348e-06
4.99518e-06
4.99479e-06
5.00269e-06
5.00278e-06
5.00067e-06
4.99937e-06
4.99837e-06
4.9975e-06
4.99679e-06
4.99622e-06
4.99546e-06
)
;
    }
    frontAndBack
    {
        type            empty;
        value           nonuniform List<scalar> 0();
    }
}


// ************************************************************************* //
