/*--------------------------------*- C++ -*----------------------------------*\
  =========                 |
  \\      /  F ield         | OpenFOAM: The Open Source CFD Toolbox
   \\    /   O peration     | Website:  https://openfoam.org
    \\  /    A nd           | Version:  9
     \\/     M anipulation  |
\*---------------------------------------------------------------------------*/
FoamFile
{
    format      ascii;
    class       volScalarField;
    location    "11";
    object      ddt0(h);
}
// * * * * * * * * * * * * * * * * * * * * * * * * * * * * * * * * * * * * * //

dimensions      [0 1 -1 0 0 0 0];

internalField   nonuniform List<scalar> 
400
(
1.73414e-05
1.02315e-05
2.73464e-06
-4.17364e-06
-9.70778e-06
-9.65011e-06
-8.25412e-06
-5.3768e-06
1.61305e-07
5.21296e-06
6.67543e-06
4.58945e-06
3.02015e-06
3.95163e-06
5.61153e-06
4.97456e-06
4.54516e-07
-3.95527e-06
-3.96521e-06
-1.39721e-06
1.47281e-05
9.00563e-06
3.53295e-06
-2.94049e-06
-7.37381e-06
-9.3607e-06
-7.91103e-06
-4.5456e-06
1.20659e-06
7.13951e-06
8.78997e-06
5.51222e-06
3.34925e-06
3.00141e-06
4.55161e-06
3.96189e-06
-2.68224e-07
-4.04043e-06
-3.46281e-06
-1.04035e-06
1.08211e-05
7.48299e-06
4.42854e-06
-5.93965e-08
-5.59031e-06
-8.03105e-06
-6.81476e-06
-2.56525e-06
3.24692e-06
8.50536e-06
9.41185e-06
6.49694e-06
3.52447e-06
2.07767e-06
2.69955e-06
2.10417e-06
-1.1107e-06
-2.43872e-06
-1.85473e-06
-4.40862e-07
5.7845e-06
5.53978e-06
5.54303e-06
2.33003e-06
-3.08961e-06
-6.36666e-06
-5.28165e-06
-5.56429e-07
5.2867e-06
9.62554e-06
1.02829e-05
7.12699e-06
2.74618e-06
4.33115e-07
3.13603e-08
-4.6235e-07
-2.22725e-06
-2.96641e-06
-5.06777e-07
5.25958e-07
9.85014e-07
2.74273e-06
5.07819e-06
4.17908e-06
-2.70247e-07
-3.92918e-06
-3.14698e-06
1.41754e-06
6.28389e-06
1.00948e-05
9.97913e-06
6.96852e-06
1.3907e-06
-1.46629e-06
-2.55694e-06
-3.72545e-06
-3.63956e-06
-1.6703e-06
3.00758e-07
8.31778e-07
-3.15566e-06
-6.14393e-07
3.2907e-06
4.20687e-06
1.99372e-06
-1.32557e-06
-9.19045e-07
2.0311e-06
5.91836e-06
9.15295e-06
9.27188e-06
5.11937e-06
3.88546e-07
-3.0423e-06
-4.938e-06
-6.05188e-06
-4.71058e-06
-2.24601e-06
6.64365e-07
6.58592e-07
-6.40441e-06
-3.47349e-06
4.75207e-07
3.16023e-06
3.15402e-06
1.96129e-06
1.66135e-06
2.85934e-06
5.2964e-06
6.89627e-06
6.99612e-06
2.79113e-06
-1.25295e-06
-4.70518e-06
-7.03874e-06
-7.71853e-06
-6.01625e-06
-2.79655e-06
-1.80245e-07
2.21656e-07
-8.86155e-06
-6.04155e-06
-2.69588e-06
8.67297e-07
3.86999e-06
5.2071e-06
4.44656e-06
3.84325e-06
4.14081e-06
3.75033e-06
5.48024e-06
1.05089e-06
-2.0822e-06
-5.69718e-06
-8.6859e-06
-9.1697e-06
-7.50632e-06
-4.26338e-06
-2.17526e-06
-8.38219e-07
-1.0367e-05
-8.4058e-06
-5.4999e-06
-1.2753e-06
4.30023e-06
7.67289e-06
7.00438e-06
5.05496e-06
3.45957e-06
2.16941e-06
-2.83184e-06
-1.28758e-06
-2.64681e-06
-5.77284e-06
-8.39529e-06
-9.51908e-06
-8.75389e-06
-6.15279e-06
-3.9778e-06
-1.59446e-06
-1.08767e-05
-9.57337e-06
-7.12417e-06
-2.36355e-06
4.51618e-06
9.08323e-06
8.41447e-06
5.59992e-06
2.66969e-06
7.68446e-07
-1.69114e-06
-1.58092e-06
-3.3889e-06
-6.11905e-06
-8.47056e-06
-9.98808e-06
-9.63694e-06
-7.28776e-06
-5.01624e-06
-1.96616e-06
-1.09775e-05
-9.53766e-06
-7.26405e-06
-2.40134e-06
4.63775e-06
9.15548e-06
8.3835e-06
5.49429e-06
2.96033e-06
4.19625e-07
-1.0894e-06
-1.90981e-06
-3.91398e-06
-6.25564e-06
-8.54465e-06
-1.00788e-05
-9.61788e-06
-7.24134e-06
-4.99941e-06
-1.96543e-06
-1.02919e-05
-8.33279e-06
-5.48992e-06
-1.08469e-06
4.46871e-06
7.74373e-06
6.98344e-06
4.91861e-06
3.38494e-06
2.48176e-06
2.6608e-07
-9.07141e-07
-3.11051e-06
-5.7822e-06
-8.09566e-06
-9.56819e-06
-9.13775e-06
-6.30171e-06
-3.95718e-06
-1.48694e-06
-8.76854e-06
-6.04214e-06
-2.43294e-06
1.18379e-06
4.00579e-06
5.22459e-06
4.3877e-06
3.67432e-06
4.01892e-06
4.34489e-06
4.27401e-06
7.01615e-07
-2.13181e-06
-5.83136e-06
-8.29883e-06
-9.29605e-06
-8.02447e-06
-4.97451e-06
-2.37021e-06
-6.69569e-07
-6.1486e-06
-3.1487e-06
8.50355e-07
3.23845e-06
3.32594e-06
2.03092e-06
1.74629e-06
3.04265e-06
5.42974e-06
7.51996e-06
5.80547e-06
2.78182e-06
-1.25147e-06
-4.96046e-06
-6.97985e-06
-7.26772e-06
-5.39358e-06
-2.67021e-06
-5.25694e-07
1.4807e-09
-2.66138e-06
-1.31653e-07
3.46632e-06
4.28409e-06
1.83798e-06
-1.33994e-06
-8.5418e-07
2.0384e-06
6.36794e-06
9.43796e-06
9.00008e-06
5.09508e-06
4.76508e-07
-3.0071e-06
-5.02236e-06
-5.52519e-06
-4.23835e-06
-1.69181e-06
5.68039e-07
6.42038e-07
1.75259e-06
3.23002e-06
5.19632e-06
4.1338e-06
-4.07203e-07
-4.09234e-06
-3.30377e-06
9.85406e-07
6.06447e-06
1.03301e-05
1.14843e-05
7.02269e-06
2.19009e-06
-9.64544e-07
-2.5054e-06
-3.51822e-06
-3.64601e-06
-1.73259e-06
8.69223e-07
9.04566e-07
6.35103e-06
5.75038e-06
5.63105e-06
2.74659e-06
-2.87324e-06
-6.21483e-06
-5.08027e-06
-1.37547e-07
5.28794e-06
9.97485e-06
9.87737e-06
7.70441e-06
3.04505e-06
7.07262e-07
2.35405e-07
-6.31083e-07
-2.12616e-06
-2.09759e-06
-6.98868e-08
4.83359e-07
1.1272e-05
8.63159e-06
5.38187e-06
1.62724e-07
-5.50781e-06
-7.58594e-06
-6.267e-06
-1.85814e-06
3.57383e-06
8.78856e-06
1.02662e-05
7.15345e-06
3.55944e-06
2.16501e-06
2.77312e-06
2.08432e-06
-1.02745e-06
-3.10164e-06
-1.6511e-06
-2.96192e-07
1.56147e-05
9.28173e-06
3.64862e-06
-2.23497e-06
-7.31825e-06
-8.71471e-06
-7.26898e-06
-3.92138e-06
1.8223e-06
6.6476e-06
7.94209e-06
5.52393e-06
3.71434e-06
3.74777e-06
4.97901e-06
4.22295e-06
-3.59855e-07
-3.71791e-06
-3.67615e-06
-9.478e-07
1.74348e-05
1.01497e-05
3.17009e-06
-3.88196e-06
-8.44621e-06
-9.1758e-06
-7.84826e-06
-5.1678e-06
7.03826e-07
6.42288e-06
7.46157e-06
5.18308e-06
3.61218e-06
4.07839e-06
5.98182e-06
5.42571e-06
6.3188e-07
-4.11411e-06
-4.24153e-06
-1.48087e-06
)
;

boundaryField
{
    sides
    {
        type            calculated;
        value           nonuniform List<scalar> 
40
(
1.74348e-05
1.01497e-05
3.17009e-06
-3.88196e-06
-8.44621e-06
-9.1758e-06
-7.84826e-06
-5.1678e-06
7.03826e-07
6.42288e-06
7.46157e-06
5.18308e-06
3.61218e-06
4.07839e-06
5.98182e-06
5.42571e-06
6.3188e-07
-4.11411e-06
-4.24153e-06
-1.48087e-06
1.73414e-05
1.02315e-05
2.73464e-06
-4.17364e-06
-9.70778e-06
-9.65011e-06
-8.25412e-06
-5.3768e-06
1.61305e-07
5.21296e-06
6.67543e-06
4.58945e-06
3.02015e-06
3.95163e-06
5.61153e-06
4.97456e-06
4.54516e-07
-3.95527e-06
-3.96521e-06
-1.39721e-06
)
;
    }
    inlet
    {
        type            calculated;
        value           nonuniform List<scalar> 
20
(
1.73414e-05
1.47281e-05
1.08211e-05
5.7845e-06
9.85014e-07
-3.15566e-06
-6.40441e-06
-8.86155e-06
-1.0367e-05
-1.08767e-05
-1.09775e-05
-1.02919e-05
-8.76854e-06
-6.1486e-06
-2.66138e-06
1.75259e-06
6.35103e-06
1.1272e-05
1.56147e-05
1.74348e-05
)
;
    }
    outlet
    {
        type            calculated;
        value           uniform 0;
    }
    frontAndBack
    {
        type            empty;
    }
}


// ************************************************************************* //
