/*--------------------------------*- C++ -*----------------------------------*\
  =========                 |
  \\      /  F ield         | OpenFOAM: The Open Source CFD Toolbox
   \\    /   O peration     | Website:  https://openfoam.org
    \\  /    A nd           | Version:  9
     \\/     M anipulation  |
\*---------------------------------------------------------------------------*/
FoamFile
{
    format      ascii;
    class       surfaceScalarField;
    location    "11";
    object      ddtCorrDdt0(phi);
}
// * * * * * * * * * * * * * * * * * * * * * * * * * * * * * * * * * * * * * //

dimensions      [0 4 -2 0 0 0 0];

internalField   nonuniform List<scalar> 
760
(
-5.22034e-10
4.03972e-09
1.04823e-09
3.61868e-09
1.06036e-09
1.5049e-09
1.01031e-09
-6.77517e-10
-2.59641e-09
1.78711e-10
-3.60389e-09
1.39296e-09
-1.8519e-11
3.40111e-09
4.92587e-09
1.90838e-09
6.95432e-09
2.24524e-10
5.73347e-09
1.31374e-10
6.02666e-09
7.48853e-10
6.39316e-09
1.46505e-09
2.47164e-09
-1.72122e-10
-5.20434e-09
-2.63274e-09
-1.17182e-08
-1.88482e-09
-1.01268e-08
-6.09008e-10
-3.80748e-09
1.06593e-09
-2.42296e-10
1.43462e-09
-1.06754e-09
8.23728e-10
3.6984e-10
1.55736e-10
6.9134e-09
1.17216e-09
5.08074e-09
5.76146e-10
1.17188e-09
7.73439e-10
-2.27106e-09
-7.35715e-10
-1.80698e-09
-2.75156e-09
3.18626e-09
5.0091e-10
5.93826e-09
5.27066e-09
3.50035e-09
6.25721e-09
-3.66329e-10
5.75544e-09
-3.93762e-10
6.88165e-09
1.14907e-09
6.03355e-09
2.58488e-10
2.15083e-09
-1.25157e-09
-5.48519e-09
-3.47676e-09
-1.14522e-08
-3.31649e-09
-1.0258e-08
6.92747e-11
-3.28554e-09
2.30518e-09
-6.22229e-10
5.65805e-09
-1.381e-09
2.73025e-09
7.87451e-10
8.8048e-10
7.95889e-09
8.26141e-10
5.14487e-09
-2.81324e-10
4.74322e-10
-2.21596e-10
-3.41913e-09
1.23472e-09
-9.60929e-10
6.61961e-10
3.31783e-09
2.50685e-09
6.03516e-09
4.89196e-09
2.90423e-09
5.45074e-09
-1.02771e-09
4.93916e-09
-2.78798e-10
5.34887e-09
2.89116e-09
5.56387e-09
2.5902e-09
2.04161e-09
-1.61658e-10
-5.11896e-09
-4.49065e-09
-1.0437e-08
-3.44758e-09
-9.10426e-09
-1.28658e-10
-4.06343e-09
4.3987e-09
-3.89887e-11
1.50223e-09
-1.28859e-09
2.82071e-09
9.40107e-10
1.69554e-09
6.27838e-09
6.3344e-10
2.784e-09
-9.93565e-10
-1.11862e-09
-2.79435e-10
-4.6134e-09
2.05516e-09
-2.88455e-09
3.84503e-09
3.55649e-09
4.91061e-09
5.49939e-09
5.31842e-09
1.29212e-09
5.50373e-09
-1.85123e-09
3.96537e-09
7.70531e-12
3.96702e-09
3.15791e-09
4.15902e-09
3.44174e-09
9.33665e-10
-3.85976e-10
-4.3115e-09
-3.92198e-09
-8.98319e-09
-3.11678e-09
-8.64472e-09
1.72084e-09
-2.97335e-09
5.48568e-09
-2.31517e-09
8.69956e-09
-2.65728e-09
4.30828e-09
8.35374e-10
2.57982e-09
3.95769e-09
9.0367e-10
-9.18453e-10
-1.78038e-09
-4.13104e-09
-6.68326e-10
-5.66607e-09
3.59287e-09
-2.40595e-09
6.75373e-09
2.92068e-09
7.39847e-09
3.41712e-09
6.64978e-09
-1.37055e-09
5.20375e-09
-3.49161e-09
3.14471e-09
-5.68739e-10
1.84099e-09
5.0169e-09
2.94651e-09
5.89145e-09
-2.12779e-12
2.04882e-09
-4.37642e-09
-1.66694e-09
-7.62261e-09
-1.57734e-09
-6.2964e-09
2.55519e-09
-4.82125e-09
7.59359e-09
-3.54412e-09
4.99482e-09
-4.05453e-09
4.59597e-09
1.47767e-09
2.63732e-09
1.45461e-09
1.10817e-09
-3.84788e-09
-1.24123e-09
-6.14893e-09
-3.17516e-10
-6.39883e-09
3.89617e-09
-2.35393e-09
7.93937e-09
2.06925e-09
9.08187e-09
1.06942e-09
8.58446e-09
-3.79936e-09
5.35931e-09
-5.58496e-09
2.45724e-09
-1.26505e-09
1.65235e-09
4.84024e-09
1.60116e-09
7.41544e-09
5.03499e-11
4.20272e-09
-4.05003e-09
4.54385e-10
-6.61848e-09
5.40124e-10
-6.4931e-09
3.19422e-09
-6.62364e-09
6.79732e-09
-6.12363e-09
5.97723e-09
-5.92954e-09
4.03989e-09
9.7754e-10
2.4982e-09
-5.29524e-10
1.32566e-09
-5.46182e-09
1.80482e-11
-6.95414e-09
4.32068e-10
-6.21359e-09
3.35286e-09
-2.21285e-09
7.96613e-09
1.48907e-09
1.05093e-08
-1.7563e-10
1.02875e-08
-4.85344e-09
6.76316e-09
-6.58748e-09
3.07747e-09
-1.38358e-09
1.37839e-09
4.25961e-09
-4.47244e-10
8.54961e-09
-1.19702e-09
5.27305e-09
-3.27031e-09
1.44101e-09
-6.24985e-09
2.15677e-09
-7.0342e-09
3.60526e-09
-7.94419e-09
6.60063e-09
-8.37454e-09
5.09553e-09
-8.08107e-09
3.44629e-09
7.60805e-10
2.27633e-09
-1.21675e-09
1.30117e-09
-5.11867e-09
1.5492e-09
-5.96534e-09
1.43326e-09
-5.31559e-09
2.93366e-09
-1.51407e-09
7.04389e-09
9.28753e-10
1.13517e-08
-1.0763e-09
1.20053e-08
-4.54306e-09
8.86681e-09
-5.45001e-09
5.83157e-09
-2.21866e-09
2.66247e-09
4.61124e-08
-1.5121e-09
6.93375e-09
-2.80015e-09
5.51275e-09
-3.34446e-09
1.62714e-09
-6.19187e-09
3.1821e-09
-9.53236e-09
3.51432e-09
-1.10805e-08
4.02689e-09
-1.08816e-08
3.37803e-09
-9.76439e-09
2.36602e-09
9.14107e-10
1.97882e-09
-1.02451e-09
1.06887e-09
-3.38248e-09
2.47727e-09
-3.63537e-09
2.84491e-09
-3.32004e-09
2.70915e-09
-9.39934e-10
5.98339e-09
3.13144e-10
1.08826e-08
-7.56978e-10
1.29823e-08
-2.88097e-09
1.13906e-08
-3.63185e-09
7.79775e-09
-5.75809e-10
7.88088e-10
1.47676e-09
-2.09486e-09
4.35121e-09
-2.85081e-09
3.01879e-09
-3.13141e-09
6.36061e-10
-5.66376e-09
1.73793e-09
-1.06919e-08
3.43308e-09
-1.35605e-08
1.67765e-09
-1.34297e-08
5.83525e-10
-1.14601e-08
1.6048e-09
1.47351e-09
1.87231e-09
-2.19372e-10
1.06967e-09
-4.13497e-10
2.89979e-09
-5.80928e-10
3.73347e-09
-6.64291e-10
2.18606e-09
-5.50556e-10
5.06558e-09
-2.1781e-10
1.076e-08
1.05478e-10
1.38893e-08
4.65362e-10
1.28742e-08
3.06122e-10
8.30542e-09
5.18993e-11
2.68616e-09
-2.77017e-10
-1.3229e-09
-2.07289e-10
-3.62481e-09
-6.8368e-10
-5.59813e-09
-4.87852e-10
-6.69295e-09
-1.11845e-10
-9.20674e-09
-2.07842e-10
-1.36377e-08
-2.57532e-10
-1.66416e-08
-2.89774e-11
-1.41135e-08
2.43397e-10
2.16712e-10
1.91838e-09
8.02009e-10
9.76564e-10
2.48346e-09
2.75021e-09
2.65724e-09
3.69685e-09
2.0364e-09
2.29763e-09
-1.47929e-10
5.1954e-09
-7.63245e-10
1.09409e-08
1.20907e-09
1.39246e-08
3.76486e-09
1.26202e-08
4.74111e-09
8.1765e-09
1.19386e-09
2.96731e-09
-3.9822e-09
-1.86031e-09
-5.56797e-09
-3.44294e-09
-3.66535e-09
-5.30823e-09
-1.54566e-09
-6.91924e-09
-2.23962e-09
-9.44291e-09
-4.21969e-09
-1.35519e-08
-2.86262e-09
-1.65145e-08
-3.34037e-10
-1.41432e-08
-9.71524e-10
-7.62905e-10
1.94589e-09
9.47518e-10
1.03569e-09
4.57588e-09
2.2802e-09
5.08527e-09
2.67466e-09
4.03494e-09
2.67038e-09
5.95785e-10
6.26922e-09
-1.21404e-09
1.10659e-08
1.60136e-09
1.3202e-08
5.48465e-09
1.14264e-08
6.59725e-09
5.67617e-09
2.9724e-09
3.97358e-09
6.39629e-08
-1.49459e-09
-6.73637e-09
-2.53321e-09
-5.78139e-09
-3.65463e-09
-2.39263e-09
-5.34088e-09
-2.91419e-09
-1.08755e-08
-3.49984e-09
-1.38704e-08
-3.73227e-09
-1.3265e-08
-2.7767e-09
-1.14792e-08
-1.8707e-09
-3.79733e-10
2.37025e-09
2.62509e-10
1.2251e-09
4.80759e-09
1.04128e-09
5.63987e-09
1.2793e-09
5.06374e-09
3.01672e-09
1.47392e-09
7.61808e-09
-1.58871e-09
1.17632e-08
5.8304e-10
1.24539e-08
5.59781e-09
8.79704e-09
6.91303e-09
7.1594e-09
1.92048e-09
6.62658e-10
-7.80058e-09
-1.50285e-09
-8.87578e-09
-2.40413e-09
-5.73522e-09
-3.91781e-09
-2.32401e-09
-6.62504e-09
-2.27479e-09
-9.05322e-09
-4.09181e-09
-1.20131e-08
-4.92761e-09
-1.1137e-08
-5.07208e-09
-9.41225e-09
-2.59555e-09
-1.19226e-10
2.57323e-09
-1.59503e-09
9.6156e-10
3.15429e-09
-3.69747e-10
5.3102e-09
3.54047e-10
5.72289e-09
3.53627e-09
1.87105e-09
8.56135e-09
-2.0133e-09
1.10139e-08
-9.50893e-10
1.05306e-08
4.29295e-09
6.81457e-09
5.88656e-09
3.27397e-09
1.51751e-09
1.15384e-09
-5.72461e-09
2.13083e-10
-7.35276e-09
-9.60267e-10
-4.85522e-09
-3.39515e-09
-1.34148e-09
-6.33492e-09
-9.7993e-10
-7.93615e-09
-3.66844e-09
-8.11417e-09
-5.71092e-09
-8.34616e-09
-5.31099e-09
-7.85489e-09
-3.05333e-09
-4.16585e-10
2.39669e-09
-4.09644e-09
8.51998e-10
5.19966e-10
-1.48895e-09
3.60995e-09
-6.28617e-10
5.26078e-09
3.94599e-09
2.48029e-09
8.0569e-09
-2.58778e-09
9.78065e-09
-2.93642e-09
8.93946e-09
1.80562e-09
5.69512e-09
4.35432e-09
2.34433e-09
1.07074e-09
2.42198e-09
-4.2901e-09
1.6648e-09
-6.12038e-09
2.95454e-10
-3.12885e-09
-3.59253e-09
4.21791e-10
-7.09717e-09
2.76766e-10
-7.52072e-09
-3.19334e-09
-6.26603e-09
-6.05532e-09
-5.69433e-09
-6.03901e-09
-5.7159e-09
-3.53434e-09
-5.04177e-10
2.27795e-09
-6.18192e-09
7.99193e-10
-2.58857e-09
-1.94549e-09
1.28575e-09
-7.98451e-10
4.40217e-09
3.43475e-09
2.49809e-09
6.4764e-09
-2.90819e-09
7.56513e-09
-4.44751e-09
7.04728e-09
-7.75389e-10
5.50768e-09
2.03612e-09
3.6204e-09
1.94497e-10
3.23365e-09
-4.25642e-09
2.96629e-09
-4.96478e-09
5.85005e-10
-1.03018e-09
-4.0081e-09
2.07806e-09
-7.95293e-09
1.51261e-09
-7.06816e-09
-2.30428e-09
-4.46883e-09
-5.73579e-09
-3.59705e-09
-6.08759e-09
-3.90652e-09
-3.75498e-09
-7.63013e-10
1.52032e-09
-7.61103e-09
6.73963e-10
-4.91305e-09
-1.32154e-09
-9.46421e-10
-5.00464e-10
3.1133e-09
2.52201e-09
2.64026e-09
3.84051e-09
-3.61754e-09
4.81867e-09
-6.22971e-09
5.80832e-09
-3.0784e-09
5.26827e-09
4.21644e-10
4.31219e-09
2.32373e-10
3.90222e-09
-3.57112e-09
4.4315e-09
-3.08571e-09
1.29105e-09
-1.38136e-10
-4.33576e-09
2.89101e-09
-8.58058e-09
2.4698e-09
-7.84467e-09
-1.00681e-09
-3.8861e-09
-4.37003e-09
-1.8457e-09
-4.89181e-09
-2.15662e-09
-2.79039e-09
-5.9278e-10
9.04584e-10
-7.32718e-09
8.53938e-10
-5.72638e-09
3.48335e-11
-1.35987e-09
3.75317e-10
2.03436e-09
3.22408e-10
-2.85849e-11
4.07157e-10
-3.02424e-09
2.2372e-09
-5.31097e-09
5.12823e-09
-2.90319e-09
6.37188e-09
3.27739e-10
5.34297e-09
-8.68767e-11
5.69841e-09
-1.12436e-09
6.06628e-09
-1.05579e-09
1.79996e-09
9.07398e-10
-5.05108e-09
2.97923e-09
-9.95677e-09
2.68472e-09
-8.62165e-09
-2.35763e-10
-3.30043e-09
-2.91724e-09
-5.58528e-10
-3.62916e-09
-1.82954e-09
-2.7822e-09
-5.58252e-10
-2.26473e-11
-3.96228e-09
1.3364e-09
-2.70787e-09
6.02504e-10
-1.21065e-09
3.65891e-10
9.35182e-10
-9.03837e-10
1.29847e-09
-2.17426e-09
-1.90522e-09
3.96345e-10
-3.6688e-09
4.79834e-09
-2.03454e-09
6.80778e-09
3.7549e-10
6.15126e-09
-1.38448e-11
6.12704e-09
-1.75456e-09
5.95454e-09
-1.43312e-09
2.35182e-09
5.51156e-10
-4.99889e-09
1.49363e-09
-1.09819e-08
1.37721e-09
-9.40895e-09
1.11459e-10
-3.12e-09
-1.60024e-09
-5.73428e-10
-2.28997e-09
-1.44978e-09
-1.62425e-09
-4.47521e-10
-9.87474e-12
9.60511e-10
1.49025e-09
1.31575e-09
-2.18261e-09
-4.6329e-09
-5.74025e-10
5.26587e-09
6.96585e-09
6.16275e-09
7.09146e-09
7.5239e-09
2.84988e-09
-5.2573e-09
-1.16906e-08
-1.04335e-08
-3.84587e-09
-1.87117e-10
-5.89001e-10
)
;

boundaryField
{
    sides
    {
        type            calculated;
        value           uniform 0;
    }
    inlet
    {
        type            calculated;
        value           uniform 0;
    }
    outlet
    {
        type            calculated;
        value           nonuniform List<scalar> 
20
(
-2.07523e-09
-2.21927e-09
-2.5945e-09
-3.15939e-09
-3.8039e-09
-5.91604e-09
-7.81762e-09
-9.12214e-09
-1.07062e-08
-1.13418e-08
-1.12476e-08
-1.03764e-08
-8.6217e-09
-7.48578e-09
-5.50379e-09
-4.01175e-09
-2.76147e-09
-2.3677e-09
-2.05431e-09
-1.50313e-09
)
;
    }
    frontAndBack
    {
        type            empty;
        value           nonuniform List<scalar> 0();
    }
}


// ************************************************************************* //
