/*--------------------------------*- C++ -*----------------------------------*\
  =========                 |
  \\      /  F ield         | OpenFOAM: The Open Source CFD Toolbox
   \\    /   O peration     | Website:  https://openfoam.org
    \\  /    A nd           | Version:  9
     \\/     M anipulation  |
\*---------------------------------------------------------------------------*/
FoamFile
{
    format      ascii;
    class       volVectorField;
    location    "11";
    object      ddtCorrDdt0(hU);
}
// * * * * * * * * * * * * * * * * * * * * * * * * * * * * * * * * * * * * * //

dimensions      [0 2 -2 0 0 0 0];

internalField   nonuniform List<vector> 
400
(
(1.4054e-06 4.00161e-07 0)
(2.14196e-07 3.37757e-07 0)
(-2.78743e-08 1.50161e-07 0)
(8.51514e-08 -1.94003e-08 0)
(-3.06478e-07 -3.03391e-09 0)
(-6.16493e-07 3.17293e-07 0)
(-4.72557e-07 3.8816e-07 0)
(2.95357e-07 2.27758e-07 0)
(1.23896e-06 8.90928e-08 0)
(1.56243e-06 2.10347e-08 0)
(1.39634e-06 8.32303e-08 0)
(1.17581e-06 1.38357e-07 0)
(6.99377e-07 -1.76721e-08 0)
(-3.37302e-07 -1.44882e-07 0)
(-1.57396e-06 -1.5896e-07 0)
(-1.99873e-06 -3.74372e-08 0)
(-1.40233e-06 6.84876e-08 0)
(-6.08381e-07 1.95951e-07 0)
(-2.59932e-07 1.42545e-07 0)
(-1.37735e-07 3.05256e-08 0)
(1.21959e-06 1.09506e-06 0)
(2.6258e-07 8.59315e-07 0)
(3.06624e-08 2.77723e-07 0)
(7.11514e-09 -2.0207e-07 0)
(-6.49514e-08 -1.66218e-07 0)
(-4.09805e-07 6.31164e-07 0)
(-3.62083e-07 9.93349e-07 0)
(3.9426e-07 6.05222e-07 0)
(1.19508e-06 9.76242e-08 0)
(1.51508e-06 1.04708e-08 0)
(1.51772e-06 2.36755e-07 0)
(1.20981e-06 2.06405e-07 0)
(6.51417e-07 -1.79544e-07 0)
(-4.26451e-07 -5.15083e-07 0)
(-1.59138e-06 -5.04226e-07 0)
(-2.00579e-06 -1.06719e-07 0)
(-1.37192e-06 3.23948e-07 0)
(-5.73424e-07 4.29038e-07 0)
(-3.05667e-07 3.66849e-07 0)
(-1.98565e-07 1.38686e-07 0)
(8.88217e-07 1.49243e-06 0)
(2.76133e-07 1.02861e-06 0)
(2.24152e-08 1.57181e-07 0)
(-8.26801e-08 -5.01187e-07 0)
(-1.04227e-08 -2.88878e-07 0)
(9.25317e-08 6.84629e-07 0)
(1.57507e-07 1.22341e-06 0)
(6.12962e-07 6.58884e-07 0)
(1.10609e-06 -9.18135e-08 0)
(1.32558e-06 2.94795e-08 0)
(1.23824e-06 4.59281e-07 0)
(1.05399e-06 3.23852e-07 0)
(6.16188e-07 -2.84033e-07 0)
(-4.1518e-07 -8.41744e-07 0)
(-1.49552e-06 -7.04819e-07 0)
(-1.82157e-06 -3.5915e-08 0)
(-1.37774e-06 6.31165e-07 0)
(-5.26687e-07 9.09008e-07 0)
(-1.68025e-07 6.26163e-07 0)
(-2.91158e-07 1.78143e-07 0)
(4.46722e-07 1.43319e-06 0)
(3.1419e-07 7.8395e-07 0)
(9.57956e-08 -9.50936e-08 0)
(-1.26227e-07 -7.87779e-07 0)
(7.88388e-08 -3.87245e-07 0)
(4.53433e-07 7.3057e-07 0)
(6.98779e-07 1.17257e-06 0)
(9.32911e-07 4.20836e-07 0)
(1.18615e-06 -2.81538e-07 0)
(1.19924e-06 3.88564e-08 0)
(9.86296e-07 7.04267e-07 0)
(8.08807e-07 5.93949e-07 0)
(3.63153e-07 -1.32498e-07 0)
(-4.29453e-07 -8.53988e-07 0)
(-1.31637e-06 -7.62934e-07 0)
(-1.70885e-06 7.47169e-08 0)
(-1.19922e-06 1.01475e-06 0)
(-6.35254e-07 1.26545e-06 0)
(-4.68134e-07 8.33427e-07 0)
(-5.16293e-07 2.06005e-07 0)
(4.14542e-08 1.03799e-06 0)
(3.9456e-07 1.80134e-07 0)
(1.50606e-07 -5.55671e-07 0)
(-2.08139e-07 -1.05854e-06 0)
(2.12618e-07 -5.02467e-07 0)
(8.83961e-07 6.78634e-07 0)
(1.25708e-06 9.10005e-07 0)
(1.36799e-06 -1.8985e-08 0)
(1.26663e-06 -5.44158e-07 0)
(1.05434e-06 -4.99325e-08 0)
(6.46552e-07 8.19807e-07 0)
(5.32948e-07 9.54585e-07 0)
(1.66465e-07 2.26233e-07 0)
(-5.456e-07 -4.40826e-07 0)
(-1.21492e-06 -4.28167e-07 0)
(-1.40976e-06 3.9853e-07 0)
(-1.18229e-06 1.33143e-06 0)
(-8.47948e-07 1.31918e-06 0)
(-6.78511e-07 8.85726e-07 0)
(-7.81169e-07 2.41186e-07 0)
(-3.65029e-07 5.52735e-07 0)
(3.74159e-07 -4.89665e-07 0)
(2.9462e-07 -1.05633e-06 0)
(-1.34945e-07 -1.24818e-06 0)
(3.21348e-07 -4.93363e-07 0)
(1.06211e-06 5.26197e-07 0)
(1.59188e-06 4.85686e-07 0)
(1.73618e-06 -5.39133e-07 0)
(1.47119e-06 -9.93397e-07 0)
(9.31216e-07 -2.36382e-07 0)
(5.56743e-07 9.18272e-07 0)
(3.38032e-07 1.35257e-06 0)
(1.02779e-07 5.4577e-07 0)
(-4.62735e-07 -1.67925e-07 0)
(-1.12419e-06 -7.35067e-08 0)
(-1.40729e-06 6.29454e-07 0)
(-1.37688e-06 1.24987e-06 0)
(-1.26573e-06 1.35521e-06 0)
(-1.07097e-06 8.97311e-07 0)
(-1.20029e-06 2.29548e-07 0)
(-7.09362e-07 1.00531e-07 0)
(3.78287e-07 -9.4877e-07 0)
(4.44181e-07 -1.33446e-06 0)
(3.43038e-08 -1.30876e-06 0)
(3.35471e-07 -4.86018e-07 0)
(1.1097e-06 3.82622e-07 0)
(1.81263e-06 1.13375e-07 0)
(2.04958e-06 -8.74633e-07 0)
(1.74774e-06 -1.25385e-06 0)
(1.07193e-06 -3.26938e-07 0)
(6.01647e-07 1.09608e-06 0)
(7.71943e-08 1.67362e-06 0)
(-2.2583e-07 9.9785e-07 0)
(-4.96374e-07 1.70443e-07 0)
(-1.01253e-06 1.7536e-07 0)
(-1.41404e-06 7.3927e-07 0)
(-1.59717e-06 1.11856e-06 0)
(-1.58016e-06 1.05411e-06 0)
(-1.52549e-06 7.09659e-07 0)
(-1.60782e-06 1.72509e-07 0)
(-9.73546e-07 -1.71499e-07 0)
(3.61145e-07 -1.08146e-06 0)
(5.70161e-07 -1.31018e-06 0)
(2.10442e-07 -1.1984e-06 0)
(4.13868e-07 -4.21965e-07 0)
(1.07568e-06 2.92054e-07 0)
(1.87002e-06 -5.15357e-08 0)
(2.35988e-06 -1.00199e-06 0)
(2.11219e-06 -1.32041e-06 0)
(1.36444e-06 -3.57379e-07 0)
(1.00089e-06 1.14054e-06 0)
(1.37129e-07 1.56624e-06 0)
(-3.84976e-07 1.11896e-06 0)
(-6.62024e-07 4.81153e-07 0)
(-1.08711e-06 4.29665e-07 0)
(-1.646e-06 8.78197e-07 0)
(-2.18828e-06 1.04013e-06 0)
(-2.1511e-06 8.95581e-07 0)
(-1.93819e-06 5.28975e-07 0)
(-1.8886e-06 9.6121e-08 0)
(-1.13988e-06 -2.30875e-07 0)
(2.95917e-07 -8.7022e-07 0)
(6.18007e-07 -9.9209e-07 0)
(3.6432e-07 -8.84318e-07 0)
(5.44875e-07 -2.7638e-07 0)
(1.04159e-06 1.0791e-07 0)
(1.79229e-06 -1.74468e-07 0)
(2.40397e-06 -7.9314e-07 0)
(2.42721e-06 -1.03798e-06 0)
(1.98669e-06 -3.62339e-07 0)
(6.40843e-07 7.79438e-07 0)
(-8.77581e-08 1.21432e-06 0)
(-3.96574e-07 8.39933e-07 0)
(-5.58891e-07 2.79494e-07 0)
(-9.13983e-07 2.71157e-07 0)
(-1.7747e-06 8.23533e-07 0)
(-2.64379e-06 7.8192e-07 0)
(-2.6064e-06 3.25151e-07 0)
(-2.38572e-06 3.54372e-07 0)
(-2.19609e-06 2.38214e-07 0)
(-1.19959e-06 -1.28502e-07 0)
(2.87981e-07 -3.92291e-07 0)
(6.28343e-07 -4.46199e-07 0)
(4.51886e-07 -4.02572e-07 0)
(5.9689e-07 -1.51206e-07 0)
(9.47933e-07 -2.75616e-08 0)
(1.72171e-06 -1.1936e-07 0)
(2.48211e-06 -2.34134e-07 0)
(2.70539e-06 -2.91318e-07 0)
(2.02313e-06 -1.40509e-07 0)
(8.98559e-07 2.32221e-07 0)
(2.74123e-07 5.50798e-07 0)
(-3.60941e-07 2.43652e-07 0)
(-9.4145e-07 -1.38375e-08 0)
(-1.39244e-06 1.07596e-07 0)
(-1.74351e-06 4.36712e-07 0)
(-2.20934e-06 1.6415e-07 0)
(-3.01557e-06 -2.10266e-07 0)
(-3.2454e-06 2.48516e-07 0)
(-2.35425e-06 2.94438e-07 0)
(-1.20938e-06 6.23367e-08 0)
(2.97947e-07 2.08495e-07 0)
(5.95919e-07 2.21377e-07 0)
(4.2653e-07 1.47823e-07 0)
(6.1118e-07 -6.46303e-08 0)
(9.75759e-07 -6.35974e-08 0)
(1.7497e-06 1.80755e-07 0)
(2.49337e-06 4.02517e-07 0)
(2.70809e-06 4.53711e-07 0)
(1.95268e-06 2.1445e-07 0)
(9.6082e-07 -5.10352e-07 0)
(2.15725e-07 -7.25416e-07 0)
(-4.12787e-07 -4.83942e-07 0)
(-8.72178e-07 -2.01307e-07 0)
(-1.39198e-06 -3.24518e-07 0)
(-1.7959e-06 -5.66493e-07 0)
(-2.21089e-06 -1.9235e-07 0)
(-2.99363e-06 2.54927e-07 0)
(-3.24247e-06 -1.09141e-07 0)
(-2.34706e-06 -1.92932e-07 0)
(-1.14437e-06 1.74961e-07 0)
(2.96788e-07 7.17766e-07 0)
(5.88271e-07 7.97174e-07 0)
(3.33346e-07 6.47395e-07 0)
(5.26773e-07 8.16268e-08 0)
(1.06463e-06 -1.88987e-07 0)
(1.83372e-06 2.56716e-07 0)
(2.4295e-06 9.6594e-07 0)
(2.44892e-06 1.25486e-06 0)
(1.7335e-06 5.06047e-07 0)
(8.74884e-07 -5.46501e-07 0)
(2.61894e-07 -1.24817e-06 0)
(-3.43004e-07 -9.42776e-07 0)
(-5.90707e-07 -4.4211e-07 0)
(-9.1062e-07 -5.03447e-07 0)
(-1.7531e-06 -9.74446e-07 0)
(-2.71952e-06 -7.68192e-07 0)
(-2.62559e-06 -3.26234e-07 0)
(-2.3578e-06 -2.51312e-07 0)
(-2.16268e-06 -1.21577e-07 0)
(-9.67756e-07 1.206e-07 0)
(3.66001e-07 9.51784e-07 0)
(5.19762e-07 1.09152e-06 0)
(1.44028e-07 9.5954e-07 0)
(4.01689e-07 2.52817e-07 0)
(1.13651e-06 -3.24107e-07 0)
(1.96867e-06 1.63076e-07 0)
(2.44462e-06 1.19695e-06 0)
(2.12425e-06 1.49085e-06 0)
(1.55646e-06 4.57731e-07 0)
(9.06493e-07 -7.96906e-07 0)
(-6.85056e-08 -1.56712e-06 0)
(-3.678e-07 -1.20134e-06 0)
(-6.83836e-07 -6.17228e-07 0)
(-1.12527e-06 -4.9776e-07 0)
(-1.64976e-06 -9.30317e-07 0)
(-2.28108e-06 -1.07615e-06 0)
(-2.276e-06 -8.46018e-07 0)
(-1.90412e-06 -4.32891e-07 0)
(-1.80318e-06 4.45055e-09 0)
(-7.02408e-07 -1.36604e-07 0)
(3.65137e-07 8.10443e-07 0)
(3.8142e-07 1.11909e-06 0)
(-3.19389e-08 1.12529e-06 0)
(3.43627e-07 3.65564e-07 0)
(1.18727e-06 -3.84531e-07 0)
(1.92319e-06 -5.67862e-08 0)
(2.11578e-06 9.94494e-07 0)
(1.76629e-06 1.32463e-06 0)
(1.17103e-06 3.94321e-07 0)
(5.09971e-07 -1.28696e-06 0)
(1.50244e-07 -1.73222e-06 0)
(-1.09207e-07 -1.11224e-06 0)
(-5.05366e-07 -3.46192e-07 0)
(-1.04727e-06 -2.43652e-07 0)
(-1.51083e-06 -7.62789e-07 0)
(-1.67402e-06 -1.18781e-06 0)
(-1.59761e-06 -9.63739e-07 0)
(-1.53259e-06 -5.3706e-07 0)
(-1.53385e-06 -5.84256e-08 0)
(-3.71366e-07 -5.78488e-07 0)
(3.50321e-07 3.83157e-07 0)
(2.43527e-07 9.22263e-07 0)
(-2.00464e-07 1.13635e-06 0)
(2.76093e-07 4.52128e-07 0)
(1.08269e-06 -4.84239e-07 0)
(1.67494e-06 -4.25622e-07 0)
(1.82374e-06 6.292e-07 0)
(1.56268e-06 1.11186e-06 0)
(9.75647e-07 3.26005e-07 0)
(5.95148e-07 -9.23574e-07 0)
(4.22268e-07 -1.32324e-06 0)
(1.42563e-07 -7.01655e-07 0)
(-3.94653e-07 -2.37785e-08 0)
(-1.14594e-06 -7.05419e-08 0)
(-1.53078e-06 -7.29341e-07 0)
(-1.45292e-06 -1.21961e-06 0)
(-1.17624e-06 -1.1862e-06 0)
(-1.02306e-06 -6.81124e-07 0)
(-1.13297e-06 -8.14794e-08 0)
(4.93937e-08 -1.04523e-06 0)
(3.75685e-07 -1.99791e-07 0)
(1.22933e-07 5.20039e-07 0)
(-2.54696e-07 1.00204e-06 0)
(1.72715e-07 4.90621e-07 0)
(8.43772e-07 -5.79697e-07 0)
(1.25533e-06 -7.53495e-07 0)
(1.40399e-06 1.24422e-07 0)
(1.32242e-06 6.6172e-07 0)
(1.12229e-06 6.38828e-08 0)
(9.1834e-07 -8.30027e-07 0)
(6.1686e-07 -1.11346e-06 0)
(2.48758e-07 -4.42849e-07 0)
(-4.37969e-07 1.76824e-07 0)
(-1.23264e-06 1.18882e-07 0)
(-1.51972e-06 -5.51499e-07 0)
(-1.22664e-06 -1.19711e-06 0)
(-8.30227e-07 -1.2532e-06 0)
(-6.54778e-07 -7.63999e-07 0)
(-7.85219e-07 -1.31257e-07 0)
(4.56186e-07 -1.39739e-06 0)
(3.13895e-07 -7.51719e-07 0)
(6.32635e-08 6.16734e-08 0)
(-1.8261e-07 7.62747e-07 0)
(8.46249e-08 4.66475e-07 0)
(4.99749e-07 -6.67969e-07 0)
(6.88559e-07 -1.08493e-06 0)
(9.89494e-07 -3.90408e-07 0)
(1.19549e-06 2.47832e-07 0)
(1.22817e-06 -6.02956e-08 0)
(9.75012e-07 -7.73943e-07 0)
(8.76797e-07 -8.33212e-07 0)
(4.19497e-07 -8.85038e-08 0)
(-4.036e-07 5.49229e-07 0)
(-1.26612e-06 4.43937e-07 0)
(-1.60164e-06 -2.68054e-07 0)
(-1.23758e-06 -1.01463e-06 0)
(-6.5894e-07 -1.15358e-06 0)
(-3.54196e-07 -6.88945e-07 0)
(-4.42929e-07 -1.40921e-07 0)
(8.7422e-07 -1.49396e-06 0)
(3.31531e-07 -1.05762e-06 0)
(7.96415e-08 -2.14897e-07 0)
(-3.08713e-08 4.67936e-07 0)
(-5.62051e-08 2.69662e-07 0)
(-1.32158e-08 -7.27007e-07 0)
(1.00153e-07 -1.18034e-06 0)
(6.14107e-07 -6.11948e-07 0)
(1.20908e-06 1.35879e-08 0)
(1.45698e-06 -4.9195e-08 0)
(1.33765e-06 -4.84854e-07 0)
(1.1474e-06 -4.34863e-07 0)
(6.38139e-07 1.13106e-07 0)
(-4.26678e-07 6.2603e-07 0)
(-1.44932e-06 5.30547e-07 0)
(-1.74753e-06 -1.21546e-07 0)
(-1.23014e-06 -7.31586e-07 0)
(-5.33019e-07 -8.37412e-07 0)
(-2.64263e-07 -5.38179e-07 0)
(-3.12366e-07 -1.37981e-07 0)
(1.23794e-06 -1.14196e-06 0)
(2.70087e-07 -8.65968e-07 0)
(4.60596e-08 -2.78866e-07 0)
(-1.34631e-08 2.24881e-07 0)
(-1.77396e-07 1.52135e-07 0)
(-3.5324e-07 -5.14274e-07 0)
(-3.02473e-07 -9.21398e-07 0)
(3.37447e-07 -5.32776e-07 0)
(1.23305e-06 -7.38851e-09 0)
(1.58497e-06 -5.25528e-08 0)
(1.45005e-06 -3.26703e-07 0)
(1.14757e-06 -2.46821e-07 0)
(6.64482e-07 1.65155e-07 0)
(-3.41459e-07 5.31259e-07 0)
(-1.49418e-06 4.99131e-07 0)
(-1.8692e-06 5.58581e-08 0)
(-1.29747e-06 -4.37676e-07 0)
(-5.372e-07 -6.23787e-07 0)
(-3.31886e-07 -4.66731e-07 0)
(-1.70988e-07 -1.09712e-07 0)
(1.42926e-06 -4.14894e-07 0)
(2.62233e-07 -3.00931e-07 0)
(2.9988e-08 -1.44203e-07 0)
(1.14414e-07 6.14381e-08 0)
(-1.93502e-07 1.07355e-07 0)
(-6.85358e-07 -1.52593e-07 0)
(-6.36985e-07 -3.72225e-07 0)
(2.45706e-07 -2.37935e-07 0)
(1.26796e-06 -1.34799e-08 0)
(1.64839e-06 -4.12654e-08 0)
(1.54417e-06 -1.75092e-07 0)
(1.38796e-06 -1.2553e-07 0)
(8.67937e-07 1.15577e-07 0)
(-3.18844e-07 2.65193e-07 0)
(-1.57437e-06 2.37799e-07 0)
(-2.02548e-06 7.17107e-08 0)
(-1.44076e-06 -1.45127e-07 0)
(-6.12246e-07 -2.68609e-07 0)
(-2.23665e-07 -1.91583e-07 0)
(-1.21658e-08 -4.95874e-08 0)
)
;

boundaryField
{
    sides
    {
        type            calculated;
        value           nonuniform List<vector> 
40
(
(1.42926e-06 0 0)
(2.62233e-07 0 0)
(2.9988e-08 0 0)
(1.14414e-07 0 0)
(-1.93502e-07 0 0)
(-6.85358e-07 0 0)
(-6.36985e-07 0 0)
(2.45706e-07 0 0)
(1.26796e-06 0 0)
(1.64839e-06 0 0)
(1.54417e-06 0 0)
(1.38796e-06 0 0)
(8.67937e-07 0 0)
(-3.18844e-07 0 0)
(-1.57437e-06 0 0)
(-2.02548e-06 0 0)
(-1.44076e-06 0 0)
(-6.12246e-07 0 0)
(-2.23665e-07 0 0)
(-1.21658e-08 0 0)
(1.4054e-06 0 0)
(2.14196e-07 0 0)
(-2.78743e-08 0 0)
(8.51514e-08 0 0)
(-3.06478e-07 0 0)
(-6.16493e-07 0 0)
(-4.72557e-07 0 0)
(2.95357e-07 0 0)
(1.23896e-06 0 0)
(1.56243e-06 0 0)
(1.39634e-06 0 0)
(1.17581e-06 0 0)
(6.99377e-07 0 0)
(-3.37302e-07 0 0)
(-1.57396e-06 0 0)
(-1.99873e-06 0 0)
(-1.40233e-06 0 0)
(-6.08381e-07 0 0)
(-2.59932e-07 0 0)
(-1.37735e-07 0 0)
)
;
    }
    inlet
    {
        type            calculated;
        value           uniform (0 0 0);
    }
    outlet
    {
        type            calculated;
        value           nonuniform List<vector> 
20
(
(-1.37735e-07 3.05256e-08 0)
(-1.98565e-07 1.38686e-07 0)
(-2.91158e-07 1.78143e-07 0)
(-5.16293e-07 2.06005e-07 0)
(-7.81169e-07 2.41186e-07 0)
(-1.20029e-06 2.29548e-07 0)
(-1.60782e-06 1.72509e-07 0)
(-1.8886e-06 9.6121e-08 0)
(-2.19609e-06 2.38214e-07 0)
(-2.35425e-06 2.94438e-07 0)
(-2.34706e-06 -1.92932e-07 0)
(-2.16268e-06 -1.21577e-07 0)
(-1.80318e-06 4.45055e-09 0)
(-1.53385e-06 -5.84256e-08 0)
(-1.13297e-06 -8.14794e-08 0)
(-7.85219e-07 -1.31257e-07 0)
(-4.42929e-07 -1.40921e-07 0)
(-3.12366e-07 -1.37981e-07 0)
(-1.70988e-07 -1.09712e-07 0)
(-1.21658e-08 -4.95874e-08 0)
)
;
    }
    frontAndBack
    {
        type            empty;
    }
}


// ************************************************************************* //
