/*--------------------------------*- C++ -*----------------------------------*\
  =========                 |
  \\      /  F ield         | OpenFOAM: The Open Source CFD Toolbox
   \\    /   O peration     | Website:  https://openfoam.org
    \\  /    A nd           | Version:  9
     \\/     M anipulation  |
\*---------------------------------------------------------------------------*/
FoamFile
{
    format      ascii;
    class       volScalarField;
    location    "11";
    object      h_0;
}
// * * * * * * * * * * * * * * * * * * * * * * * * * * * * * * * * * * * * * //

dimensions      [0 1 0 0 0 0 0];

internalField   nonuniform List<scalar> 
400
(
0.00999917
0.0100005
0.0100009
0.0100005
0.00999967
0.00999898
0.00999829
0.00999731
0.00999627
0.00999573
0.00999579
0.00999581
0.00999556
0.00999569
0.00999681
0.00999874
0.0100003
0.0100007
0.0100003
0.0100001
0.00999901
0.0100001
0.0100004
0.0100002
0.0099995
0.0099987
0.00999793
0.00999689
0.00999584
0.00999545
0.00999561
0.00999563
0.0099955
0.00999568
0.00999679
0.00999862
0.0100001
0.0100004
0.0100002
0.00999999
0.00999883
0.00999956
0.00999993
0.00999995
0.00999953
0.00999859
0.00999753
0.00999637
0.00999547
0.00999521
0.00999546
0.00999568
0.00999567
0.00999592
0.00999697
0.00999862
0.00999992
0.0100003
0.0100001
0.00999995
0.00999878
0.00999909
0.00999945
0.0099997
0.00999945
0.00999855
0.00999723
0.00999589
0.009995
0.00999472
0.00999503
0.00999544
0.0099957
0.00999618
0.00999715
0.00999847
0.00999947
0.00999961
0.00999963
0.00999982
0.00999906
0.00999893
0.00999916
0.00999957
0.00999951
0.00999861
0.00999713
0.00999562
0.00999456
0.00999413
0.00999431
0.00999489
0.00999546
0.00999632
0.0099975
0.00999865
0.00999919
0.00999931
0.00999939
0.00999975
0.00999966
0.00999921
0.00999927
0.00999961
0.0099996
0.00999884
0.00999737
0.00999569
0.00999423
0.00999346
0.00999339
0.00999383
0.00999474
0.00999603
0.00999742
0.00999831
0.00999851
0.00999857
0.00999888
0.00999955
0.0100005
0.00999982
0.00999971
0.00999984
0.00999981
0.00999932
0.0099981
0.00999623
0.00999402
0.00999207
0.00999116
0.00999186
0.0099942
0.00999692
0.00999865
0.00999891
0.00999829
0.00999794
0.00999838
0.00999941
0.0100014
0.0100006
0.0100004
0.0100003
0.0100002
0.01
0.00999924
0.00999749
0.00999478
0.00999112
0.00998704
0.00998685
0.00999141
0.00999724
0.0100002
0.00999977
0.00999815
0.00999734
0.00999793
0.00999931
0.0100022
0.0100013
0.010001
0.0100009
0.0100008
0.0100011
0.0100007
0.00999835
0.00999352
0.00998687
0.00998317
0.00998591
0.00999438
0.0100002
0.0100008
0.00999868
0.00999674
0.00999651
0.00999772
0.0099993
0.0100026
0.0100017
0.0100014
0.0100013
0.0100016
0.0100033
0.0100055
0.0100071
0.0100033
0.00897569
0.00894861
0.00997167
0.0100048
0.010014
0.0100066
0.00999835
0.00999506
0.00999588
0.00999794
0.00999954
0.0100025
0.0100017
0.0100014
0.0100012
0.0100016
0.0100033
0.0100054
0.010007
0.0100032
0.00897568
0.00894865
0.00997165
0.0100048
0.0100139
0.0100066
0.00999832
0.00999507
0.00999589
0.00999793
0.00999953
0.010002
0.0100012
0.0100009
0.0100007
0.0100008
0.010001
0.0100006
0.00999817
0.00999332
0.00998669
0.0099833
0.00998586
0.00999432
0.0100001
0.0100008
0.00999859
0.00999669
0.00999651
0.00999773
0.00999932
0.0100011
0.0100003
0.0100001
0.0100001
0.01
0.00999983
0.00999899
0.00999721
0.00999446
0.00999084
0.00998665
0.00998666
0.00999118
0.00999696
0.01
0.00999974
0.00999808
0.00999733
0.00999795
0.00999932
0.0100001
0.00999942
0.00999938
0.00999957
0.00999954
0.00999904
0.00999775
0.00999582
0.00999359
0.00999169
0.00999078
0.00999151
0.00999383
0.00999658
0.00999835
0.00999866
0.00999818
0.0099979
0.00999837
0.0099994
0.00999907
0.0099987
0.00999883
0.00999921
0.00999921
0.00999843
0.00999694
0.0099952
0.00999374
0.00999301
0.009993
0.00999338
0.00999433
0.00999565
0.00999703
0.00999803
0.00999841
0.0099985
0.00999884
0.00999955
0.00999833
0.0099983
0.00999859
0.00999901
0.00999894
0.00999804
0.00999657
0.00999504
0.00999392
0.00999348
0.00999371
0.00999427
0.00999493
0.00999581
0.009997
0.00999823
0.0099989
0.00999906
0.00999924
0.00999969
0.00999789
0.00999827
0.00999867
0.00999896
0.00999873
0.00999779
0.00999648
0.00999518
0.00999428
0.00999407
0.00999442
0.0099949
0.00999521
0.00999573
0.0099968
0.00999816
0.00999915
0.00999945
0.00999954
0.00999979
0.00999775
0.00999855
0.00999901
0.00999902
0.00999853
0.0099977
0.00999668
0.00999557
0.00999469
0.00999439
0.00999469
0.00999499
0.00999505
0.00999541
0.00999652
0.00999816
0.00999945
0.00999983
0.00999975
0.00999986
0.00999781
0.00999897
0.00999936
0.00999915
0.00999851
0.00999772
0.00999694
0.00999598
0.00999506
0.00999466
0.00999481
0.00999495
0.00999489
0.00999516
0.00999633
0.00999823
0.00999973
0.0100001
0.00999996
0.00999992
0.00999784
0.00999913
0.00999955
0.00999915
0.00999832
0.00999763
0.00999708
0.00999616
0.00999512
0.00999468
0.00999483
0.00999485
0.00999461
0.00999481
0.00999603
0.00999804
0.00999973
0.0100002
0.01
0.00999993
)
;

boundaryField
{
    sides
    {
        type            zeroGradient;
    }
    inlet
    {
        type            zeroGradient;
    }
    outlet
    {
        type            fixedValue;
        value           uniform 0.01;
    }
    frontAndBack
    {
        type            empty;
    }
}


// ************************************************************************* //
