/*--------------------------------*- C++ -*----------------------------------*\
  =========                 |
  \\      /  F ield         | OpenFOAM: The Open Source CFD Toolbox
   \\    /   O peration     | Website:  https://openfoam.org
    \\  /    A nd           | Version:  9
     \\/     M anipulation  |
\*---------------------------------------------------------------------------*/
FoamFile
{
    format      ascii;
    class       volScalarField;
    location    "11";
    object      hTotal;
}
// * * * * * * * * * * * * * * * * * * * * * * * * * * * * * * * * * * * * * //

dimensions      [0 1 0 0 0 0 0];

internalField   nonuniform List<scalar> 
400
(
0.0100008
0.0100014
0.0100011
0.0100001
0.00999884
0.00999803
0.00999737
0.00999667
0.00999623
0.00999625
0.00999642
0.00999625
0.00999596
0.00999626
0.00999751
0.0099992
0.0100002
0.0100002
0.00999996
0.00999994
0.0100004
0.0100009
0.0100008
0.00999994
0.00999884
0.00999782
0.00999707
0.00999635
0.00999595
0.00999613
0.0099964
0.0099962
0.00999593
0.00999616
0.00999737
0.00999897
0.00999994
0.00999996
0.0099998
0.00999989
0.00999984
0.0100003
0.0100004
0.00999995
0.00999897
0.00999783
0.00999684
0.0099961
0.00999579
0.00999603
0.00999633
0.00999628
0.00999607
0.0099963
0.00999735
0.0099988
0.00999969
0.00999995
0.00999988
0.00999992
0.00999936
0.0099997
0.01
0.00999992
0.00999914
0.00999793
0.00999673
0.00999587
0.00999553
0.00999567
0.00999601
0.00999611
0.00999603
0.00999633
0.00999724
0.00999838
0.00999914
0.00999929
0.00999954
0.00999985
0.00999918
0.0099993
0.00999974
0.00999995
0.00999941
0.0099982
0.00999686
0.00999582
0.00999524
0.00999515
0.00999527
0.00999549
0.00999562
0.00999623
0.00999728
0.00999826
0.00999879
0.00999913
0.00999941
0.0099998
0.00999937
0.00999924
0.00999965
0.01
0.00999971
0.00999867
0.00999731
0.00999596
0.00999491
0.00999441
0.0099943
0.0099943
0.00999478
0.00999577
0.00999695
0.00999772
0.00999807
0.00999833
0.00999892
0.00999961
0.00999988
0.00999954
0.00999978
0.0100001
0.0100001
0.00999944
0.00999824
0.00999655
0.00999462
0.00999282
0.00999189
0.00999216
0.00999408
0.00999649
0.009998
0.00999818
0.00999772
0.00999766
0.00999834
0.00999942
0.0100005
0.01
0.0100001
0.0100003
0.0100005
0.0100004
0.0099996
0.00999785
0.00999523
0.00999158
0.00998741
0.00998705
0.00999124
0.0099967
0.00999937
0.00999895
0.00999751
0.00999695
0.00999771
0.00999922
0.0100011
0.0100005
0.0100004
0.0100007
0.0100012
0.0100018
0.0100013
0.00999877
0.00999385
0.00998711
0.00998329
0.00998592
0.00999418
0.00999965
0.0100001
0.00999785
0.009996
0.00999597
0.00999732
0.00999913
0.0100014
0.0100007
0.0100006
0.010001
0.0100021
0.0100041
0.0100061
0.0100075
0.0100035
0.00997582
0.00994863
0.00997168
0.0100046
0.0100134
0.0100058
0.00999748
0.00999425
0.00999525
0.00999745
0.00999933
0.0100014
0.0100007
0.0100006
0.010001
0.010002
0.0100041
0.0100061
0.0100075
0.0100034
0.0099758
0.00994869
0.00997165
0.0100045
0.0100134
0.0100058
0.00999745
0.00999427
0.00999525
0.00999744
0.00999932
0.010001
0.0100003
0.0100003
0.0100006
0.0100012
0.0100017
0.0100011
0.00999858
0.00999366
0.00998698
0.00998304
0.00998586
0.00999408
0.00999957
0.01
0.00999775
0.00999591
0.00999594
0.00999733
0.00999915
0.0100002
0.00999975
0.00999987
0.0100002
0.0100004
0.0100002
0.00999936
0.00999756
0.00999492
0.00999135
0.00998756
0.00998687
0.009991
0.00999643
0.00999924
0.0099989
0.00999737
0.00999687
0.00999769
0.00999923
0.00999947
0.00999917
0.00999949
0.00999985
0.00999979
0.00999916
0.00999791
0.00999616
0.00999421
0.00999248
0.00999142
0.00999179
0.00999372
0.00999614
0.00999771
0.00999798
0.00999767
0.00999763
0.0099983
0.00999939
0.00999884
0.00999878
0.00999923
0.0099996
0.00999929
0.00999825
0.00999687
0.00999547
0.00999445
0.00999399
0.00999383
0.00999386
0.00999438
0.0099954
0.00999659
0.0099975
0.00999798
0.00999832
0.00999887
0.0099996
0.00999851
0.0099987
0.00999917
0.00999939
0.00999883
0.00999762
0.00999628
0.0099952
0.00999459
0.00999453
0.00999481
0.00999494
0.00999515
0.00999578
0.00999682
0.00999787
0.0099985
0.00999886
0.0099993
0.00999976
0.00999851
0.0099989
0.00999928
0.00999922
0.00999842
0.00999719
0.00999602
0.00999519
0.00999483
0.00999505
0.00999538
0.0099956
0.00999556
0.00999591
0.00999689
0.00999807
0.00999885
0.00999919
0.00999949
0.00999982
0.00999882
0.00999939
0.00999954
0.00999905
0.00999805
0.00999697
0.00999603
0.00999534
0.00999502
0.00999525
0.00999562
0.00999565
0.00999547
0.00999577
0.00999689
0.00999832
0.00999923
0.00999946
0.00999958
0.00999983
0.00999924
0.00999981
0.00999973
0.00999896
0.00999784
0.0099969
0.00999616
0.00999551
0.0099952
0.00999532
0.00999558
0.00999551
0.00999535
0.00999571
0.00999696
0.00999859
0.00999956
0.00999969
0.00999961
0.00999983
0.00999944
0.01
0.00999983
0.00999881
0.0099976
0.00999676
0.00999619
0.00999553
0.00999515
0.00999529
0.00999551
0.00999535
0.00999508
0.00999541
0.00999676
0.00999854
0.00999964
0.00999975
0.00999962
0.00999979
)
;

boundaryField
{
    sides
    {
        type            calculated;
        value           nonuniform List<scalar> 
40
(
0.00999944
0.01
0.00999983
0.00999881
0.0099976
0.00999676
0.00999619
0.00999553
0.00999515
0.00999529
0.00999551
0.00999535
0.00999508
0.00999541
0.00999676
0.00999854
0.00999964
0.00999975
0.00999962
0.00999979
0.0100008
0.0100014
0.0100011
0.0100001
0.00999884
0.00999803
0.00999737
0.00999667
0.00999623
0.00999625
0.00999642
0.00999625
0.00999596
0.00999626
0.00999751
0.0099992
0.0100002
0.0100002
0.00999996
0.00999994
)
;
    }
    inlet
    {
        type            calculated;
        value           nonuniform List<scalar> 
20
(
0.0100008
0.0100004
0.00999984
0.00999936
0.00999918
0.00999937
0.00999988
0.0100005
0.0100011
0.0100014
0.0100014
0.010001
0.0100002
0.00999947
0.00999884
0.00999851
0.00999851
0.00999882
0.00999924
0.00999944
)
;
    }
    outlet
    {
        type            calculated;
        value           uniform 0.01;
    }
    frontAndBack
    {
        type            empty;
    }
}


// ************************************************************************* //
