/*--------------------------------*- C++ -*----------------------------------*\
  =========                 |
  \\      /  F ield         | OpenFOAM: The Open Source CFD Toolbox
   \\    /   O peration     | Website:  https://openfoam.org
    \\  /    A nd           | Version:  9
     \\/     M anipulation  |
\*---------------------------------------------------------------------------*/
FoamFile
{
    format      ascii;
    class       volVectorField;
    location    "11";
    object      hU_0;
}
// * * * * * * * * * * * * * * * * * * * * * * * * * * * * * * * * * * * * * //

dimensions      [0 2 -1 0 0 0 0];

internalField   nonuniform List<vector> 
400
(
(0.000999861 -1.29269e-07 0)
(0.000999265 -2.42953e-07 0)
(0.000999277 -2.07192e-07 0)
(0.000999507 -1.05484e-07 0)
(0.000999817 -3.34508e-08 0)
(0.00100018 -9.52838e-08 0)
(0.0010007 -2.15823e-07 0)
(0.00100129 -2.5167e-07 0)
(0.0010016 -1.73751e-07 0)
(0.00100143 -8.11714e-08 0)
(0.00100101 -7.1928e-08 0)
(0.00100068 -1.28966e-07 0)
(0.0010005 -1.77997e-07 0)
(0.00100037 -1.91616e-07 0)
(0.00100012 -1.74122e-07 0)
(0.000999829 -1.69914e-07 0)
(0.000999553 -1.6328e-07 0)
(0.000999588 -2.04148e-07 0)
(0.000999688 -2.23173e-07 0)
(0.00100002 -3.11973e-07 0)
(0.00099989 -3.10809e-07 0)
(0.000999388 -5.52466e-07 0)
(0.000999377 -4.04216e-07 0)
(0.000999581 -7.50547e-08 0)
(0.000999869 1.62704e-07 0)
(0.00100021 5.99348e-08 0)
(0.00100075 -2.17597e-07 0)
(0.00100136 -2.77548e-07 0)
(0.00100169 -4.19281e-08 0)
(0.00100153 2.25365e-07 0)
(0.00100112 2.83366e-07 0)
(0.00100077 1.72382e-07 0)
(0.00100057 8.21938e-08 0)
(0.0010004 1.13053e-07 0)
(0.00100015 2.22774e-07 0)
(0.000999864 2.97812e-07 0)
(0.000999647 2.91058e-07 0)
(0.000999641 1.90872e-07 0)
(0.000999764 1.09125e-07 0)
(0.000999972 -5.22895e-08 0)
(0.000999941 -4.80702e-07 0)
(0.000999581 -8.63648e-07 0)
(0.000999509 -6.96651e-07 0)
(0.000999652 -2.50558e-07 0)
(0.000999933 8.58705e-08 0)
(0.00100029 -1.01228e-07 0)
(0.00100081 -5.68978e-07 0)
(0.00100139 -7.10104e-07 0)
(0.00100171 -3.82662e-07 0)
(0.00100161 8.38097e-09 0)
(0.00100127 1.10997e-07 0)
(0.00100094 -2.84504e-08 0)
(0.00100069 -1.36725e-07 0)
(0.00100045 -6.9176e-08 0)
(0.00100016 6.10186e-08 0)
(0.000999843 1.22925e-07 0)
(0.000999599 9.88036e-08 0)
(0.000999652 -3.28793e-08 0)
(0.000999726 -1.5099e-07 0)
(0.000999965 -3.01823e-07 0)
(0.00100001 -6.16504e-07 0)
(0.000999827 -1.09566e-06 0)
(0.000999683 -9.48096e-07 0)
(0.000999779 -4.25443e-07 0)
(0.00100004 3.66635e-09 0)
(0.00100039 -2.39579e-07 0)
(0.00100091 -8.53094e-07 0)
(0.00100149 -1.06749e-06 0)
(0.00100185 -6.60837e-07 0)
(0.00100185 -1.05026e-07 0)
(0.0010016 1.56134e-07 0)
(0.00100127 1.80788e-07 0)
(0.00100093 2.22849e-07 0)
(0.00100053 3.86882e-07 0)
(0.00100013 5.19341e-07 0)
(0.000999855 4.68453e-07 0)
(0.000999763 2.74955e-07 0)
(0.000999816 3.30233e-08 0)
(0.000999948 -1.4104e-07 0)
(0.00100004 -2.96777e-07 0)
(0.00100008 -6.99199e-07 0)
(0.00100007 -1.23802e-06 0)
(0.000999866 -1.17202e-06 0)
(0.000999926 -6.6619e-07 0)
(0.00100018 -2.34592e-07 0)
(0.00100051 -5.45256e-07 0)
(0.00100101 -1.3044e-06 0)
(0.00100156 -1.62174e-06 0)
(0.00100201 -1.19607e-06 0)
(0.00100222 -5.40298e-07 0)
(0.0010022 -1.24902e-07 0)
(0.00100191 1.10423e-07 0)
(0.00100135 3.83343e-07 0)
(0.00100064 6.70388e-07 0)
(0.000999978 7.97184e-07 0)
(0.000999568 6.80524e-07 0)
(0.000999534 4.2026e-07 0)
(0.000999799 1.56294e-07 0)
(0.000999996 -1.26971e-08 0)
(0.00100012 -1.46532e-07 0)
(0.00100014 -7.25213e-07 0)
(0.00100028 -1.26541e-06 0)
(0.00100003 -1.30734e-06 0)
(0.00100005 -8.97965e-07 0)
(0.00100028 -5.37316e-07 0)
(0.00100058 -9.3595e-07 0)
(0.00100106 -1.87747e-06 0)
(0.00100167 -2.40141e-06 0)
(0.00100227 -2.0221e-06 0)
(0.00100274 -1.06655e-06 0)
(0.00100298 1.47528e-08 0)
(0.00100276 9.1006e-07 0)
(0.00100196 1.45124e-06 0)
(0.00100078 1.41822e-06 0)
(0.000999838 8.81242e-07 0)
(0.000999451 2.64688e-07 0)
(0.000999682 -1.10034e-07 0)
(0.00100007 -2.48709e-07 0)
(0.00100037 -2.80547e-07 0)
(0.0010003 -3.17071e-07 0)
(0.00100021 -6.80931e-07 0)
(0.00100043 -1.17613e-06 0)
(0.00100013 -1.31203e-06 0)
(0.00100012 -1.07065e-06 0)
(0.00100031 -8.46014e-07 0)
(0.00100054 -1.40238e-06 0)
(0.00100092 -2.48569e-06 0)
(0.00100163 -3.41121e-06 0)
(0.00100275 -3.42976e-06 0)
(0.00100403 -2.89752e-06 0)
(0.00100479 -8.47472e-07 0)
(0.00100422 1.96101e-06 0)
(0.00100231 3.94461e-06 0)
(0.00099997 3.92479e-06 0)
(0.0009986 2.51883e-06 0)
(0.000998574 1.06426e-06 0)
(0.00099951 2.8396e-07 0)
(0.00100029 1.49946e-07 0)
(0.0010007 2.41508e-07 0)
(0.00100047 1.85041e-07 0)
(0.00100025 -5.67384e-07 0)
(0.00100052 -9.52728e-07 0)
(0.00100015 -1.15958e-06 0)
(0.0010001 -1.07933e-06 0)
(0.00100017 -1.15033e-06 0)
(0.00100029 -1.88346e-06 0)
(0.00100045 -3.36845e-06 0)
(0.00100114 -4.37956e-06 0)
(0.00100239 -4.57181e-06 0)
(0.00100517 -2.65574e-06 0)
(0.00100816 4.40428e-07 0)
(0.00100802 3.67586e-06 0)
(0.00100422 4.02306e-06 0)
(0.000999415 2.23189e-06 0)
(0.000997029 4.53755e-07 0)
(0.000997446 -3.799e-07 0)
(0.000999379 -3.51492e-07 0)
(0.00100077 -1.24849e-07 0)
(0.00100126 -4.04073e-08 0)
(0.00100075 -1.55492e-07 0)
(0.00100028 -3.59154e-07 0)
(0.00100054 -6.25713e-07 0)
(0.00100009 -7.49387e-07 0)
(0.00099989 -7.93471e-07 0)
(0.000999745 -1.04756e-06 0)
(0.000999516 -2.15454e-06 0)
(0.000999655 -4.60884e-06 0)
(0.00100093 -8.20551e-06 0)
(0.00100411 -1.34314e-05 0)
(0.00100855 -1.49822e-05 0)
(0.00101078 3.64319e-06 0)
(0.00100784 1.8256e-05 0)
(0.00100105 1.51965e-05 0)
(0.000996286 5.37539e-06 0)
(0.000995652 -3.57515e-07 0)
(0.000997481 -1.2874e-06 0)
(0.000999851 -2.81406e-07 0)
(0.00100093 5.52269e-07 0)
(0.00100102 5.97893e-07 0)
(0.00100051 6.23017e-08 0)
(0.00100011 -1.30612e-07 0)
(0.00100082 -1.99696e-07 0)
(0.000999581 -2.39546e-07 0)
(0.00100034 -2.02589e-07 0)
(0.000998065 -4.13013e-07 0)
(0.000999214 -9.40061e-07 0)
(0.000993319 -2.77703e-06 0)
(0.000997034 -5.58583e-06 0)
(0.000990804 -1.16076e-05 0)
(0.000914808 -1.27402e-05 0)
(0.000950447 2.48669e-07 0)
(0.00100909 1.44539e-05 0)
(0.000989605 1.28299e-05 0)
(0.000982562 5.02084e-06 0)
(0.00098842 2.50457e-07 0)
(0.000995526 -7.84271e-07 0)
(0.000998755 -2.41569e-07 0)
(0.000999078 3.59043e-07 0)
(0.000998792 3.49388e-07 0)
(0.000998702 -2.41551e-07 0)
(0.00100011 1.14167e-07 0)
(0.00100082 2.21373e-07 0)
(0.000999576 3.17197e-07 0)
(0.00100034 3.4085e-07 0)
(0.000998068 6.00361e-07 0)
(0.00099921 1.11401e-06 0)
(0.000993308 2.88074e-06 0)
(0.000997016 5.57449e-06 0)
(0.00099078 1.14749e-05 0)
(0.000914777 1.25451e-05 0)
(0.000950397 -5.3607e-07 0)
(0.00100907 -1.48179e-05 0)
(0.000989615 -1.32089e-05 0)
(0.000982554 -5.37917e-06 0)
(0.000988395 -5.6862e-07 0)
(0.000995501 4.53991e-07 0)
(0.000998714 -1.18229e-07 0)
(0.000999022 -9.27078e-07 0)
(0.000998757 -1.02394e-06 0)
(0.000998652 -8.03763e-07 0)
(0.00100029 3.50765e-07 0)
(0.00100053 6.48907e-07 0)
(0.00100007 8.28038e-07 0)
(0.000999875 9.26127e-07 0)
(0.000999729 1.21971e-06 0)
(0.000999512 2.32078e-06 0)
(0.00099966 4.71279e-06 0)
(0.00100096 8.19656e-06 0)
(0.00100413 1.3297e-05 0)
(0.00100857 1.47397e-05 0)
(0.00101081 -3.92944e-06 0)
(0.00100778 -1.86129e-05 0)
(0.00100094 -1.55585e-05 0)
(0.000996173 -5.71088e-06 0)
(0.000995563 9.68918e-08 0)
(0.000997386 9.79246e-07 0)
(0.00099974 -1.02187e-07 0)
(0.0010008 -1.09632e-06 0)
(0.00100086 -1.22967e-06 0)
(0.00100034 -1.07837e-06 0)
(0.00100026 5.63028e-07 0)
(0.0010005 9.76242e-07 0)
(0.00100012 1.23189e-06 0)
(0.00100007 1.2054e-06 0)
(0.00100015 1.32179e-06 0)
(0.00100028 2.05701e-06 0)
(0.00100044 3.47069e-06 0)
(0.00100111 4.3654e-06 0)
(0.00100236 4.42256e-06 0)
(0.00100513 2.40777e-06 0)
(0.00100804 -7.90336e-07 0)
(0.00100788 -4.0609e-06 0)
(0.00100412 -4.36461e-06 0)
(0.000999316 -2.53031e-06 0)
(0.000996882 -7.10412e-07 0)
(0.000997215 8.76563e-08 0)
(0.000999157 3.42405e-08 0)
(0.00100055 -3.85745e-07 0)
(0.001001 -5.44577e-07 0)
(0.00100045 -7.68324e-07 0)
(0.00100021 6.85009e-07 0)
(0.00100041 1.20047e-06 0)
(0.00100009 1.37764e-06 0)
(0.00100009 1.19005e-06 0)
(0.00100029 1.00746e-06 0)
(0.00100052 1.56044e-06 0)
(0.0010009 2.58148e-06 0)
(0.00100163 3.4058e-06 0)
(0.00100275 3.3259e-06 0)
(0.00100399 2.68909e-06 0)
(0.00100472 5.5082e-07 0)
(0.00100412 -2.25914e-06 0)
(0.00100215 -4.2342e-06 0)
(0.000999752 -4.22103e-06 0)
(0.000998361 -2.80984e-06 0)
(0.00099832 -1.36352e-06 0)
(0.000999254 -5.97197e-07 0)
(0.000999975 -6.58718e-07 0)
(0.00100041 -8.37019e-07 0)
(0.00100007 -1.13835e-06 0)
(0.00100015 7.3279e-07 0)
(0.00100025 1.28332e-06 0)
(0.000999974 1.3577e-06 0)
(0.001 1.00323e-06 0)
(0.00100025 6.84637e-07 0)
(0.00100057 1.08126e-06 0)
(0.00100105 1.97052e-06 0)
(0.00100165 2.39887e-06 0)
(0.00100222 1.91515e-06 0)
(0.00100264 8.66183e-07 0)
(0.00100285 -2.38688e-07 0)
(0.00100259 -1.1927e-06 0)
(0.00100175 -1.73433e-06 0)
(0.00100053 -1.67875e-06 0)
(0.00099955 -1.09915e-06 0)
(0.000999112 -4.90022e-07 0)
(0.000999325 -1.26467e-07 0)
(0.00099966 -1.39314e-07 0)
(0.000999934 -1.77044e-07 0)
(0.000999763 -4.85856e-07 0)
(0.00100008 7.04624e-07 0)
(0.00100004 1.24983e-06 0)
(0.000999805 1.21716e-06 0)
(0.000999874 7.63883e-07 0)
(0.00100015 3.68263e-07 0)
(0.0010005 6.80102e-07 0)
(0.00100099 1.39305e-06 0)
(0.00100155 1.63038e-06 0)
(0.00100199 1.10812e-06 0)
(0.00100218 3.73676e-07 0)
(0.00100209 -8.00841e-08 0)
(0.00100172 -3.4451e-07 0)
(0.00100111 -6.28206e-07 0)
(0.00100034 -9.09917e-07 0)
(0.000999659 -1.01263e-06 0)
(0.000999218 -9.49749e-07 0)
(0.000999176 -7.40335e-07 0)
(0.000999323 -6.54344e-07 0)
(0.000999518 -5.55663e-07 0)
(0.000999474 -7.64756e-07 0)
(0.00100001 6.18379e-07 0)
(0.000999796 1.11014e-06 0)
(0.000999618 9.97109e-07 0)
(0.00099972 5.2057e-07 0)
(0.00100001 1.36971e-07 0)
(0.00100036 3.80138e-07 0)
(0.00100088 9.59931e-07 0)
(0.00100145 1.12221e-06 0)
(0.00100178 6.52439e-07 0)
(0.00100174 4.21727e-08 0)
(0.00100144 -2.68724e-07 0)
(0.00100105 -2.94072e-07 0)
(0.00100065 -3.22658e-07 0)
(0.0010002 -4.8775e-07 0)
(0.000999739 -6.03319e-07 0)
(0.000999359 -5.91901e-07 0)
(0.000999228 -4.07e-07 0)
(0.000999227 -2.88733e-07 0)
(0.000999328 -1.42008e-07 0)
(0.000999246 -2.84631e-07 0)
(0.000999951 4.81977e-07 0)
(0.000999557 8.66395e-07 0)
(0.000999443 7.16754e-07 0)
(0.000999599 2.93988e-07 0)
(0.000999897 -3.14935e-08 0)
(0.00100026 1.50399e-07 0)
(0.0010008 5.83288e-07 0)
(0.00100139 6.5696e-07 0)
(0.0010017 2.54357e-07 0)
(0.00100155 -2.17076e-07 0)
(0.00100115 -3.71138e-07 0)
(0.00100075 -2.67299e-07 0)
(0.00100041 -1.63521e-07 0)
(0.00100009 -2.35587e-07 0)
(0.000999763 -3.5698e-07 0)
(0.000999395 -4.49593e-07 0)
(0.00099916 -4.38376e-07 0)
(0.00099905 -4.52157e-07 0)
(0.000999125 -3.88164e-07 0)
(0.000999079 -5.0343e-07 0)
(0.000999901 3.02981e-07 0)
(0.00099936 5.59977e-07 0)
(0.000999298 4.55524e-07 0)
(0.000999496 1.84343e-07 0)
(0.000999821 -8.01015e-09 0)
(0.00100019 1.22205e-07 0)
(0.0010007 4.03543e-07 0)
(0.00100129 4.53534e-07 0)
(0.00100157 2.09009e-07 0)
(0.00100137 -7.20555e-08 0)
(0.00100091 -1.37018e-07 0)
(0.0010005 -3.02715e-08 0)
(0.00100025 7.85789e-08 0)
(0.001 6.94786e-08 0)
(0.000999693 -3.41297e-09 0)
(0.000999293 -8.46482e-08 0)
(0.000999019 -8.01925e-08 0)
(0.000998884 -7.84871e-08 0)
(0.000998997 -8.71515e-10 0)
(0.00099898 -8.44193e-08 0)
(0.000999877 8.37555e-08 0)
(0.000999255 1.46692e-07 0)
(0.000999241 8.2156e-08 0)
(0.00099948 -3.53247e-08 0)
(0.000999804 -1.14188e-07 0)
(0.00100016 -9.61433e-08 0)
(0.00100068 -2.5156e-08 0)
(0.00100129 -2.40152e-08 0)
(0.00100159 -1.13119e-07 0)
(0.00100137 -2.01073e-07 0)
(0.00100088 -2.27993e-07 0)
(0.00100046 -1.95541e-07 0)
(0.00100021 -1.63701e-07 0)
(0.000999972 -1.88448e-07 0)
(0.000999691 -2.28496e-07 0)
(0.000999292 -2.67551e-07 0)
(0.000999029 -2.59266e-07 0)
(0.000998847 -2.74367e-07 0)
(0.000998973 -2.46607e-07 0)
(0.000998852 -3.40005e-07 0)
)
;

boundaryField
{
    sides
    {
        type            slip;
    }
    inlet
    {
        type            fixedValue;
        value           uniform (0.001 0 0);
    }
    outlet
    {
        type            zeroGradient;
    }
    frontAndBack
    {
        type            empty;
    }
}


// ************************************************************************* //
