/*--------------------------------*- C++ -*----------------------------------*\
  =========                 |
  \\      /  F ield         | OpenFOAM: The Open Source CFD Toolbox
   \\    /   O peration     | Website:  https://openfoam.org
    \\  /    A nd           | Version:  9
     \\/     M anipulation  |
\*---------------------------------------------------------------------------*/
FoamFile
{
    format      ascii;
    class       surfaceScalarField;
    location    "11";
    object      phi;
}
// * * * * * * * * * * * * * * * * * * * * * * * * * * * * * * * * * * * * * //

dimensions      [0 4 -1 0 0 0 0];

internalField   nonuniform List<scalar> 
760
(
4.99694e-06
-5.97558e-10
4.99642e-06
-1.44791e-09
4.99706e-06
-1.1965e-09
4.9984e-06
-4.51453e-10
4.99986e-06
3.35177e-10
5.00203e-06
1.46967e-10
5.00513e-06
-5.70334e-10
5.00789e-06
-9.34079e-10
5.00849e-06
-4.08376e-10
5.0068e-06
4.25667e-10
5.00465e-06
6.48224e-10
5.00336e-06
2.32711e-10
5.00233e-06
-2.13276e-10
5.00078e-06
-2.90176e-10
4.9986e-06
9.01983e-11
4.9971e-06
4.38815e-10
4.99711e-06
5.37267e-10
4.99826e-06
1.76341e-10
4.99931e-06
-9.66711e-11
-7.82864e-10
4.99748e-06
-1.22708e-09
4.99701e-06
-2.91623e-09
4.99752e-06
-2.58053e-09
4.99863e-06
-1.07349e-09
5.00015e-06
3.02371e-10
5.00231e-06
6.61103e-11
5.00556e-06
-1.51006e-09
5.0084e-06
-2.23496e-09
5.00895e-06
-1.20583e-09
5.00737e-06
3.75229e-10
5.00527e-06
9.44271e-10
5.00371e-06
3.31869e-10
5.00249e-06
-2.9924e-10
5.00078e-06
-1.95026e-10
4.99875e-06
3.7971e-10
4.99751e-06
9.12223e-10
4.9977e-06
1.07973e-09
4.99856e-06
5.9325e-10
4.99942e-06
-5.06867e-11
-9.46166e-10
4.99829e-06
-1.88761e-09
4.9978e-06
-4.23446e-09
4.99797e-06
-3.95348e-09
4.99882e-06
-1.95717e-09
5.00056e-06
-7.05572e-11
5.00295e-06
-5.24183e-10
5.00605e-06
-2.89861e-09
5.0086e-06
-4.05799e-09
5.00921e-06
-2.59585e-09
5.00789e-06
-2.70845e-10
5.00598e-06
8.44549e-10
5.00432e-06
5.75134e-10
5.00276e-06
1.46971e-10
5.00084e-06
3.9938e-10
4.99869e-06
1.35058e-09
4.99733e-06
1.91171e-09
4.99766e-06
1.5948e-09
4.99873e-06
6.55241e-10
4.99932e-06
-2.21773e-10
-1.27649e-09
4.99926e-06
-2.5749e-09
4.99883e-06
-5.43196e-09
4.99871e-06
-5.33651e-09
4.99937e-06
-3.1623e-09
5.00101e-06
-9.39882e-10
5.0037e-06
-1.6635e-09
5.00684e-06
-4.84842e-09
5.0094e-06
-6.62794e-09
5.01044e-06
-4.9534e-09
5.00949e-06
-1.67228e-09
5.00756e-06
4.63679e-10
5.00549e-06
1.09455e-09
5.00304e-06
1.64693e-09
5.00053e-06
2.29604e-09
4.99879e-06
2.6791e-09
4.99836e-06
2.63015e-09
4.99897e-06
2.05397e-09
4.99956e-06
9.30873e-10
4.99987e-06
-1.89976e-10
-1.11228e-09
5.00021e-06
-3.10634e-09
4.9999e-06
-6.25343e-09
4.99951e-06
-6.53748e-09
4.99996e-06
-4.48936e-09
5.00167e-06
-2.22292e-09
5.00444e-06
-3.37867e-09
5.00752e-06
-7.37425e-09
5.01017e-06
-9.89882e-09
5.0121e-06
-8.66327e-09
5.01253e-06
-4.66378e-09
5.01082e-06
-1.41395e-10
5.0077e-06
2.904e-09
5.00342e-06
5.46793e-09
4.99953e-06
6.25577e-09
4.99743e-06
5.21323e-09
4.99768e-06
3.39693e-09
4.99914e-06
1.71603e-09
4.99999e-06
5.45153e-10
4.99988e-06
-1.08485e-10
-9.22676e-10
5.00089e-06
-3.33282e-09
5.00077e-06
-6.44245e-09
5.00028e-06
-7.11707e-09
5.00044e-06
-5.55472e-09
5.00192e-06
-3.75754e-09
5.00476e-06
-5.71969e-09
5.00812e-06
-1.06711e-08
5.01171e-06
-1.42936e-08
5.0143e-06
-1.31477e-08
5.01614e-06
-8.98127e-09
5.01573e-06
-1.95305e-09
5.01068e-06
6.85001e-09
5.00383e-06
1.22423e-08
4.99866e-06
1.19685e-08
4.99728e-06
7.6877e-09
4.99883e-06
3.25692e-09
5.00058e-06
9.94046e-10
5.00142e-06
3.25356e-10
5.00091e-06
3.90565e-10
-1.79912e-10
5.00132e-06
-3.16604e-09
5.00133e-06
-5.8832e-09
5.00084e-06
-6.87426e-09
5.00068e-06
-6.00927e-09
5.00159e-06
-5.10557e-09
5.0035e-06
-7.77285e-09
5.00708e-06
-1.45692e-08
5.01331e-06
-2.13798e-08
5.02173e-06
-2.32303e-08
5.02732e-06
-1.65858e-08
5.02355e-06
-6.35333e-11
5.01088e-06
1.8734e-08
4.99819e-06
2.52089e-08
4.99305e-06
1.81288e-08
4.99552e-06
6.74342e-09
4.99894e-06
1.56579e-09
5.00121e-06
1.24385e-10
5.00163e-06
5.8147e-10
5.00116e-06
1.02163e-09
2.2595e-10
5.00148e-06
-2.46525e-09
5.00152e-06
-4.51619e-09
5.00092e-06
-5.52474e-09
5.00026e-06
-5.46019e-09
5.00051e-06
-6.05742e-09
5.00124e-06
-9.35098e-09
5.00362e-06
-1.76942e-08
5.00835e-06
-2.69576e-08
5.02207e-06
-3.81165e-08
5.05244e-06
-4.8296e-08
5.04511e-06
6.74527e-09
5.01699e-06
4.6164e-08
4.9914e-06
5.11426e-08
4.9869e-06
2.39298e-08
4.99414e-06
1.32987e-09
5.00031e-06
-2.75779e-09
5.0025e-06
-6.98269e-10
5.00225e-06
1.6965e-09
5.00195e-06
1.86945e-09
-4.28533e-11
5.00149e-06
-1.32043e-09
5.00148e-06
-2.41599e-09
5.00043e-06
-2.87436e-09
4.99845e-06
-3.03711e-09
4.99593e-06
-4.45835e-09
4.99482e-06
-9.69443e-09
4.99916e-06
-2.31986e-08
5.01518e-06
-4.38479e-08
5.05238e-06
-7.60962e-08
5.06232e-06
-5.88918e-08
5.04469e-06
2.3185e-08
4.99077e-06
9.97486e-08
4.98279e-06
5.94531e-08
4.98934e-06
1.86235e-08
4.99414e-06
-1.77138e-09
4.99861e-06
-5.41322e-09
5.00008e-06
-6.06263e-10
5.00028e-06
2.70234e-09
5.00095e-06
2.18372e-09
-4.73926e-10
5.00158e-06
-5.81227e-11
5.00165e-06
3.53529e-12
5.00071e-06
1.32738e-10
4.99816e-06
2.95504e-10
4.99219e-06
4.30129e-10
4.98029e-06
4.24066e-10
4.95546e-06
2.74771e-10
4.91087e-06
5.01312e-12
4.83469e-06
-3.36377e-10
4.77589e-06
-5.56614e-10
4.79946e-06
-8.59747e-10
4.89983e-06
-1.01279e-09
4.96051e-06
-9.5615e-10
4.9812e-06
-8.96612e-10
4.98206e-06
-8.6071e-10
4.97939e-06
-9.03197e-10
4.98141e-06
-9.45872e-10
4.98686e-06
-1.37832e-09
4.99181e-06
-1.55623e-09
-2.5246e-09
5.00158e-06
1.22885e-09
5.00162e-06
2.43996e-09
5.0007e-06
3.14047e-09
4.99815e-06
3.62764e-09
4.99219e-06
5.30885e-09
4.98026e-06
1.05666e-08
4.95541e-06
2.37955e-08
4.91079e-06
4.38781e-08
4.83454e-06
7.5494e-08
4.77556e-06
5.79853e-08
4.79942e-06
-2.51184e-08
4.89977e-06
-1.01781e-07
4.96053e-06
-6.12862e-08
4.98106e-06
-2.02098e-08
4.98198e-06
-3.95162e-11
4.97917e-06
3.72703e-09
4.98116e-06
-1.2927e-09
4.98676e-06
-5.57535e-09
4.9916e-06
-5.19403e-09
-4.45356e-09
5.00145e-06
2.39898e-09
5.00143e-06
4.55893e-09
5.00032e-06
5.81913e-09
4.99834e-06
6.02007e-09
4.99587e-06
6.8557e-09
4.99485e-06
1.01581e-08
4.99927e-06
1.82287e-08
5.01531e-06
2.69887e-08
5.05243e-06
3.75667e-08
5.06256e-06
4.70243e-08
5.04439e-06
-5.67011e-09
4.99025e-06
-4.78487e-08
4.98228e-06
-5.28763e-08
4.98892e-06
-2.56588e-08
4.99384e-06
-3.22302e-09
4.99801e-06
1.4149e-09
4.99922e-06
-8.57613e-10
4.99947e-06
-4.50651e-09
5.00023e-06
-4.96618e-09
-4.82309e-09
5.00141e-06
3.15109e-09
5.00141e-06
5.92453e-09
5.00077e-06
7.09998e-09
5.00013e-06
6.50695e-09
5.00045e-06
5.84748e-09
5.00125e-06
8.56226e-09
5.00355e-06
1.51763e-08
5.00825e-06
2.14492e-08
5.02192e-06
2.26468e-08
5.0521e-06
1.53972e-08
5.04462e-06
-1.57997e-09
5.01652e-06
-2.05797e-08
4.99098e-06
-2.69703e-08
4.98637e-06
-1.98224e-08
4.99296e-06
-8.03657e-09
4.99909e-06
-2.81258e-09
5.00148e-06
-1.64479e-09
5.00096e-06
-2.92147e-09
5.00066e-06
-3.99596e-09
-4.89285e-09
5.00123e-06
3.3528e-09
5.00115e-06
6.469e-09
5.00063e-06
7.31978e-09
5.00051e-06
6.03949e-09
5.00147e-06
4.48042e-09
5.00345e-06
6.48485e-09
5.00713e-06
1.11438e-08
5.01338e-06
1.42805e-08
5.02166e-06
1.26233e-08
5.02698e-06
7.99575e-09
5.02326e-06
4.37799e-10
5.01024e-06
-8.24531e-09
4.99724e-06
-1.3717e-08
4.99186e-06
-1.34301e-08
4.99428e-06
-8.99129e-09
4.9977e-06
-4.67071e-09
4.99969e-06
-2.40481e-09
5.00013e-06
-2.70054e-09
4.99943e-06
-3.07656e-09
-4.21851e-09
5.00075e-06
3.11992e-09
5.00055e-06
6.28873e-09
5.00003e-06
6.74291e-09
5.00022e-06
4.95446e-09
5.00181e-06
2.92351e-09
5.00473e-06
4.10601e-09
5.00814e-06
7.87491e-09
5.0116e-06
9.98585e-09
5.01394e-06
8.34415e-09
5.01556e-06
3.84136e-09
5.01507e-06
-1.00665e-09
5.00974e-06
-4.06443e-09
5.00266e-06
-6.76752e-09
4.99734e-06
-7.61723e-09
4.9957e-06
-6.40907e-09
4.99697e-06
-4.69202e-09
4.99876e-06
-3.11834e-09
4.99928e-06
-2.74817e-09
4.99847e-06
-2.32264e-09
-3.2612e-09
5.00004e-06
2.5846e-09
4.99965e-06
5.49754e-09
4.99925e-06
5.56769e-09
4.99971e-06
3.61973e-09
5.00152e-06
1.55364e-09
5.00434e-06
2.38613e-09
5.00745e-06
5.40193e-09
5.0101e-06
6.78888e-09
5.01204e-06
4.58441e-09
5.01228e-06
9.20447e-10
5.01005e-06
-1.39259e-09
5.0067e-06
-2.30043e-09
5.00217e-06
-2.82947e-09
4.99806e-06
-3.58672e-09
4.99583e-06
-3.85416e-09
4.99585e-06
-3.80113e-09
4.99698e-06
-3.18354e-09
4.99754e-06
-2.77791e-09
4.99716e-06
-2.01697e-09
-2.63665e-09
4.9991e-06
1.92489e-09
4.9986e-06
4.29102e-09
4.99841e-06
4.12319e-09
4.99908e-06
2.34522e-09
5.00088e-06
6.11385e-10
5.0036e-06
1.09487e-09
5.00672e-06
3.33249e-09
5.0092e-06
4.20998e-09
5.00995e-06
2.39474e-09
5.00878e-06
-2.93036e-10
5.00669e-06
-1.66999e-09
5.00431e-06
-1.49697e-09
5.00156e-06
-1.04539e-09
4.99867e-06
-1.37165e-09
4.99651e-06
-2.08528e-09
4.99576e-06
-2.75196e-09
4.99619e-06
-2.68281e-09
4.9966e-06
-2.4097e-09
4.99637e-06
-1.5994e-09
-2.05773e-09
4.99817e-06
1.18703e-09
4.99758e-06
2.82082e-09
4.99774e-06
2.63792e-09
4.99867e-06
1.31246e-09
5.00029e-06
3.14459e-11
5.00284e-06
3.21264e-10
5.00602e-06
1.79397e-09
5.00859e-06
2.31931e-09
5.00914e-06
1.06559e-09
5.00755e-06
-7.82536e-10
5.00525e-06
-1.47579e-09
5.00315e-06
-9.08637e-10
5.00116e-06
-2.5221e-10
4.99891e-06
-3.44582e-10
4.99664e-06
-9.36214e-10
4.99526e-06
-1.66867e-09
4.99519e-06
-1.79977e-09
4.99559e-06
-1.77167e-09
4.99559e-06
-1.20287e-09
-1.55875e-09
4.99732e-06
5.78443e-10
4.99673e-06
1.4946e-09
4.99714e-06
1.29283e-09
4.99827e-06
5.76293e-10
4.99993e-06
-8.70572e-11
5.00219e-06
7.5444e-12
5.00527e-06
7.71168e-10
5.00787e-06
1.03616e-09
5.00831e-06
3.85817e-10
5.00647e-06
-5.44947e-10
5.00401e-06
-8.96012e-10
5.00224e-06
-5.55114e-10
5.00075e-06
-8.70735e-11
4.99871e-06
-6.26303e-11
4.99624e-06
-3.05144e-10
4.99449e-06
-7.12925e-10
4.99428e-06
-8.80988e-10
4.99473e-06
-1.01431e-09
4.99509e-06
-7.21553e-10
-1.03662e-09
4.99691e-06
4.99632e-06
4.99699e-06
4.99831e-06
4.99976e-06
5.00185e-06
5.00508e-06
5.00793e-06
5.00832e-06
5.00633e-06
5.0039e-06
5.00217e-06
5.00068e-06
4.9987e-06
4.99626e-06
4.99441e-06
4.99409e-06
4.99449e-06
4.99486e-06
)
;

boundaryField
{
    sides
    {
        type            calculated;
        value           uniform 0;
    }
    inlet
    {
        type            calculated;
        value           nonuniform List<scalar> 
20
(
-5e-06
-5e-06
-5e-06
-5e-06
-5e-06
-5e-06
-5e-06
-5e-06
-5e-06
-5e-06
-5e-06
-5e-06
-5e-06
-5e-06
-5e-06
-5e-06
-5e-06
-5e-06
-5e-06
-5e-06
)
;
    }
    outlet
    {
        type            calculated;
        value           nonuniform List<scalar> 
20
(
5.00038e-06
4.99982e-06
4.9997e-06
4.99965e-06
4.99963e-06
5.00005e-06
5.00076e-06
5.00246e-06
5.00184e-06
4.99441e-06
4.99409e-06
5.00105e-06
5.00099e-06
4.9988e-06
4.99744e-06
4.99639e-06
4.99573e-06
4.99516e-06
4.99479e-06
4.99415e-06
)
;
    }
    frontAndBack
    {
        type            empty;
        value           nonuniform List<scalar> 0();
    }
}


// ************************************************************************* //
