/*--------------------------------*- C++ -*----------------------------------*\
  =========                 |
  \\      /  F ield         | OpenFOAM: The Open Source CFD Toolbox
   \\    /   O peration     | Website:  https://openfoam.org
    \\  /    A nd           | Version:  9
     \\/     M anipulation  |
\*---------------------------------------------------------------------------*/
FoamFile
{
    format      ascii;
    class       volVectorField;
    location    "11";
    object      U;
}
// * * * * * * * * * * * * * * * * * * * * * * * * * * * * * * * * * * * * * //

dimensions      [0 1 -1 0 0 0 0];

internalField   nonuniform List<vector> 
400
(
(0.0999929 -8.25496e-06 0)
(0.0999205 -2.03461e-05 0)
(0.099922 -1.94783e-05 0)
(0.0999559 -1.13636e-05 0)
(0.0999948 -4.43982e-06 0)
(0.100033 -6.97222e-06 0)
(0.100089 -1.79998e-05 0)
(0.100159 -2.32227e-05 0)
(0.100203 -1.70811e-05 0)
(0.100192 -8.75085e-06 0)
(0.100151 -7.28958e-06 0)
(0.100118 -1.21889e-05 0)
(0.100099 -1.80416e-05 0)
(0.100072 -2.0085e-05 0)
(0.100024 -1.84137e-05 0)
(0.0999742 -1.69193e-05 0)
(0.0999416 -1.53531e-05 0)
(0.0999507 -1.85227e-05 0)
(0.099965 -2.09714e-05 0)
(0.0999993 -3.09718e-05 0)
(0.0999976 -1.85152e-05 0)
(0.099937 -4.51219e-05 0)
(0.0999353 -3.79774e-05 0)
(0.0999641 -1.12004e-05 0)
(0.100002 1.27203e-05 0)
(0.100041 1.06247e-05 0)
(0.100098 -1.30985e-05 0)
(0.100171 -2.30673e-05 0)
(0.100215 -4.6717e-06 0)
(0.100203 2.10121e-05 0)
(0.100163 2.92952e-05 0)
(0.10013 1.85841e-05 0)
(0.100107 6.7421e-06 0)
(0.100076 7.29944e-06 0)
(0.100028 1.87345e-05 0)
(0.0999796 2.9782e-05 0)
(0.0999533 3.28227e-05 0)
(0.0999587 2.28681e-05 0)
(0.0999735 1.36339e-05 0)
(0.0999942 -4.24269e-06 0)
(0.100004 -3.09029e-05 0)
(0.0999607 -7.38488e-05 0)
(0.0999509 -6.8189e-05 0)
(0.0999697 -3.20605e-05 0)
(0.100007 3.24031e-06 0)
(0.100052 -5.49734e-06 0)
(0.100112 -4.65816e-05 0)
(0.100179 -6.63591e-05 0)
(0.100218 -4.09724e-05 0)
(0.100211 -6.06467e-07 0)
(0.100176 1.44898e-05 0)
(0.100143 1.86375e-07 0)
(0.100117 -1.54516e-05 0)
(0.100081 -1.34277e-05 0)
(0.10003 1.18413e-06 0)
(0.0999806 1.35175e-05 0)
(0.09995 1.66304e-05 0)
(0.0999585 5.1595e-06 0)
(0.0999705 -9.76682e-06 0)
(0.0999936 -2.8881e-05 0)
(0.100011 -4.44368e-05 0)
(0.0999894 -9.8669e-05 0)
(0.099971 -9.5226e-05 0)
(0.0999814 -5.1974e-05 0)
(0.100017 -6.58123e-06 0)
(0.100065 -1.94362e-05 0)
(0.100128 -7.57057e-05 0)
(0.100195 -0.000104205 0)
(0.100237 -7.04827e-05 0)
(0.100238 -1.17485e-05 0)
(0.100211 2.17293e-05 0)
(0.100177 2.43249e-05 0)
(0.10014 2.28686e-05 0)
(0.100089 3.28969e-05 0)
(0.100031 4.6901e-05 0)
(0.0999862 4.96479e-05 0)
(0.0999725 3.80484e-05 0)
(0.0999807 1.51918e-05 0)
(0.0999925 -6.23761e-06 0)
(0.0999995 -2.77256e-05 0)
(0.100015 -5.63455e-05 0)
(0.100017 -0.000117946 0)
(0.0999915 -0.000120821 0)
(0.0999938 -7.77711e-05 0)
(0.100028 -3.14027e-05 0)
(0.100078 -5.10203e-05 0)
(0.100142 -0.000123461 0)
(0.100208 -0.000163144 0)
(0.100258 -0.000125831 0)
(0.10028 -5.53446e-05 0)
(0.100275 -4.65783e-06 0)
(0.100244 2.17254e-05 0)
(0.100184 4.28637e-05 0)
(0.100099 6.51365e-05 0)
(0.100015 7.79175e-05 0)
(0.099961 7.37958e-05 0)
(0.0999522 5.54714e-05 0)
(0.0999778 2.86585e-05 0)
(0.0999974 7.47146e-06 0)
(0.100006 -1.20115e-05 0)
(0.100016 -6.38268e-05 0)
(0.100037 -0.000127049 0)
(0.100008 -0.000138118 0)
(0.100005 -0.00010169 0)
(0.100035 -6.12019e-05 0)
(0.100082 -9.17306e-05 0)
(0.100147 -0.00018469 0)
(0.100222 -0.000245482 0)
(0.10029 -0.000212009 0)
(0.100339 -0.000108764 0)
(0.100363 1.08891e-05 0)
(0.10034 0.000106218 0)
(0.100253 0.000152969 0)
(0.100119 0.000142427 0)
(0.100006 8.93294e-05 0)
(0.0999542 3.38589e-05 0)
(0.0999725 1.98531e-06 0)
(0.100008 -1.06589e-05 0)
(0.100035 -1.81464e-05 0)
(0.100023 -2.88036e-05 0)
(0.100014 -6.40798e-05 0)
(0.100048 -0.000123051 0)
(0.100017 -0.000140803 0)
(0.10001 -0.000118609 0)
(0.100033 -9.12784e-05 0)
(0.100069 -0.000139867 0)
(0.100126 -0.000249193 0)
(0.100216 -0.000349818 0)
(0.100346 -0.000354775 0)
(0.100487 -0.000292011 0)
(0.100569 -7.22308e-05 0)
(0.100506 0.000214464 0)
(0.100292 0.000406572 0)
(0.10003 0.00039631 0)
(0.0998724 0.000255155 0)
(0.099862 0.000114565 0)
(0.0999562 4.04379e-05 0)
(0.100034 2.64824e-05 0)
(0.10007 3.30053e-05 0)
(0.100036 2.13217e-05 0)
(0.100009 -5.5956e-05 0)
(0.100051 -0.000102578 0)
(0.100017 -0.000125479 0)
(0.100005 -0.000117869 0)
(0.100013 -0.000120587 0)
(0.100033 -0.000188474 0)
(0.100066 -0.00033907 0)
(0.100158 -0.000448023 0)
(0.100308 -0.000469572 0)
(0.100617 -0.000268144 0)
(0.100953 5.75062e-05 0)
(0.100938 0.000385303 0)
(0.100511 0.000414908 0)
(0.0999715 0.000229022 0)
(0.099701 5.00329e-05 0)
(0.0997396 -2.90718e-05 0)
(0.0999404 -2.39876e-05 0)
(0.100085 -1.9541e-06 0)
(0.100128 3.5185e-06 0)
(0.100062 -1.33617e-05 0)
(0.100005 -3.66593e-05 0)
(0.100049 -6.88295e-05 0)
(0.100007 -8.23083e-05 0)
(0.099981 -8.6597e-05 0)
(0.0999629 -0.000108438 0)
(0.0999415 -0.000216365 0)
(0.0999698 -0.000463812 0)
(0.100129 -0.000828504 0)
(0.100498 -0.0013534 0)
(0.101007 -0.0015031 0)
(0.10126 0.000373586 0)
(0.100928 0.00184129 0)
(0.100163 0.00152975 0)
(0.0996297 0.000540738 0)
(0.0995581 -3.34053e-05 0)
(0.0997541 -0.000120755 0)
(0.0999994 -1.93012e-05 0)
(0.100106 6.00614e-05 0)
(0.100103 6.48143e-05 0)
(0.100035 9.33313e-06 0)
(0.0999844 -1.37463e-05 0)
(0.100075 -2.30254e-05 0)
(0.0999544 -2.7442e-05 0)
(0.100022 -2.37123e-05 0)
(0.0997863 -4.32065e-05 0)
(0.0998868 -9.49928e-05 0)
(0.0992873 -0.000279158 0)
(0.0996535 -0.000560417 0)
(0.0990738 -0.00116277 0)
(0.101944 -0.00142059 0)
(0.106225 3.0397e-05 0)
(0.101202 0.00145505 0)
(0.0989159 0.00128558 0)
(0.0981189 0.000501517 0)
(0.0987731 2.59549e-05 0)
(0.0995623 -7.40525e-05 0)
(0.0999121 -2.18928e-05 0)
(0.0999254 3.43424e-05 0)
(0.0998703 3.75938e-05 0)
(0.0998496 -2.1002e-05 0)
(0.0999853 1.15746e-05 0)
(0.100075 2.34205e-05 0)
(0.0999541 3.30238e-05 0)
(0.100023 3.49354e-05 0)
(0.0997869 5.96166e-05 0)
(0.0998869 0.000111308 0)
(0.099287 0.000290039 0)
(0.0996524 0.00056099 0)
(0.0990717 0.00115109 0)
(0.10194 0.00139968 0)
(0.106219 -6.35982e-05 0)
(0.1012 -0.00149318 0)
(0.0989172 -0.00132535 0)
(0.098119 -0.000539398 0)
(0.0987713 -6.00006e-05 0)
(0.0995596 3.96739e-05 0)
(0.0999079 -1.43436e-05 0)
(0.0999199 -9.06399e-05 0)
(0.0998669 -0.000103719 0)
(0.0998447 -8.25074e-05 0)
(0.100007 3.52753e-05 0)
(0.10005 6.96794e-05 0)
(0.100007 8.80396e-05 0)
(0.09998 9.73695e-05 0)
(0.0999619 0.000123628 0)
(0.0999421 0.000232107 0)
(0.099972 0.000474875 0)
(0.100134 0.000829303 0)
(0.100502 0.00134217 0)
(0.10101 0.00148004 0)
(0.101261 -0.000402577 0)
(0.100925 -0.00187744 0)
(0.100153 -0.0015672 0)
(0.099619 -0.000575986 0)
(0.0995495 4.88439e-06 0)
(0.0997458 8.83569e-05 0)
(0.0999886 -1.8637e-05 0)
(0.100093 -0.000114138 0)
(0.100087 -0.00012684 0)
(0.100018 -0.000109814 0)
(0.100013 5.50255e-05 0)
(0.100053 0.000103542 0)
(0.100016 0.000130467 0)
(0.100004 0.000128153 0)
(0.100013 0.000135981 0)
(0.100035 0.000205379 0)
(0.100069 0.000350227 0)
(0.100159 0.000448352 0)
(0.100308 0.0004563 0)
(0.100615 0.00024437 0)
(0.100945 -9.05295e-05 0)
(0.100927 -0.000423641 0)
(0.100503 -0.000450095 0)
(0.0999641 -0.000260159 0)
(0.0996872 -7.64554e-05 0)
(0.0997173 -1.01118e-06 0)
(0.0999189 -8.67619e-06 0)
(0.100062 -4.89547e-05 0)
(0.100102 -6.09629e-05 0)
(0.100033 -7.78955e-05 0)
(0.100019 6.40038e-05 0)
(0.10005 0.00012403 0)
(0.100016 0.000145355 0)
(0.100009 0.000128769 0)
(0.100034 0.000106288 0)
(0.100071 0.000155566 0)
(0.100128 0.000259331 0)
(0.10022 0.000350395 0)
(0.10035 0.000345057 0)
(0.100488 0.000271923 0)
(0.100567 4.3879e-05 0)
(0.1005 -0.000244713 0)
(0.100281 -0.000436761 0)
(0.100012 -0.000427739 0)
(0.0998508 -0.000285025 0)
(0.0998375 -0.000145118 0)
(0.0999305 -7.29312e-05 0)
(0.100003 -7.73122e-05 0)
(0.100041 -9.11037e-05 0)
(0.0999973 -0.000115438 0)
(0.100022 6.41606e-05 0)
(0.100039 0.000127845 0)
(0.100007 0.000141946 0)
(0.100004 0.000111079 0)
(0.100036 7.55e-05 0)
(0.100085 0.000106668 0)
(0.100151 0.000194764 0)
(0.100226 0.000246408 0)
(0.100291 0.000202627 0)
(0.100334 8.97873e-05 0)
(0.100354 -3.44521e-05 0)
(0.100328 -0.000134633 0)
(0.100236 -0.000183038 0)
(0.100098 -0.000170752 0)
(0.0999804 -0.000112695 0)
(0.0999215 -5.73746e-05 0)
(0.0999365 -2.52147e-05 0)
(0.0999685 -2.64025e-05 0)
(0.099993 -2.57782e-05 0)
(0.0999692 -5.01806e-05 0)
(0.100023 5.68179e-05 0)
(0.10002 0.000119023 0)
(0.0999909 0.000124923 0)
(0.0999937 8.68108e-05 0)
(0.100031 4.45011e-05 0)
(0.100082 6.51958e-05 0)
(0.100146 0.000133615 0)
(0.100213 0.000164932 0)
(0.100263 0.000118243 0)
(0.100282 3.89316e-05 0)
(0.100271 -1.6213e-05 0)
(0.100232 -4.67617e-05 0)
(0.100166 -6.94853e-05 0)
(0.100076 -9.17787e-05 0)
(0.0999883 -0.000102497 0)
(0.099929 -0.000102107 0)
(0.099919 -8.63886e-05 0)
(0.0999328 -7.77789e-05 0)
(0.0999506 -6.33862e-05 0)
(0.0999424 -7.80697e-05 0)
(0.10002 4.50043e-05 0)
(0.0999944 0.000100128 0)
(0.0999719 9.9488e-05 0)
(0.099982 6.10362e-05 0)
(0.100021 2.09627e-05 0)
(0.10007 3.39022e-05 0)
(0.100133 8.69399e-05 0)
(0.100198 0.000109643 0)
(0.100237 6.92505e-05 0)
(0.100234 5.20996e-06 0)
(0.100201 -3.32079e-05 0)
(0.10016 -3.7886e-05 0)
(0.100117 -3.48259e-05 0)
(0.10006 -4.55987e-05 0)
(0.0999951 -5.83477e-05 0)
(0.0999409 -6.3853e-05 0)
(0.0999216 -5.14014e-05 0)
(0.0999221 -3.97697e-05 0)
(0.0999324 -2.04965e-05 0)
(0.0999218 -2.96206e-05 0)
(0.100015 3.09489e-05 0)
(0.0999678 7.39513e-05 0)
(0.0999535 6.97119e-05 0)
(0.099974 3.59571e-05 0)
(0.100013 2.00049e-06 0)
(0.100057 9.85171e-06 0)
(0.100118 4.81653e-05 0)
(0.100186 6.13553e-05 0)
(0.100226 2.73844e-05 0)
(0.100214 -2.02466e-05 0)
(0.100172 -4.06283e-05 0)
(0.100132 -3.0579e-05 0)
(0.100096 -1.62411e-05 0)
(0.10005 -1.94087e-05 0)
(0.0999955 -3.27581e-05 0)
(0.0999411 -4.79628e-05 0)
(0.0999122 -5.1555e-05 0)
(0.0999038 -5.29198e-05 0)
(0.0999124 -4.29894e-05 0)
(0.0999056 -5.1232e-05 0)
(0.10001 1.75535e-05 0)
(0.0999452 4.62321e-05 0)
(0.0999379 4.33071e-05 0)
(0.0999652 2.22678e-05 0)
(0.100006 2.38192e-06 0)
(0.100047 8.45378e-06 0)
(0.100103 3.24711e-05 0)
(0.100171 4.15554e-05 0)
(0.100211 2.20927e-05 0)
(0.100196 -6.28254e-06 0)
(0.10015 -1.54925e-05 0)
(0.100108 -4.81012e-06 0)
(0.10008 8.96094e-06 0)
(0.100042 1.09052e-05 0)
(0.0999877 3.00968e-06 0)
(0.0999277 -9.19748e-06 0)
(0.0998951 -1.27929e-05 0)
(0.099886 -1.34896e-05 0)
(0.0998988 -3.65016e-06 0)
(0.099896 -9.12573e-06 0)
(0.100008 3.86368e-06 0)
(0.0999335 1.10435e-05 0)
(0.0999316 6.96129e-06 0)
(0.0999663 -2.298e-06 0)
(0.100007 -9.96003e-06 0)
(0.100043 -1.0628e-05 0)
(0.100098 -5.59319e-06 0)
(0.10017 -4.13578e-06 0)
(0.100214 -1.10207e-05 0)
(0.100197 -2.02109e-05 0)
(0.100148 -2.40126e-05 0)
(0.100107 -2.05864e-05 0)
(0.10008 -1.54624e-05 0)
(0.100042 -1.65143e-05 0)
(0.0999885 -2.09353e-05 0)
(0.0999268 -2.65138e-05 0)
(0.0998946 -2.76299e-05 0)
(0.0998814 -2.98097e-05 0)
(0.0998971 -2.62874e-05 0)
(0.0998845 -3.43275e-05 0)
)
;

boundaryField
{
    sides
    {
        type            calculated;
        value           nonuniform List<vector> 
40
(
(0.100008 0 0)
(0.0999335 0 0)
(0.0999316 0 0)
(0.0999663 0 0)
(0.100007 0 0)
(0.100043 0 0)
(0.100098 0 0)
(0.10017 0 0)
(0.100214 0 0)
(0.100197 0 0)
(0.100148 0 0)
(0.100107 0 0)
(0.10008 0 0)
(0.100042 0 0)
(0.0999885 0 0)
(0.0999268 0 0)
(0.0998946 0 0)
(0.0998814 0 0)
(0.0998971 0 0)
(0.0998845 0 0)
(0.0999929 0 0)
(0.0999205 0 0)
(0.099922 0 0)
(0.0999559 0 0)
(0.0999948 0 0)
(0.100033 0 0)
(0.100089 0 0)
(0.100159 0 0)
(0.100203 0 0)
(0.100192 0 0)
(0.100151 0 0)
(0.100118 0 0)
(0.100099 0 0)
(0.100072 0 0)
(0.100024 0 0)
(0.0999742 0 0)
(0.0999416 0 0)
(0.0999507 0 0)
(0.099965 0 0)
(0.0999993 0 0)
)
;
    }
    inlet
    {
        type            calculated;
        value           nonuniform List<vector> 
20
(
(0.0999924 0 0)
(0.0999963 0 0)
(0.100002 0 0)
(0.100006 0 0)
(0.100008 0 0)
(0.100006 0 0)
(0.100001 0 0)
(0.0999947 0 0)
(0.0999888 0 0)
(0.0999855 0 0)
(0.0999861 0 0)
(0.0999905 0 0)
(0.0999976 0 0)
(0.100005 0 0)
(0.100012 0 0)
(0.100015 0 0)
(0.100015 0 0)
(0.100012 0 0)
(0.100008 0 0)
(0.100006 0 0)
)
;
    }
    outlet
    {
        type            calculated;
        value           nonuniform List<vector> 
20
(
(0.0999987 -3.09716e-05 0)
(0.0999931 -4.24265e-06 0)
(0.0999928 -2.88808e-05 0)
(0.099998 -2.77252e-05 0)
(0.100004 -1.20113e-05 0)
(0.100019 -2.88025e-05 0)
(0.100031 2.13205e-05 0)
(0.100054 -1.33607e-05 0)
(0.100026 9.33232e-06 0)
(0.0998429 -2.10006e-05 0)
(0.0998379 -8.25017e-05 0)
(0.10001 -0.000109805 0)
(0.100026 -7.78894e-05 0)
(0.0999913 -0.000115431 0)
(0.0999652 -5.01785e-05 0)
(0.09994 -7.80678e-05 0)
(0.09992 -2.962e-05 0)
(0.0999039 -5.12312e-05 0)
(0.0998942 -9.12557e-06 0)
(0.0998825 -3.43268e-05 0)
)
;
    }
    frontAndBack
    {
        type            empty;
    }
}


// ************************************************************************* //
