/*--------------------------------*- C++ -*----------------------------------*\
  =========                 |
  \\      /  F ield         | OpenFOAM: The Open Source CFD Toolbox
   \\    /   O peration     | Website:  https://openfoam.org
    \\  /    A nd           | Version:  9
     \\/     M anipulation  |
\*---------------------------------------------------------------------------*/
FoamFile
{
    format      ascii;
    class       volScalarField;
    location    "4";
    object      ddt0(h);
}
// * * * * * * * * * * * * * * * * * * * * * * * * * * * * * * * * * * * * * //

dimensions      [0 1 -1 0 0 0 0];

internalField   nonuniform List<scalar> 
400
(
2.72837e-05
2.62149e-05
1.83206e-05
1.27562e-05
-6.18772e-06
-2.8536e-05
-4.56549e-05
-4.5994e-05
-3.02457e-05
-2.13992e-05
-3.09867e-05
-2.93461e-05
1.01997e-05
5.25907e-05
4.35227e-05
5.75218e-06
2.96984e-06
1.73949e-05
-1.08706e-06
-9.98775e-06
2.0229e-05
1.70993e-05
1.44182e-05
8.67259e-06
1.03223e-06
-1.46091e-05
-2.72276e-05
-2.76308e-05
-2.3406e-05
-2.30179e-05
-3.13619e-05
-2.56374e-05
1.09419e-05
3.71298e-05
3.08502e-05
1.55476e-05
1.10039e-05
8.11498e-06
4.1588e-06
1.90184e-06
3.42645e-06
-2.45417e-06
3.75294e-06
2.50992e-06
2.10164e-06
2.12536e-07
-2.15472e-06
-7.09588e-06
-1.47188e-05
-2.38184e-05
-3.01595e-05
-1.91235e-05
1.15932e-05
1.95385e-05
1.24952e-05
2.60561e-05
2.1706e-05
-2.41224e-06
9.14023e-06
1.43032e-05
-1.65e-05
-1.1276e-05
-5.48577e-06
-6.31375e-06
4.76541e-06
1.73912e-05
1.58084e-05
1.2622e-05
-5.67926e-06
-2.5221e-05
-2.71552e-05
-8.92503e-06
1.02974e-05
2.35935e-06
-5.283e-06
2.69872e-05
3.2335e-05
-6.07517e-06
9.2908e-06
1.87004e-05
-3.21925e-05
-1.95996e-05
-1.68017e-05
-1.07754e-05
6.14311e-06
2.40595e-05
3.28488e-05
2.85585e-05
4.16713e-06
-2.46951e-05
-2.68016e-05
8.95341e-07
9.2396e-06
-6.74002e-06
-9.81775e-06
2.4417e-05
2.91453e-05
-4.68221e-07
7.57521e-06
1.2263e-05
-3.27543e-05
-2.45578e-05
-2.09046e-05
-1.50801e-05
2.17721e-06
2.48542e-05
4.1968e-05
3.70395e-05
9.20119e-06
-2.46892e-05
-2.2113e-05
5.76955e-06
9.21082e-06
-9.00829e-06
-9.8853e-06
1.5692e-05
1.86622e-05
6.91082e-06
5.41086e-06
5.44971e-06
-1.84618e-05
-1.45691e-05
-1.69639e-05
-1.66012e-05
-1.63902e-06
1.43636e-05
3.74539e-05
3.25446e-05
7.09591e-06
-2.74588e-05
-2.59013e-05
3.19859e-06
4.76905e-06
-9.55709e-06
-2.96674e-06
9.66395e-06
8.33679e-06
1.1751e-05
5.39665e-06
-5.28115e-07
2.43092e-08
2.94716e-06
-6.11241e-06
-1.26013e-05
-8.45196e-06
4.70591e-06
2.82417e-05
2.16955e-05
-2.14718e-06
-3.53417e-05
-3.05368e-05
-3.30839e-06
-2.95938e-06
-1.16876e-05
5.19936e-06
1.03728e-05
4.79568e-06
1.14718e-05
3.30815e-06
-4.69581e-06
1.37559e-05
1.91089e-05
7.65174e-06
-3.98588e-06
-8.62609e-06
-1.12665e-06
1.76528e-05
1.06229e-05
-1.30698e-05
-4.34226e-05
-3.7575e-05
-1.23338e-05
-1.15785e-05
-1.39563e-05
1.0123e-05
1.13617e-05
9.82405e-07
9.00109e-06
3.41347e-08
-6.62608e-06
1.96292e-05
2.86951e-05
1.53923e-05
2.38646e-06
-8.47987e-06
-4.885e-06
9.30092e-06
2.97969e-06
-1.95376e-05
-4.92769e-05
-4.1441e-05
-1.65333e-05
-1.63515e-05
-1.52917e-05
1.28107e-05
1.42862e-05
-1.06373e-06
7.05956e-06
-8.93434e-07
-7.47629e-06
1.96616e-05
2.8983e-05
1.56882e-05
2.26384e-06
-8.5657e-06
-4.98807e-06
9.2519e-06
2.84525e-06
-1.9587e-05
-4.94202e-05
-4.13993e-05
-1.64723e-05
-1.58749e-05
-1.53604e-05
1.25612e-05
1.31393e-05
-1.73107e-06
6.78184e-06
-1.43418e-06
-8.09523e-06
1.38677e-05
2.00432e-05
7.63049e-06
-4.06255e-06
-8.59401e-06
-1.43941e-06
1.76256e-05
1.06229e-05
-1.27709e-05
-4.3698e-05
-3.78267e-05
-1.20144e-05
-1.08188e-05
-1.45282e-05
9.68994e-06
1.03366e-05
3.04279e-07
8.84063e-06
9.10322e-08
-7.19981e-06
6.85417e-07
2.55587e-06
-6.1484e-06
-1.16948e-05
-8.34455e-06
4.97176e-06
2.83409e-05
2.19812e-05
-1.89251e-06
-3.51272e-05
-3.10986e-05
-2.90657e-06
-2.96543e-06
-1.20741e-05
3.45115e-06
1.03389e-05
4.07847e-06
1.14037e-05
3.0525e-06
-4.45208e-06
-1.82563e-05
-1.45532e-05
-1.69748e-05
-1.55956e-05
-1.62553e-06
1.5993e-05
3.81232e-05
3.25544e-05
6.69283e-06
-2.71562e-05
-2.5408e-05
3.23461e-06
4.23976e-06
-9.03853e-06
-3.72816e-06
7.90734e-06
8.70161e-06
1.20955e-05
5.62123e-06
-1.28112e-06
-3.25957e-05
-2.45037e-05
-2.09793e-05
-1.54734e-05
2.7541e-06
2.48568e-05
4.15536e-05
3.66126e-05
9.11683e-06
-2.4785e-05
-2.13782e-05
6.4959e-06
8.89743e-06
-9.17526e-06
-8.70658e-06
1.62844e-05
1.90562e-05
8.28839e-06
6.50797e-06
4.64807e-06
-3.19047e-05
-2.03918e-05
-1.66227e-05
-1.08973e-05
6.5929e-06
2.5233e-05
3.46904e-05
2.96028e-05
4.05372e-06
-2.42072e-05
-2.62273e-05
1.46464e-06
8.68694e-06
-6.61186e-06
-8.44097e-06
2.51323e-05
2.67018e-05
1.59319e-06
7.18059e-06
1.22368e-05
-1.63503e-05
-1.20053e-05
-5.0887e-06
-6.06663e-06
6.23541e-06
1.62856e-05
1.66566e-05
1.36624e-05
-4.14191e-06
-2.45759e-05
-2.66596e-05
-8.48636e-06
1.10207e-05
3.26837e-06
-2.74824e-06
3.06608e-05
3.22011e-05
-6.97222e-06
8.66492e-06
1.80979e-05
2.44152e-06
-1.53407e-06
4.24066e-06
2.7471e-06
2.40565e-06
3.39219e-06
-9.24341e-07
-5.54651e-06
-1.42413e-05
-2.36229e-05
-2.89522e-05
-1.74439e-05
1.32833e-05
1.95343e-05
1.2657e-05
2.79251e-05
2.36918e-05
-7.6348e-06
1.12135e-05
1.61822e-05
1.93549e-05
1.72128e-05
1.41554e-05
8.36553e-06
3.29128e-07
-1.61204e-05
-2.84079e-05
-2.84103e-05
-2.27606e-05
-2.09542e-05
-2.96862e-05
-2.54701e-05
1.31757e-05
3.97971e-05
2.97602e-05
1.55457e-05
1.15868e-05
8.52408e-06
4.26416e-06
1.88059e-06
2.87874e-05
2.63129e-05
1.88092e-05
1.3158e-05
-5.87343e-06
-2.80956e-05
-4.41312e-05
-4.43044e-05
-2.8958e-05
-2.03674e-05
-3.00238e-05
-2.78793e-05
1.1589e-05
5.2546e-05
4.36616e-05
4.18776e-06
4.4752e-06
2.0531e-05
-2.27149e-06
-9.30029e-06
)
;

boundaryField
{
    sides
    {
        type            calculated;
        value           nonuniform List<scalar> 
40
(
2.87874e-05
2.63129e-05
1.88092e-05
1.3158e-05
-5.87343e-06
-2.80956e-05
-4.41312e-05
-4.43044e-05
-2.8958e-05
-2.03674e-05
-3.00238e-05
-2.78793e-05
1.1589e-05
5.2546e-05
4.36616e-05
4.18776e-06
4.4752e-06
2.0531e-05
-2.27149e-06
-9.30029e-06
2.72837e-05
2.62149e-05
1.83206e-05
1.27562e-05
-6.18772e-06
-2.8536e-05
-4.56549e-05
-4.5994e-05
-3.02457e-05
-2.13992e-05
-3.09867e-05
-2.93461e-05
1.01997e-05
5.25907e-05
4.35227e-05
5.75218e-06
2.96984e-06
1.73949e-05
-1.08706e-06
-9.98775e-06
)
;
    }
    inlet
    {
        type            calculated;
        value           nonuniform List<scalar> 
20
(
2.72837e-05
2.0229e-05
3.42645e-06
-1.65e-05
-3.21925e-05
-3.27543e-05
-1.84618e-05
2.43092e-08
1.37559e-05
1.96292e-05
1.96616e-05
1.38677e-05
6.85417e-07
-1.82563e-05
-3.25957e-05
-3.19047e-05
-1.63503e-05
2.44152e-06
1.93549e-05
2.87874e-05
)
;
    }
    outlet
    {
        type            calculated;
        value           uniform 0;
    }
    frontAndBack
    {
        type            empty;
    }
}


// ************************************************************************* //
