/*--------------------------------*- C++ -*----------------------------------*\
  =========                 |
  \\      /  F ield         | OpenFOAM: The Open Source CFD Toolbox
   \\    /   O peration     | Website:  https://openfoam.org
    \\  /    A nd           | Version:  9
     \\/     M anipulation  |
\*---------------------------------------------------------------------------*/
FoamFile
{
    format      ascii;
    class       volVectorField;
    location    "4";
    object      ddt0(hU);
}
// * * * * * * * * * * * * * * * * * * * * * * * * * * * * * * * * * * * * * //

dimensions      [0 2 -2 0 0 0 0];

internalField   nonuniform List<vector> 
400
(
(1.82348e-06 1.76606e-06 0)
(-1.73875e-06 5.53536e-07 0)
(2.60741e-06 2.46949e-07 0)
(5.10418e-06 -7.49494e-07 0)
(-2.69766e-08 -1.99756e-06 0)
(-7.92556e-06 -2.29068e-06 0)
(-1.58513e-05 -1.25732e-06 0)
(-2.0771e-05 9.76147e-08 0)
(-1.92593e-05 1.30025e-06 0)
(-1.05002e-05 2.09771e-06 0)
(1.91818e-06 2.06945e-06 0)
(1.06945e-05 4.76637e-07 0)
(1.02377e-05 -1.24289e-06 0)
(6.17008e-06 -8.98069e-07 0)
(6.10978e-06 3.81623e-07 0)
(5.65946e-06 5.73524e-07 0)
(3.18329e-06 6.90562e-08 0)
(3.5105e-06 -4.91336e-07 0)
(2.08475e-06 -2.21621e-07 0)
(-1.48653e-06 -1.34394e-07 0)
(2.12652e-06 3.98933e-06 0)
(-1.99e-06 -3.04946e-07 0)
(1.0618e-07 -3.30308e-07 0)
(1.62692e-06 -1.7187e-06 0)
(-7.25924e-07 -4.47255e-06 0)
(-5.5081e-06 -4.88758e-06 0)
(-1.14639e-05 -2.84915e-06 0)
(-1.63102e-05 4.18156e-07 0)
(-1.654e-05 3.34782e-06 0)
(-9.86735e-06 5.55009e-06 0)
(2.80427e-07 5.62958e-06 0)
(7.73701e-06 1.6672e-06 0)
(8.90814e-06 -3.10278e-06 0)
(6.25238e-06 -2.46929e-06 0)
(6.33906e-06 7.29099e-07 0)
(6.32526e-06 1.21891e-06 0)
(2.91934e-06 -8.73889e-09 0)
(2.26767e-06 -4.84891e-07 0)
(3.11466e-06 -6.66827e-07 0)
(1.37525e-07 -5.86953e-07 0)
(1.23813e-06 2.61604e-06 0)
(-3.06049e-06 -4.00556e-06 0)
(-2.70028e-06 -2.01974e-06 0)
(-2.3384e-06 -1.81169e-06 0)
(-2.0227e-06 -3.83238e-06 0)
(-2.6351e-06 -4.44249e-06 0)
(-5.84464e-06 -2.53856e-06 0)
(-1.05854e-05 7.3376e-07 0)
(-1.25493e-05 4.63557e-06 0)
(-8.42433e-06 7.57864e-06 0)
(-1.84154e-06 7.66882e-06 0)
(2.94406e-06 2.93552e-06 0)
(6.15016e-06 -3.64197e-06 0)
(6.71525e-06 -3.40695e-06 0)
(6.75637e-06 7.1625e-07 0)
(6.95398e-06 4.29304e-07 0)
(3.32744e-06 -6.49538e-07 0)
(8.56755e-07 4.57466e-07 0)
(3.30956e-06 -1.03207e-06 0)
(2.32625e-06 -1.26288e-06 0)
(-1.85096e-07 -1.90029e-06 0)
(-1.76011e-06 -8.09402e-06 0)
(-3.68376e-06 -4.32508e-06 0)
(-4.96642e-06 -1.46386e-06 0)
(-2.43212e-06 -1.73492e-06 0)
(2.12483e-07 -2.86747e-06 0)
(-1.40451e-06 -1.57131e-06 0)
(-4.95536e-06 1.03455e-06 0)
(-7.86193e-06 5.34996e-06 0)
(-7.00409e-06 8.37614e-06 0)
(-3.89429e-06 8.24442e-06 0)
(-1.93382e-06 3.89586e-06 0)
(2.36984e-06 -2.30269e-06 0)
(7.15766e-06 -3.3856e-06 0)
(6.6594e-06 8.21205e-08 0)
(6.06308e-06 -1.0515e-06 0)
(5.06515e-06 -1.5722e-06 0)
(5.10938e-07 1.04064e-06 0)
(2.05069e-06 -6.28327e-07 0)
(3.96788e-06 -1.56051e-06 0)
(-9.10939e-07 -6.54428e-06 0)
(2.02854e-07 -1.11424e-05 0)
(-3.3908e-06 -6.7777e-06 0)
(-4.7821e-06 -1.60483e-06 0)
(-2.33949e-06 -1.67567e-07 0)
(1.40189e-06 -8.48815e-07 0)
(2.32454e-06 -2.96344e-07 0)
(1.05253e-07 1.89056e-06 0)
(-3.22637e-06 5.38399e-06 0)
(-5.56635e-06 8.22058e-06 0)
(-5.95199e-06 7.94916e-06 0)
(-5.61992e-06 4.27597e-06 0)
(-1.47876e-06 -1.17304e-07 0)
(6.47168e-06 -2.2988e-06 0)
(6.96972e-06 -1.53292e-06 0)
(5.06466e-06 -2.0944e-06 0)
(6.16594e-06 -1.96967e-06 0)
(2.08226e-06 5.22216e-07 0)
(4.1489e-07 -9.09769e-08 0)
(3.78739e-06 -1.01979e-06 0)
(-6.25309e-07 -8.34335e-06 0)
(1.98725e-06 -1.19897e-05 0)
(-1.60052e-06 -7.84362e-06 0)
(-2.88999e-06 -2.36502e-06 0)
(-1.25101e-06 -1.92272e-07 0)
(2.45188e-06 5.63568e-08 0)
(4.84851e-06 5.06702e-07 0)
(3.44682e-06 2.29636e-06 0)
(4.61054e-08 4.68155e-06 0)
(-4.32967e-06 6.88377e-06 0)
(-7.31277e-06 6.87772e-06 0)
(-8.55398e-06 4.13545e-06 0)
(-4.36134e-06 1.43244e-06 0)
(4.59603e-06 -5.44294e-07 0)
(6.44616e-06 -2.13905e-06 0)
(4.46462e-06 -2.61586e-06 0)
(6.33433e-06 -1.80711e-06 0)
(3.75445e-06 -4.65139e-07 0)
(-1.75763e-07 -8.99392e-08 0)
(3.21958e-06 -2.88886e-07 0)
(1.13613e-07 -6.47391e-06 0)
(3.50836e-06 -9.71618e-06 0)
(5.52555e-07 -7.32444e-06 0)
(-1.04532e-06 -3.32298e-06 0)
(-1.49736e-07 -1.6757e-06 0)
(2.73974e-06 -1.22196e-06 0)
(5.99399e-06 -7.4061e-07 0)
(5.0159e-06 1.00085e-06 0)
(1.73395e-06 2.9073e-06 0)
(-3.60283e-06 5.12781e-06 0)
(-8.59239e-06 5.58202e-06 0)
(-1.08685e-05 3.81577e-06 0)
(-6.61983e-06 2.52322e-06 0)
(2.63762e-06 1.34907e-06 0)
(5.55749e-06 -1.13879e-06 0)
(3.90556e-06 -3.03204e-06 0)
(6.28067e-06 -2.9403e-06 0)
(5.02019e-06 -1.62535e-06 0)
(1.28084e-08 -1.48202e-07 0)
(2.33216e-06 2.98235e-07 0)
(5.92149e-07 -3.14396e-06 0)
(3.53513e-06 -5.83111e-06 0)
(1.52923e-06 -5.45481e-06 0)
(2.37102e-07 -3.65478e-06 0)
(1.68319e-07 -2.94907e-06 0)
(2.82824e-06 -2.65338e-06 0)
(6.65598e-06 -2.54853e-06 0)
(5.91964e-06 -1.26441e-06 0)
(3.11054e-06 4.37888e-07 0)
(-2.68164e-06 3.09071e-06 0)
(-9.46073e-06 3.50362e-06 0)
(-1.25665e-05 2.38591e-06 0)
(-8.06484e-06 2.46158e-06 0)
(7.02533e-07 2.16709e-06 0)
(3.55184e-06 -3.80453e-07 0)
(2.14667e-06 -3.02934e-06 0)
(6.4309e-06 -3.58407e-06 0)
(7.03313e-06 -2.51733e-06 0)
(1.1645e-06 -7.45512e-07 0)
(1.85752e-06 1.57559e-07 0)
(6.39664e-07 -6.80041e-07 0)
(2.84808e-06 -2.44624e-06 0)
(1.6984e-06 -3.09248e-06 0)
(6.27923e-07 -2.62826e-06 0)
(4.11782e-07 -2.72546e-06 0)
(2.72508e-06 -2.80383e-06 0)
(6.27135e-06 -2.24532e-06 0)
(6.1573e-06 -2.12639e-06 0)
(4.08426e-06 -1.25372e-06 0)
(-2.15226e-06 2.13518e-06 0)
(-1.04822e-05 1.93529e-06 0)
(-1.33887e-05 -5.08335e-08 0)
(-8.2188e-06 1.07276e-06 0)
(-4.91979e-07 3.48665e-06 0)
(1.47209e-06 1.35109e-06 0)
(5.58655e-07 -2.24169e-06 0)
(5.8294e-06 -3.44065e-06 0)
(7.44715e-06 -2.73563e-06 0)
(1.70457e-06 -6.74846e-07 0)
(1.88597e-06 3.32682e-07 0)
(3.37722e-07 1.47305e-07 0)
(2.27596e-06 -5.10731e-07 0)
(1.18226e-06 -1.02878e-06 0)
(6.35979e-07 -8.68405e-07 0)
(7.83169e-07 -1.06345e-06 0)
(2.01681e-06 -1.11265e-06 0)
(6.25685e-06 -5.56319e-07 0)
(7.17241e-06 -8.67975e-07 0)
(3.35022e-06 -6.16004e-07 0)
(-2.75708e-06 1.33646e-06 0)
(-7.96556e-06 7.81197e-07 0)
(-1.3702e-05 -7.01975e-07 0)
(-1.11333e-05 6.06182e-07 0)
(-2.32109e-06 3.05899e-06 0)
(2.09635e-06 1.46478e-06 0)
(2.3876e-06 -1.45638e-06 0)
(5.72459e-06 -2.77856e-06 0)
(6.04957e-06 -2.05093e-06 0)
(-3.50897e-08 -2.32695e-07 0)
(9.94867e-07 4.93632e-07 0)
(2.88957e-07 5.87223e-08 0)
(2.19217e-06 6.07969e-07 0)
(1.14447e-06 1.04428e-06 0)
(6.24478e-07 9.94804e-07 0)
(7.9104e-07 1.28029e-06 0)
(2.01529e-06 1.36036e-06 0)
(6.28031e-06 7.71323e-07 0)
(7.17582e-06 1.0369e-06 0)
(3.34909e-06 7.31672e-07 0)
(-2.75566e-06 -1.25981e-06 0)
(-7.92163e-06 -6.40342e-07 0)
(-1.37431e-05 8.82678e-07 0)
(-1.12048e-05 -6.19207e-07 0)
(-2.42432e-06 -3.19107e-06 0)
(2.07221e-06 -1.62391e-06 0)
(2.22009e-06 1.3871e-06 0)
(5.58083e-06 2.56507e-06 0)
(6.23667e-06 1.80753e-06 0)
(8.488e-08 3.35559e-07 0)
(7.79388e-07 -3.94388e-07 0)
(5.48544e-07 7.10924e-07 0)
(2.6937e-06 2.52705e-06 0)
(1.59417e-06 3.2374e-06 0)
(5.67705e-07 2.88154e-06 0)
(3.49628e-07 2.94897e-06 0)
(2.69622e-06 3.19142e-06 0)
(6.29436e-06 2.5225e-06 0)
(6.18647e-06 2.28137e-06 0)
(4.14384e-06 1.35987e-06 0)
(-2.10376e-06 -2.04007e-06 0)
(-1.04514e-05 -1.94092e-06 0)
(-1.34775e-05 -8.86565e-10 0)
(-8.33133e-06 -1.09616e-06 0)
(-5.88006e-07 -3.55046e-06 0)
(1.50773e-06 -1.41415e-06 0)
(4.65497e-07 2.1725e-06 0)
(5.67156e-06 3.63553e-06 0)
(7.53899e-06 2.76559e-06 0)
(1.86692e-06 5.16932e-07 0)
(1.61741e-06 -4.41847e-07 0)
(6.14176e-07 3.05526e-06 0)
(3.35979e-06 5.87116e-06 0)
(1.44552e-06 5.64733e-06 0)
(1.6345e-07 3.87163e-06 0)
(1.52753e-07 3.34547e-06 0)
(2.91203e-06 3.05611e-06 0)
(6.57798e-06 2.86921e-06 0)
(5.94446e-06 1.41112e-06 0)
(3.18456e-06 -3.74156e-07 0)
(-2.69055e-06 -3.05155e-06 0)
(-9.58508e-06 -3.61217e-06 0)
(-1.2582e-05 -2.5594e-06 0)
(-8.19897e-06 -2.45985e-06 0)
(5.21554e-07 -2.16121e-06 0)
(3.37828e-06 3.62603e-07 0)
(2.33825e-06 2.99248e-06 0)
(6.39375e-06 3.57332e-06 0)
(6.87621e-06 2.5284e-06 0)
(1.15817e-06 5.47893e-07 0)
(1.85494e-06 -3.26042e-07 0)
(1.34831e-07 6.37874e-06 0)
(3.44931e-06 9.71558e-06 0)
(4.23065e-07 7.39364e-06 0)
(-1.0494e-06 3.47684e-06 0)
(-1.92888e-07 2.102e-06 0)
(2.82308e-06 1.46261e-06 0)
(5.95486e-06 1.04987e-06 0)
(4.94184e-06 -7.99698e-07 0)
(1.72046e-06 -2.88001e-06 0)
(-3.60769e-06 -5.19191e-06 0)
(-8.66684e-06 -5.5992e-06 0)
(-1.08674e-05 -3.90044e-06 0)
(-6.68076e-06 -2.60081e-06 0)
(2.62321e-06 -1.33071e-06 0)
(5.52412e-06 1.22522e-06 0)
(3.73993e-06 2.95477e-06 0)
(6.2841e-06 2.84787e-06 0)
(4.96971e-06 1.47795e-06 0)
(-1.30616e-08 -2.53034e-08 0)
(2.2934e-06 -3.91032e-07 0)
(-5.83025e-07 8.26255e-06 0)
(1.95195e-06 1.19939e-05 0)
(-1.73295e-06 7.80102e-06 0)
(-2.97269e-06 2.5877e-06 0)
(-1.28533e-06 5.12529e-07 0)
(2.37847e-06 2.79351e-07 0)
(4.80511e-06 -1.64397e-07 0)
(3.26415e-06 -1.96466e-06 0)
(-7.24911e-08 -4.52398e-06 0)
(-4.3574e-06 -6.938e-06 0)
(-7.30074e-06 -7.00667e-06 0)
(-8.59612e-06 -4.29177e-06 0)
(-4.42298e-06 -1.56294e-06 0)
(4.60305e-06 5.5076e-07 0)
(6.48003e-06 2.14179e-06 0)
(4.53098e-06 2.50506e-06 0)
(6.34499e-06 1.70694e-06 0)
(3.66053e-06 4.63769e-07 0)
(-1.11269e-08 1.93717e-07 0)
(3.26173e-06 2.03771e-07 0)
(-8.11629e-07 6.54481e-06 0)
(4.74495e-08 1.10706e-05 0)
(-3.45268e-06 6.84376e-06 0)
(-4.73399e-06 1.82121e-06 0)
(-2.38065e-06 3.71916e-07 0)
(1.4432e-06 1.18462e-06 0)
(2.50138e-06 4.02573e-07 0)
(8.81325e-08 -1.76946e-06 0)
(-3.49487e-06 -5.30661e-06 0)
(-5.78542e-06 -8.22044e-06 0)
(-6.09543e-06 -8.11632e-06 0)
(-5.55949e-06 -4.32845e-06 0)
(-1.37844e-06 3.73412e-08 0)
(6.5523e-06 2.34692e-06 0)
(7.03749e-06 1.43444e-06 0)
(5.03462e-06 1.77484e-06 0)
(6.00298e-06 1.53813e-06 0)
(2.40195e-06 -4.95947e-07 0)
(2.46599e-07 1.53294e-07 0)
(3.70633e-06 6.69053e-07 0)
(-2.09911e-07 1.919e-06 0)
(-1.8538e-06 8.01192e-06 0)
(-3.62004e-06 4.49144e-06 0)
(-5.02365e-06 1.51912e-06 0)
(-2.39796e-06 1.97188e-06 0)
(-8.33653e-08 3.2159e-06 0)
(-1.45759e-06 1.81654e-06 0)
(-4.89397e-06 -9.83287e-07 0)
(-7.84178e-06 -5.24251e-06 0)
(-7.14713e-06 -8.25098e-06 0)
(-3.94125e-06 -8.05491e-06 0)
(-1.90608e-06 -3.69482e-06 0)
(2.51185e-06 2.27811e-06 0)
(7.25748e-06 3.29171e-06 0)
(6.46282e-06 -1.23575e-07 0)
(6.09933e-06 1.16028e-06 0)
(5.36077e-06 1.3276e-06 0)
(6.93273e-07 -1.29657e-06 0)
(1.67351e-06 3.85736e-07 0)
(4.10023e-06 1.47893e-06 0)
(1.10763e-06 -2.63823e-06 0)
(-2.91996e-06 4.11173e-06 0)
(-2.68928e-06 2.08457e-06 0)
(-2.33701e-06 1.92845e-06 0)
(-1.89932e-06 3.99176e-06 0)
(-2.40933e-06 4.70563e-06 0)
(-5.96254e-06 2.7454e-06 0)
(-1.05917e-05 -7.55763e-07 0)
(-1.25946e-05 -4.75634e-06 0)
(-8.54121e-06 -7.604e-06 0)
(-1.82145e-06 -7.59665e-06 0)
(2.91095e-06 -2.94438e-06 0)
(6.17808e-06 3.51231e-06 0)
(6.76007e-06 2.96791e-06 0)
(6.91023e-06 -9.56532e-07 0)
(6.84159e-06 -2.65937e-07 0)
(3.23016e-06 7.56845e-07 0)
(4.57395e-07 -6.53462e-07 0)
(3.57884e-06 9.07803e-07 0)
(2.72235e-06 1.57169e-06 0)
(2.10147e-06 -4.0448e-06 0)
(-1.94271e-06 4.64643e-07 0)
(4.34673e-08 4.83311e-07 0)
(1.50662e-06 1.95498e-06 0)
(-8.54939e-07 4.49036e-06 0)
(-5.81785e-06 4.72085e-06 0)
(-1.19548e-05 2.77699e-06 0)
(-1.66794e-05 -3.58138e-07 0)
(-1.65402e-05 -3.3483e-06 0)
(-9.62784e-06 -5.55166e-06 0)
(3.91612e-07 -5.6402e-06 0)
(7.54016e-06 -1.77049e-06 0)
(8.77729e-06 3.12484e-06 0)
(6.40441e-06 2.3102e-06 0)
(6.3852e-06 -9.18526e-07 0)
(6.34849e-06 -1.45074e-06 0)
(2.9252e-06 3.78016e-07 0)
(2.34327e-06 4.94488e-07 0)
(3.31231e-06 8.10125e-07 0)
(1.06179e-07 7.95679e-07 0)
(2.08408e-06 -1.81054e-06 0)
(-1.5584e-06 -4.97764e-07 0)
(2.67376e-06 -1.0925e-07 0)
(4.95024e-06 8.54263e-07 0)
(-3.70663e-07 2.05711e-06 0)
(-8.11055e-06 2.10568e-06 0)
(-1.57079e-05 1.24352e-06 0)
(-2.06515e-05 1.3825e-08 0)
(-1.92462e-05 -1.15482e-06 0)
(-1.05138e-05 -2.10438e-06 0)
(1.82734e-06 -2.10684e-06 0)
(1.06711e-05 -6.33167e-07 0)
(1.01899e-05 1.24767e-06 0)
(5.98785e-06 8.98566e-07 0)
(6.19145e-06 -4.3246e-07 0)
(5.75066e-06 -6.61872e-07 0)
(3.30106e-06 1.13394e-07 0)
(3.70382e-06 4.07856e-07 0)
(2.22255e-06 2.63615e-07 0)
(-1.50665e-06 1.07193e-07 0)
)
;

boundaryField
{
    sides
    {
        type            calculated;
        value           nonuniform List<vector> 
40
(
(2.08408e-06 0 0)
(-1.5584e-06 0 0)
(2.67376e-06 0 0)
(4.95024e-06 0 0)
(-3.70663e-07 0 0)
(-8.11055e-06 0 0)
(-1.57079e-05 0 0)
(-2.06515e-05 0 0)
(-1.92462e-05 0 0)
(-1.05138e-05 0 0)
(1.82734e-06 0 0)
(1.06711e-05 0 0)
(1.01899e-05 0 0)
(5.98785e-06 0 0)
(6.19145e-06 0 0)
(5.75066e-06 0 0)
(3.30106e-06 0 0)
(3.70382e-06 0 0)
(2.22255e-06 0 0)
(-1.50665e-06 0 0)
(1.82348e-06 0 0)
(-1.73875e-06 0 0)
(2.60741e-06 0 0)
(5.10418e-06 0 0)
(-2.69766e-08 0 0)
(-7.92556e-06 0 0)
(-1.58513e-05 0 0)
(-2.0771e-05 0 0)
(-1.92593e-05 0 0)
(-1.05002e-05 0 0)
(1.91818e-06 0 0)
(1.06945e-05 0 0)
(1.02377e-05 0 0)
(6.17008e-06 0 0)
(6.10978e-06 0 0)
(5.65946e-06 0 0)
(3.18329e-06 0 0)
(3.5105e-06 0 0)
(2.08475e-06 0 0)
(-1.48653e-06 0 0)
)
;
    }
    inlet
    {
        type            calculated;
        value           uniform (0 0 0);
    }
    outlet
    {
        type            calculated;
        value           nonuniform List<vector> 
20
(
(-1.48653e-06 -1.34394e-07 0)
(1.37525e-07 -5.86953e-07 0)
(2.32625e-06 -1.26288e-06 0)
(3.96788e-06 -1.56051e-06 0)
(3.78739e-06 -1.01979e-06 0)
(3.21958e-06 -2.88886e-07 0)
(2.33216e-06 2.98235e-07 0)
(1.85752e-06 1.57559e-07 0)
(1.88597e-06 3.32682e-07 0)
(9.94867e-07 4.93632e-07 0)
(7.79388e-07 -3.94388e-07 0)
(1.61741e-06 -4.41847e-07 0)
(1.85494e-06 -3.26042e-07 0)
(2.2934e-06 -3.91032e-07 0)
(3.26173e-06 2.03771e-07 0)
(3.70633e-06 6.69053e-07 0)
(4.10023e-06 1.47893e-06 0)
(2.72235e-06 1.57169e-06 0)
(1.06179e-07 7.95679e-07 0)
(-1.50665e-06 1.07193e-07 0)
)
;
    }
    frontAndBack
    {
        type            empty;
    }
}


// ************************************************************************* //
