/*--------------------------------*- C++ -*----------------------------------*\
  =========                 |
  \\      /  F ield         | OpenFOAM: The Open Source CFD Toolbox
   \\    /   O peration     | Website:  https://openfoam.org
    \\  /    A nd           | Version:  9
     \\/     M anipulation  |
\*---------------------------------------------------------------------------*/
FoamFile
{
    format      ascii;
    class       volScalarField;
    location    "4";
    object      h;
}
// * * * * * * * * * * * * * * * * * * * * * * * * * * * * * * * * * * * * * //

dimensions      [0 1 0 0 0 0 0];

internalField   nonuniform List<scalar> 
400
(
0.00999463
0.00999698
0.00999709
0.00999621
0.00999414
0.00999274
0.00999419
0.00999987
0.0100086
0.0100152
0.0100142
0.0100078
0.0100043
0.0100071
0.0100084
0.0100044
0.0100021
0.0100026
0.0100005
0.00999908
0.00999378
0.00999507
0.00999576
0.00999612
0.00999585
0.0099953
0.00999662
0.0100014
0.0100084
0.0100133
0.0100124
0.0100076
0.0100054
0.0100066
0.0100067
0.0100042
0.0100026
0.0100022
0.0100008
0.00999992
0.00999298
0.009993
0.0099943
0.00999612
0.0099977
0.0099984
0.00999994
0.0100033
0.0100077
0.0100104
0.0100094
0.0100073
0.0100072
0.0100067
0.0100047
0.0100041
0.0100036
0.0100017
0.0100014
0.0100011
0.00999376
0.00999314
0.00999393
0.00999609
0.00999888
0.0100011
0.0100024
0.0100046
0.0100063
0.0100064
0.0100057
0.0100065
0.0100086
0.0100068
0.0100031
0.0100038
0.0100044
0.0100012
0.0100016
0.0100018
0.00999679
0.00999535
0.00999505
0.00999671
0.00999973
0.0100024
0.010004
0.0100052
0.0100046
0.0100023
0.0100013
0.0100049
0.0100089
0.0100074
0.0100035
0.0100048
0.010005
0.0100012
0.0100015
0.0100018
0.0100017
0.00999935
0.00999803
0.00999824
0.0100003
0.0100028
0.0100045
0.0100046
0.0100021
0.009998
0.00999731
0.0100024
0.0100079
0.0100077
0.0100048
0.0100054
0.0100046
0.0100014
0.0100014
0.0100015
0.0100067
0.0100046
0.0100024
0.010001
0.0100018
0.010003
0.0100044
0.0100034
0.0099993
0.00999324
0.00999188
0.00999835
0.0100061
0.0100087
0.010008
0.0100075
0.0100046
0.0100016
0.0100013
0.0100011
0.0100098
0.0100092
0.0100071
0.0100047
0.0100042
0.0100045
0.0100051
0.010003
0.00999748
0.00998931
0.00998523
0.00999118
0.0100013
0.0100084
0.0100113
0.0100103
0.0100058
0.0100021
0.0100014
0.0100009
0.0100109
0.0100122
0.0100109
0.0100086
0.0100076
0.0100072
0.0100071
0.0100033
0.00999471
0.00998313
0.00997985
0.00998867
0.0100029
0.0100111
0.0100128
0.0100105
0.0100057
0.0100027
0.0100018
0.0100008
0.0100108
0.0100134
0.0100128
0.010011
0.0100101
0.0100103
0.010012
0.0100114
0.0100035
0.00897087
0.00894407
0.00997338
0.0100125
0.0100242
0.0100185
0.0100105
0.0100049
0.0100034
0.0100027
0.010001
0.0100106
0.0100133
0.0100128
0.0100109
0.01001
0.0100103
0.0100119
0.0100113
0.0100034
0.00897078
0.00894398
0.00997328
0.0100125
0.0100242
0.0100185
0.0100104
0.0100049
0.0100034
0.0100026
0.0100009
0.0100104
0.0100118
0.0100106
0.0100083
0.0100073
0.0100069
0.0100068
0.010003
0.00999446
0.00998285
0.00997953
0.00998842
0.0100028
0.010011
0.0100127
0.0100104
0.0100056
0.0100027
0.0100017
0.0100007
0.0100091
0.0100085
0.0100065
0.0100042
0.0100037
0.010004
0.0100046
0.0100026
0.00999707
0.00998889
0.00998483
0.0099909
0.0100011
0.0100082
0.0100111
0.0100101
0.0100056
0.010002
0.0100014
0.0100008
0.0100058
0.0100037
0.0100015
0.0100002
0.010001
0.0100024
0.0100037
0.0100028
0.00999868
0.00999269
0.00999144
0.00999798
0.0100057
0.0100085
0.0100078
0.0100071
0.0100044
0.0100015
0.0100013
0.010001
0.0100006
0.00999824
0.00999695
0.00999714
0.00999927
0.0100018
0.0100035
0.0100038
0.0100014
0.00999732
0.0099968
0.010002
0.0100075
0.0100073
0.0100045
0.0100051
0.0100044
0.0100014
0.0100015
0.0100014
0.00999551
0.00999399
0.00999379
0.00999534
0.00999846
0.0100013
0.010003
0.0100042
0.0100036
0.0100015
0.0100007
0.0100044
0.0100083
0.0100069
0.0100032
0.0100046
0.0100046
0.0100011
0.0100014
0.0100018
0.00999226
0.00999162
0.00999242
0.0099946
0.0099975
0.00999958
0.0100011
0.0100035
0.0100053
0.0100055
0.0100049
0.0100059
0.010008
0.0100063
0.0100028
0.010004
0.0100044
0.0100009
0.0100015
0.0100018
0.00999123
0.00999136
0.00999259
0.00999438
0.0099959
0.00999685
0.00999844
0.010002
0.0100064
0.0100092
0.0100084
0.0100065
0.0100066
0.0100061
0.0100042
0.0100038
0.0100035
0.0100012
0.0100014
0.0100012
0.00999185
0.00999318
0.00999386
0.00999419
0.00999394
0.00999337
0.00999489
0.0099999
0.0100071
0.0100123
0.0100114
0.0100067
0.0100049
0.0100063
0.0100062
0.0100037
0.0100024
0.0100021
0.0100007
0.00999984
0.00999266
0.00999484
0.00999487
0.009994
0.00999201
0.00999078
0.0099924
0.00999822
0.0100071
0.0100138
0.010013
0.0100067
0.0100034
0.0100063
0.0100077
0.0100036
0.0100015
0.0100024
0.0100001
0.00999891
)
;

boundaryField
{
    sides
    {
        type            zeroGradient;
    }
    inlet
    {
        type            zeroGradient;
    }
    outlet
    {
        type            fixedValue;
        value           uniform 0.01;
    }
    frontAndBack
    {
        type            empty;
    }
}


// ************************************************************************* //
