/*--------------------------------*- C++ -*----------------------------------*\
  =========                 |
  \\      /  F ield         | OpenFOAM: The Open Source CFD Toolbox
   \\    /   O peration     | Website:  https://openfoam.org
    \\  /    A nd           | Version:  9
     \\/     M anipulation  |
\*---------------------------------------------------------------------------*/
FoamFile
{
    format      ascii;
    class       volScalarField;
    location    "4";
    object      h_0;
}
// * * * * * * * * * * * * * * * * * * * * * * * * * * * * * * * * * * * * * //

dimensions      [0 1 0 0 0 0 0];

internalField   nonuniform List<scalar> 
400
(
0.009992
0.00999481
0.00999565
0.00999492
0.00999387
0.00999421
0.00999744
0.0100037
0.0100121
0.010019
0.0100191
0.0100111
0.0100025
0.0100019
0.0100049
0.0100035
0.0100012
0.0100012
0.0100003
0.00999932
0.00999179
0.00999328
0.00999445
0.00999529
0.00999551
0.00999614
0.00999847
0.0100037
0.010011
0.0100169
0.0100168
0.0100105
0.010004
0.0100029
0.0100041
0.0100024
0.010001
0.0100016
0.0100002
0.00999937
0.00999234
0.00999255
0.00999371
0.00999591
0.00999769
0.00999832
0.00999987
0.0100036
0.0100093
0.0100135
0.0100131
0.0100094
0.0100064
0.0100049
0.0100034
0.0100013
0.0100012
0.0100017
0.0100005
0.00999981
0.0099949
0.00999374
0.00999395
0.00999667
0.00999887
0.00999976
0.0100006
0.0100032
0.0100068
0.0100091
0.0100084
0.0100075
0.0100086
0.0100071
0.0100028
0.010001
0.0100015
0.0100011
0.0100008
0.0100005
0.0099996
0.00999678
0.00999607
0.00999762
0.00999953
0.0100007
0.010001
0.0100026
0.010004
0.0100045
0.0100035
0.0100048
0.0100092
0.010009
0.0100036
0.0100023
0.0100027
0.0100004
0.0100008
0.0100013
0.0100051
0.0100015
0.00999974
0.00999947
0.0100001
0.0100008
0.0100005
0.0100011
0.010001
0.00999975
0.00999875
0.0100019
0.0100083
0.0100097
0.0100051
0.0100038
0.0100033
0.00999985
0.0100007
0.0100016
0.010009
0.0100062
0.010004
0.0100022
0.010002
0.0100017
0.0100008
0.0100001
0.00999826
0.00999515
0.00999333
0.00999798
0.0100068
0.0100107
0.0100081
0.0100066
0.010004
0.00999974
0.0100006
0.0100016
0.0100103
0.0100095
0.0100079
0.0100057
0.010005
0.0100041
0.0100026
0.0100008
0.00999737
0.00999175
0.00998709
0.00999135
0.0100025
0.0100102
0.0100109
0.0100097
0.0100058
0.0100003
0.0100008
0.0100016
0.0100098
0.0100109
0.0100105
0.010009
0.0100086
0.0100075
0.0100058
0.0100023
0.00999578
0.0099863
0.0099824
0.00998971
0.0100048
0.0100129
0.0100119
0.0100099
0.0100061
0.0100014
0.0100015
0.0100016
0.0100088
0.0100111
0.0100117
0.0100109
0.0100112
0.0100111
0.0100116
0.0100113
0.0100052
0.00897463
0.00894704
0.0099748
0.0100147
0.0100261
0.0100174
0.0100097
0.0100055
0.0100025
0.0100027
0.0100018
0.0100086
0.010011
0.0100116
0.0100108
0.0100111
0.010011
0.0100115
0.0100113
0.0100052
0.00897456
0.00894694
0.00997466
0.0100147
0.0100261
0.0100174
0.0100097
0.0100056
0.0100026
0.0100026
0.0100017
0.0100092
0.0100105
0.0100102
0.0100086
0.0100083
0.0100072
0.0100055
0.010002
0.00999551
0.00998604
0.00998209
0.00998939
0.0100046
0.0100129
0.0100119
0.0100098
0.0100061
0.0100015
0.0100014
0.0100015
0.0100095
0.0100088
0.0100073
0.0100051
0.0100045
0.0100036
0.0100021
0.0100003
0.00999694
0.0099913
0.00998672
0.00999104
0.0100022
0.0100101
0.0100108
0.0100096
0.0100055
0.0100002
0.0100008
0.0100015
0.0100081
0.0100053
0.0100031
0.0100014
0.0100011
0.010001
0.0100001
0.00999951
0.00999767
0.00999455
0.00999286
0.00999761
0.0100064
0.0100104
0.0100079
0.0100063
0.0100038
0.00999958
0.0100006
0.0100016
0.010004
0.0100004
0.00999866
0.00999842
0.00999905
0.00999982
0.0099996
0.0100002
0.0100002
0.00999908
0.00999813
0.0100014
0.0100079
0.0100093
0.0100047
0.0100036
0.010003
0.00999976
0.0100008
0.0100016
0.00999832
0.00999544
0.00999484
0.00999627
0.00999819
0.00999942
0.00999978
0.0100014
0.0100031
0.0100037
0.0100029
0.0100043
0.0100087
0.0100085
0.0100031
0.010002
0.0100025
0.0100001
0.0100006
0.0100013
0.00999339
0.00999228
0.00999243
0.00999511
0.00999738
0.00999833
0.00999932
0.010002
0.0100057
0.0100082
0.0100077
0.0100068
0.010008
0.0100064
0.0100023
0.010001
0.0100016
0.0100009
0.0100007
0.0100008
0.00999065
0.00999088
0.00999194
0.0099942
0.00999584
0.00999651
0.00999821
0.0100021
0.0100079
0.0100123
0.0100119
0.0100084
0.0100056
0.0100043
0.0100028
0.0100007
0.0100011
0.0100016
0.0100004
0.00999984
0.00998993
0.00999137
0.00999256
0.00999335
0.00999363
0.00999424
0.00999681
0.0100022
0.0100097
0.0100156
0.0100157
0.0100095
0.0100032
0.0100025
0.0100037
0.0100019
0.0100007
0.0100015
0.0100001
0.0099992
0.00998994
0.00999264
0.00999337
0.00999264
0.00999171
0.00999226
0.00999554
0.0100019
0.0100105
0.0100175
0.0100177
0.0100099
0.0100014
0.0100011
0.0100042
0.0100028
0.0100004
0.0100009
0.00999997
0.00999906
)
;

boundaryField
{
    sides
    {
        type            zeroGradient;
    }
    inlet
    {
        type            zeroGradient;
    }
    outlet
    {
        type            fixedValue;
        value           uniform 0.01;
    }
    frontAndBack
    {
        type            empty;
    }
}


// ************************************************************************* //
