/*--------------------------------*- C++ -*----------------------------------*\
  =========                 |
  \\      /  F ield         | OpenFOAM: The Open Source CFD Toolbox
   \\    /   O peration     | Website:  https://openfoam.org
    \\  /    A nd           | Version:  9
     \\/     M anipulation  |
\*---------------------------------------------------------------------------*/
FoamFile
{
    format      ascii;
    class       volVectorField;
    location    "4";
    object      hU_0;
}
// * * * * * * * * * * * * * * * * * * * * * * * * * * * * * * * * * * * * * //

dimensions      [0 2 -1 0 0 0 0];

internalField   nonuniform List<vector> 
400
(
(0.000999108 -8.03214e-07 0)
(0.000999615 -6.88987e-07 0)
(0.000999943 -1.65518e-07 0)
(0.000998542 3.74759e-10 0)
(0.000998007 1.20171e-07 0)
(0.000998625 2.55286e-07 0)
(0.000999881 3.67353e-07 0)
(0.00100151 3.42267e-07 0)
(0.00100303 1.65583e-07 0)
(0.0010042 1.7121e-08 0)
(0.00100525 1.44898e-08 0)
(0.00100615 3.04876e-08 0)
(0.00100618 -9.67707e-08 0)
(0.00100502 -3.24438e-07 0)
(0.00100326 -3.16904e-07 0)
(0.00100198 -6.12732e-08 0)
(0.00100147 8.13632e-09 0)
(0.00100099 -9.42707e-08 0)
(0.00100049 1.88442e-08 0)
(0.00100056 -2.18659e-08 0)
(0.000999138 -2.17022e-06 0)
(0.000999744 -1.69728e-06 0)
(0.00100019 -2.88995e-07 0)
(0.000999141 1.51772e-07 0)
(0.000998766 4.12627e-07 0)
(0.000999248 7.71135e-07 0)
(0.00100015 1.09878e-06 0)
(0.00100134 1.04312e-06 0)
(0.00100261 6.73603e-07 0)
(0.00100384 3.82857e-07 0)
(0.00100504 4.25753e-07 0)
(0.00100598 5.07261e-07 0)
(0.00100598 2.08501e-07 0)
(0.00100489 -3.48015e-07 0)
(0.00100345 -3.53263e-07 0)
(0.00100219 1.86015e-07 0)
(0.00100143 2.99396e-07 0)
(0.001001 2.0325e-08 0)
(0.00100061 2.61816e-07 0)
(0.00100031 2.50182e-07 0)
(0.000999228 -2.94011e-06 0)
(0.000999973 -2.01612e-06 0)
(0.00100053 -2.90596e-07 0)
(0.000999975 7.37596e-08 0)
(0.000999807 1.52977e-07 0)
(0.00100008 5.38653e-07 0)
(0.0010005 8.44735e-07 0)
(0.00100109 8.03692e-07 0)
(0.0010021 4.40575e-07 0)
(0.0010034 2.04979e-07 0)
(0.00100477 3.90767e-07 0)
(0.00100577 5.69556e-07 0)
(0.00100572 2.16215e-07 0)
(0.00100474 -4.25572e-07 0)
(0.00100366 -5.17745e-07 0)
(0.00100242 -3.48269e-08 0)
(0.00100131 1.77354e-07 0)
(0.00100097 -1.31781e-08 0)
(0.00100078 2.36828e-07 0)
(0.00100021 2.30251e-07 0)
(0.000999522 -2.90692e-06 0)
(0.00100024 -1.55148e-06 0)
(0.00100076 3.03474e-08 0)
(0.00100075 8.75024e-08 0)
(0.00100084 -1.76859e-07 0)
(0.00100092 -4.33477e-08 0)
(0.00100082 2.08784e-07 0)
(0.00100094 2.40924e-07 0)
(0.00100161 3.29468e-08 0)
(0.00100302 -2.77865e-08 0)
(0.00100457 3.88012e-07 0)
(0.00100551 9.09217e-07 0)
(0.00100545 7.94237e-07 0)
(0.00100456 3.56973e-07 0)
(0.00100371 1.03289e-07 0)
(0.00100276 1.18144e-08 0)
(0.00100151 -3.73876e-09 0)
(0.00100097 6.62112e-09 0)
(0.00100095 1.58302e-07 0)
(0.00100015 1.55173e-07 0)
(0.000999929 -2.15253e-06 0)
(0.00100031 -6.8043e-07 0)
(0.00100083 4.94098e-07 0)
(0.00100125 1.13984e-07 0)
(0.00100147 -6.48085e-07 0)
(0.00100152 -1.02086e-06 0)
(0.00100116 -9.21695e-07 0)
(0.00100088 -8.88384e-07 0)
(0.00100132 -8.89669e-07 0)
(0.00100286 -6.58724e-07 0)
(0.00100476 -3.14805e-08 0)
(0.00100572 7.15524e-07 0)
(0.00100545 1.02235e-06 0)
(0.00100444 9.66624e-07 0)
(0.00100332 6.62972e-07 0)
(0.00100242 7.0907e-08 0)
(0.00100146 -1.25973e-07 0)
(0.00100095 1.68921e-07 0)
(0.00100101 3.27188e-07 0)
(0.00100036 2.16076e-07 0)
(0.00100027 -9.88033e-07 0)
(0.00100014 3.93914e-07 0)
(0.00100068 1.06801e-06 0)
(0.00100136 2.45352e-07 0)
(0.00100164 -1.07751e-06 0)
(0.00100171 -1.97623e-06 0)
(0.00100129 -2.2924e-06 0)
(0.00100085 -2.46671e-06 0)
(0.00100127 -2.33098e-06 0)
(0.00100294 -1.60711e-06 0)
(0.00100498 -1.75506e-07 0)
(0.001006 1.24767e-06 0)
(0.00100567 2.12068e-06 0)
(0.00100445 1.97676e-06 0)
(0.00100305 8.95002e-07 0)
(0.00100226 -3.85575e-07 0)
(0.00100178 -6.39432e-07 0)
(0.00100127 -4.77785e-08 0)
(0.00100101 1.64896e-07 0)
(0.00100039 5.60266e-08 0)
(0.00100047 5.29971e-08 0)
(0.000999806 1.27008e-06 0)
(0.00100027 1.52181e-06 0)
(0.00100102 3.88838e-07 0)
(0.00100133 -1.32548e-06 0)
(0.00100146 -2.73482e-06 0)
(0.00100104 -3.50667e-06 0)
(0.0010007 -4.2464e-06 0)
(0.00100162 -4.2922e-06 0)
(0.00100407 -3.78895e-06 0)
(0.00100659 -1.57852e-06 0)
(0.00100732 1.80465e-06 0)
(0.00100593 4.48274e-06 0)
(0.00100336 4.59319e-06 0)
(0.00100138 2.46248e-06 0)
(0.00100129 2.15449e-07 0)
(0.0010019 -1.76438e-07 0)
(0.00100167 4.49809e-07 0)
(0.00100109 6.68235e-07 0)
(0.00100064 3.25418e-07 0)
(0.00100047 6.01483e-07 0)
(0.000999425 1.59179e-06 0)
(0.000999763 1.62795e-06 0)
(0.00100048 4.68783e-07 0)
(0.00100072 -1.45436e-06 0)
(0.00100092 -3.11034e-06 0)
(0.00100038 -4.64345e-06 0)
(0.00100016 -5.59459e-06 0)
(0.00100137 -5.71367e-06 0)
(0.00100491 -3.67904e-06 0)
(0.00100948 -6.03026e-07 0)
(0.00101108 3.26214e-06 0)
(0.00100797 4.34622e-06 0)
(0.00100254 2.46858e-06 0)
(0.000999271 1.29104e-07 0)
(0.00100023 -8.35038e-07 0)
(0.00100227 -2.49057e-07 0)
(0.00100217 3.529e-07 0)
(0.00100088 3.69645e-07 0)
(0.00100051 1.12887e-07 0)
(0.00100039 6.28108e-07 0)
(0.000999117 1.27156e-06 0)
(0.000999258 1.30641e-06 0)
(0.000999746 4.82906e-07 0)
(0.000999805 -1.28391e-06 0)
(0.000999806 -2.85058e-06 0)
(0.000999411 -5.65953e-06 0)
(0.000999986 -9.54917e-06 0)
(0.00100326 -1.39795e-05 0)
(0.00100825 -1.5756e-05 0)
(0.00101221 2.41476e-06 0)
(0.00101123 1.80586e-05 0)
(0.00100461 1.63743e-05 0)
(0.000998847 5.72732e-06 0)
(0.00099795 -1.29804e-06 0)
(0.00100089 -1.7925e-06 0)
(0.00100308 3.52235e-07 0)
(0.00100235 1.23936e-06 0)
(0.00100085 7.83606e-07 0)
(0.00100084 7.18879e-08 0)
(0.00100019 2.87367e-07 0)
(0.000999249 5.13404e-07 0)
(0.00099845 5.79338e-07 0)
(0.00100012 3.06056e-07 0)
(0.000997672 -5.26596e-07 0)
(0.000999306 -1.10826e-06 0)
(0.000993327 -3.25653e-06 0)
(0.000995706 -6.24968e-06 0)
(0.000989862 -1.15803e-05 0)
(0.000915357 -1.29558e-05 0)
(0.000951522 -4.98832e-07 0)
(0.00101144 1.4611e-05 0)
(0.000993277 1.39178e-05 0)
(0.00098638 5.11005e-06 0)
(0.000991931 -9.46493e-07 0)
(0.000998677 -1.55381e-06 0)
(0.0010007 2.47425e-07 0)
(0.000999348 1.1618e-06 0)
(0.000998348 1.02089e-06 0)
(0.00100021 2.81856e-07 0)
(0.00100018 -2.13925e-07 0)
(0.000999251 -3.48161e-07 0)
(0.000998455 -3.5045e-07 0)
(0.00100013 -6.24004e-08 0)
(0.000997677 7.15237e-07 0)
(0.000999304 1.18813e-06 0)
(0.000993316 3.24076e-06 0)
(0.000995689 6.16638e-06 0)
(0.000989834 1.14614e-05 0)
(0.000915329 1.28364e-05 0)
(0.000951493 3.44572e-07 0)
(0.00101142 -1.47929e-05 0)
(0.000993265 -1.41224e-05 0)
(0.000986366 -5.3781e-06 0)
(0.00099192 6.29015e-07 0)
(0.000998677 1.16871e-06 0)
(0.00100071 -6.88442e-07 0)
(0.000999325 -1.70487e-06 0)
(0.000998306 -1.60362e-06 0)
(0.00100016 -1.04935e-06 0)
(0.00100038 -5.61672e-07 0)
(0.000999113 -1.12669e-06 0)
(0.000999266 -1.09245e-06 0)
(0.000999762 -2.40056e-07 0)
(0.000999826 1.47991e-06 0)
(0.000999833 2.95372e-06 0)
(0.000999433 5.66247e-06 0)
(0.001 9.47818e-06 0)
(0.00100327 1.38708e-05 0)
(0.00100824 1.5624e-05 0)
(0.00101218 -2.54404e-06 0)
(0.0010112 -1.82164e-05 0)
(0.00100453 -1.65805e-05 0)
(0.000998745 -5.98534e-06 0)
(0.000997843 9.8493e-07 0)
(0.00100075 1.42848e-06 0)
(0.00100293 -7.50531e-07 0)
(0.00100221 -1.74148e-06 0)
(0.00100066 -1.325e-06 0)
(0.00100067 -8.07654e-07 0)
(0.00100045 -5.5423e-07 0)
(0.000999413 -1.46331e-06 0)
(0.000999773 -1.42844e-06 0)
(0.00100049 -2.4335e-07 0)
(0.00100074 1.63474e-06 0)
(0.00100092 3.20649e-06 0)
(0.00100037 4.62552e-06 0)
(0.00100013 5.50067e-06 0)
(0.00100131 5.57996e-06 0)
(0.00100485 3.53712e-06 0)
(0.0010094 4.5662e-07 0)
(0.00101096 -3.43157e-06 0)
(0.00100783 -4.55963e-06 0)
(0.0010024 -2.69235e-06 0)
(0.000999138 -4.18439e-07 0)
(0.00100012 4.83214e-07 0)
(0.00100211 -1.37589e-07 0)
(0.00100195 -8.31676e-07 0)
(0.00100065 -8.67092e-07 0)
(0.00100024 -8.06839e-07 0)
(0.00100045 -1.92753e-08 0)
(0.00099979 -1.15204e-06 0)
(0.00100028 -1.34718e-06 0)
(0.00100105 -1.99496e-07 0)
(0.00100137 1.48552e-06 0)
(0.00100149 2.81682e-06 0)
(0.00100104 3.50979e-06 0)
(0.0010007 4.19007e-06 0)
(0.00100161 4.21802e-06 0)
(0.00100404 3.71332e-06 0)
(0.00100653 1.48687e-06 0)
(0.00100722 -1.91045e-06 0)
(0.00100578 -4.60889e-06 0)
(0.00100316 -4.7509e-06 0)
(0.00100114 -2.63773e-06 0)
(0.00100102 -4.70949e-07 0)
(0.00100162 -1.74791e-07 0)
(0.00100137 -9.02279e-07 0)
(0.00100076 -1.15452e-06 0)
(0.00100025 -1.01862e-06 0)
(0.00100026 1.01665e-06 0)
(0.00100013 -2.94725e-07 0)
(0.0010007 -9.12261e-07 0)
(0.00100141 -6.64953e-08 0)
(0.0010017 1.23319e-06 0)
(0.00100176 2.05286e-06 0)
(0.00100129 2.30676e-06 0)
(0.00100083 2.42655e-06 0)
(0.00100124 2.24808e-06 0)
(0.00100286 1.5027e-06 0)
(0.00100485 7.24831e-08 0)
(0.00100583 -1.37179e-06 0)
(0.00100547 -2.26543e-06 0)
(0.00100423 -2.14179e-06 0)
(0.0010028 -1.05916e-06 0)
(0.00100196 1.85234e-07 0)
(0.00100144 3.72418e-07 0)
(0.00100089 -3.21818e-07 0)
(0.00100059 -5.8965e-07 0)
(0.000999891 -6.80372e-07 0)
(0.000999922 2.17167e-06 0)
(0.00100029 7.68682e-07 0)
(0.00100086 -3.56654e-07 0)
(0.00100131 4.64014e-08 0)
(0.00100154 7.75819e-07 0)
(0.00100158 1.06326e-06 0)
(0.00100119 9.17162e-07 0)
(0.00100086 8.52265e-07 0)
(0.00100127 8.41097e-07 0)
(0.0010028 6.08352e-07 0)
(0.00100466 -2.56419e-08 0)
(0.00100556 -7.79104e-07 0)
(0.00100524 -1.09185e-06 0)
(0.00100419 -1.05718e-06 0)
(0.00100302 -7.87355e-07 0)
(0.00100203 -2.74639e-07 0)
(0.00100103 -1.69476e-07 0)
(0.00100045 -6.08091e-07 0)
(0.00100045 -7.92815e-07 0)
(0.000999725 -8.47487e-07 0)
(0.000999517 2.91879e-06 0)
(0.00100024 1.62547e-06 0)
(0.00100079 8.97003e-08 0)
(0.00100082 4.77287e-08 0)
(0.00100091 3.00324e-07 0)
(0.00100099 1.44189e-07 0)
(0.0010009 -1.72601e-07 0)
(0.00100096 -2.23411e-07 0)
(0.00100158 -2.31131e-08 0)
(0.00100293 1.99878e-08 0)
(0.00100443 -4.00976e-07 0)
(0.00100531 -9.08121e-07 0)
(0.0010052 -7.96182e-07 0)
(0.00100425 -4.01847e-07 0)
(0.00100334 -1.96608e-07 0)
(0.0010023 -1.48806e-07 0)
(0.00100099 -1.43605e-07 0)
(0.00100038 -3.07693e-07 0)
(0.00100036 -4.42296e-07 0)
(0.000999466 -6.43664e-07 0)
(0.000999234 2.96122e-06 0)
(0.000999988 2.05984e-06 0)
(0.00100057 3.49921e-07 0)
(0.00100006 -2.71181e-08 0)
(0.000999923 -1.37307e-07 0)
(0.00100017 -5.59202e-07 0)
(0.00100056 -9.43295e-07 0)
(0.00100112 -9.40478e-07 0)
(0.00100204 -5.85087e-07 0)
(0.00100331 -3.33939e-07 0)
(0.00100465 -5.08971e-07 0)
(0.00100557 -6.94711e-07 0)
(0.00100545 -3.35679e-07 0)
(0.00100438 2.59963e-07 0)
(0.00100325 2.85774e-07 0)
(0.00100193 -2.35995e-07 0)
(0.00100076 -4.08165e-07 0)
(0.0010003 -3.14423e-07 0)
(0.00100011 -5.8129e-07 0)
(0.000999293 -7.70941e-07 0)
(0.000999136 2.22198e-06 0)
(0.000999723 1.77244e-06 0)
(0.00100019 3.91748e-07 0)
(0.000999181 -2.35635e-08 0)
(0.000998837 -2.76853e-07 0)
(0.000999303 -6.48022e-07 0)
(0.00100021 -9.59791e-07 0)
(0.00100138 -9.12533e-07 0)
(0.00100263 -5.33951e-07 0)
(0.00100377 -2.30198e-07 0)
(0.00100487 -2.84168e-07 0)
(0.00100575 -3.78766e-07 0)
(0.00100568 -9.2046e-08 0)
(0.0010045 4.47798e-07 0)
(0.00100299 4.27176e-07 0)
(0.00100167 -1.66163e-07 0)
(0.00100084 -2.61946e-07 0)
(0.00100027 -1.32174e-08 0)
(0.000999847 -2.80672e-07 0)
(0.000999357 -4.68156e-07 0)
(0.000999105 8.0227e-07 0)
(0.000999601 6.41221e-07 0)
(0.000999962 8.74387e-08 0)
(0.000998604 -1.0164e-07 0)
(0.000998114 -2.58451e-07 0)
(0.000998761 -4.28123e-07 0)
(0.000999986 -5.60579e-07 0)
(0.00100155 -5.57812e-07 0)
(0.001003 -4.05028e-07 0)
(0.00100409 -2.81686e-07 0)
(0.00100508 -2.7861e-07 0)
(0.00100591 -2.75221e-07 0)
(0.00100585 -1.58027e-07 0)
(0.0010046 7.17083e-08 0)
(0.00100279 7.69463e-08 0)
(0.00100142 -1.8556e-07 0)
(0.00100087 -2.42313e-07 0)
(0.00100018 -1.44757e-07 0)
(0.000999645 -2.52818e-07 0)
(0.000999335 -3.6277e-07 0)
)
;

boundaryField
{
    sides
    {
        type            slip;
    }
    inlet
    {
        type            fixedValue;
        value           uniform (0.001 0 0);
    }
    outlet
    {
        type            zeroGradient;
    }
    frontAndBack
    {
        type            empty;
    }
}


// ************************************************************************* //
