/*--------------------------------*- C++ -*----------------------------------*\
  =========                 |
  \\      /  F ield         | OpenFOAM: The Open Source CFD Toolbox
   \\    /   O peration     | Website:  https://openfoam.org
    \\  /    A nd           | Version:  9
     \\/     M anipulation  |
\*---------------------------------------------------------------------------*/
FoamFile
{
    format      ascii;
    class       surfaceScalarField;
    location    "4";
    object      phi_0;
}
// * * * * * * * * * * * * * * * * * * * * * * * * * * * * * * * * * * * * * //

dimensions      [0 4 -1 0 0 0 0];

internalField   nonuniform List<scalar> 
760
(
5.00049e-06
-7.30856e-09
4.99882e-06
-4.88657e-09
4.99496e-06
-7.24387e-10
4.99118e-06
5.95473e-10
4.99148e-06
1.24404e-09
4.99593e-06
2.69026e-09
5.00393e-06
3.40653e-09
5.01195e-06
3.48605e-09
5.01732e-06
2.18711e-09
5.02142e-06
1.24885e-09
5.02788e-06
1.29319e-09
5.03381e-06
1.40327e-09
5.03111e-06
1.51118e-10
5.01987e-06
-1.90952e-09
5.01055e-06
-1.55992e-09
5.00865e-06
4.60351e-10
5.00692e-06
9.92661e-10
5.00292e-06
-3.51477e-10
5.00224e-06
9.5359e-10
7.96209e-10
5.00079e-06
-1.31585e-08
5.00003e-06
-8.40019e-09
4.99709e-06
-1.38382e-09
4.99488e-06
6.37588e-10
4.99489e-06
9.68457e-10
4.9983e-06
2.93214e-09
5.00421e-06
4.30634e-09
5.01006e-06
4.5456e-09
5.0152e-06
2.89296e-09
5.02049e-06
1.7216e-09
5.02738e-06
2.236e-09
5.03253e-06
2.66933e-09
5.02917e-06
7.76327e-10
5.02001e-06
-2.03758e-09
5.01289e-06
-2.1545e-09
5.00901e-06
4.60632e-10
5.0061e-06
1.1479e-09
5.00377e-06
-4.59878e-11
5.00244e-06
1.24185e-09
1.37353e-09
5.00136e-06
-1.53725e-08
5.0018e-06
-8.22781e-09
5.00011e-06
-6.35528e-10
4.99964e-06
4.80652e-10
4.99991e-06
1.73618e-10
5.00174e-06
1.05418e-09
5.00402e-06
2.56189e-09
5.0076e-06
2.74198e-09
5.01265e-06
1.52176e-09
5.01949e-06
8.38147e-10
5.027e-06
2.25946e-09
5.03079e-06
3.65908e-09
5.02639e-06
2.28459e-09
5.01993e-06
-4.67248e-10
5.01568e-06
-1.02663e-09
5.00956e-06
6.36807e-11
5.0045e-06
7.81417e-10
5.00498e-06
8.22505e-11
5.00293e-06
1.00553e-09
1.01133e-09
5.00251e-06
-1.37602e-08
5.00296e-06
-5.8592e-09
5.00286e-06
8.35285e-10
5.00435e-06
5.76569e-10
5.00512e-06
-1.79251e-09
5.00437e-06
-2.54266e-09
5.00452e-06
-1.53765e-09
5.00549e-06
-1.38745e-09
5.01034e-06
-1.91165e-09
5.01893e-06
-1.43696e-09
5.02671e-06
1.26137e-09
5.02857e-06
4.0309e-09
5.02354e-06
4.74007e-09
5.01932e-06
3.16071e-09
5.01804e-06
1.58091e-09
5.01134e-06
1.05398e-11
5.00456e-06
-5.20356e-10
5.00569e-06
4.68588e-10
5.00325e-06
1.12248e-09
6.98906e-10
5.00286e-06
-8.56873e-09
5.00307e-06
-1.16884e-09
5.00464e-06
3.46457e-09
5.00725e-06
6.62566e-10
5.00828e-06
-4.35861e-09
5.00705e-06
-7.33597e-09
5.00496e-06
-7.65268e-09
5.00437e-06
-7.93949e-09
5.00929e-06
-7.86959e-09
5.02001e-06
-5.98605e-09
5.02894e-06
-9.70702e-10
5.02789e-06
4.85696e-09
5.02146e-06
8.85944e-09
5.01749e-06
8.81869e-09
5.01673e-06
4.79566e-09
5.01113e-06
-4.91367e-10
5.00519e-06
-1.87137e-09
5.00551e-06
2.68777e-10
5.00345e-06
1.28144e-09
7.01452e-10
5.00178e-06
-2.16384e-09
5.00231e-06
4.44364e-09
5.00461e-06
6.39461e-09
5.00786e-06
1.17963e-09
5.00927e-06
-6.30919e-09
5.00814e-06
-1.24192e-08
5.00494e-06
-1.4947e-08
5.00429e-06
-1.65507e-08
5.00954e-06
-1.5419e-08
5.02182e-06
-1.20908e-08
5.03136e-06
-4.99184e-09
5.02813e-06
6.64434e-09
5.02001e-06
1.4677e-08
5.0162e-06
1.48817e-08
5.01604e-06
7.42934e-09
5.01241e-06
-7.83795e-10
5.00795e-06
-2.07313e-09
5.00536e-06
1.12658e-09
5.00307e-06
2.22225e-09
9.71389e-10
5.00011e-06
2.33725e-09
5.00032e-06
7.87996e-09
5.00269e-06
8.26175e-09
5.00594e-06
2.08322e-09
5.00758e-06
-7.54015e-09
5.0066e-06
-1.50253e-08
5.00329e-06
-2.10015e-08
5.00506e-06
-2.64583e-08
5.01582e-06
-2.79505e-08
5.03242e-06
-2.18246e-08
5.03803e-06
-4.1291e-09
5.02759e-06
1.62843e-08
5.0138e-06
2.72762e-08
5.01039e-06
2.0674e-08
5.01289e-06
5.67176e-09
5.01168e-06
-1.98273e-09
5.00889e-06
-1.36741e-09
5.00516e-06
1.91647e-09
5.00363e-06
2.40015e-09
9.82171e-10
4.99861e-06
3.71961e-09
4.99788e-06
7.87082e-09
4.99986e-06
7.81107e-09
5.00267e-06
2.4236e-09
5.00463e-06
-7.38477e-09
5.00331e-06
-1.48766e-08
4.9993e-06
-2.40582e-08
5.00061e-06
-3.31871e-08
5.01518e-06
-4.19855e-08
5.05556e-06
-5.33749e-08
5.05858e-06
4.85138e-10
5.032e-06
4.36965e-08
5.00664e-06
5.33722e-08
5.00539e-06
2.48479e-08
5.01152e-06
-1.75903e-09
5.01242e-06
-5.47721e-09
5.00918e-06
6.76399e-10
5.00418e-06
4.04558e-09
5.00275e-06
3.00867e-09
5.76021e-10
4.99765e-06
2.62994e-09
4.99584e-06
4.90727e-09
4.9966e-06
5.13721e-09
4.99804e-06
1.97933e-09
4.99816e-06
-5.35155e-09
4.99561e-06
-1.20394e-08
4.9945e-06
-2.73649e-08
5.00767e-06
-4.90093e-08
5.04606e-06
-7.71117e-08
5.06469e-06
-6.11462e-08
5.05896e-06
1.56069e-08
5.00622e-06
9.95185e-08
4.99807e-06
6.44219e-08
5.0066e-06
1.98024e-08
5.01133e-06
-9.01813e-09
5.01073e-06
-7.7187e-09
5.0087e-06
2.45991e-09
5.00516e-06
5.33221e-09
5.00448e-06
3.67951e-09
7.02016e-10
4.99753e-06
1.97546e-10
4.99482e-06
4.33934e-10
4.99552e-06
5.98705e-10
4.99629e-06
6.11176e-10
4.9926e-06
4.57095e-10
4.98158e-06
1.96758e-10
4.95195e-06
-6.01787e-11
4.90244e-06
-2.39757e-10
4.83054e-06
-3.3326e-10
4.78205e-06
-3.35252e-10
4.80845e-06
-4.2982e-10
4.91256e-06
-4.61826e-10
4.98152e-06
-4.44955e-10
5.00576e-06
-6.17431e-10
4.9944e-06
-8.64052e-10
4.98415e-06
-1.03692e-09
4.98808e-06
-1.1996e-09
4.99303e-06
-1.38266e-09
4.99837e-06
-1.43795e-09
-1.88923e-09
4.99755e-06
-2.27087e-09
4.99484e-06
-4.09427e-09
4.99554e-06
-4.02444e-09
4.99633e-06
-7.52649e-10
4.99259e-06
6.34245e-09
4.98155e-06
1.24849e-08
4.95187e-06
2.73016e-08
4.90234e-06
4.85804e-08
4.8304e-06
7.65103e-08
4.78184e-06
6.05765e-08
4.80844e-06
-1.66769e-08
4.91251e-06
-1.00422e-07
4.98143e-06
-6.5391e-08
5.00559e-06
-2.0942e-08
4.99442e-06
7.17216e-09
4.98414e-06
5.95518e-09
4.9881e-06
-4.72429e-09
4.99288e-06
-7.86244e-09
4.99812e-06
-6.3163e-09
-4.30373e-09
4.99769e-06
-3.42359e-09
4.99582e-06
-7.24349e-09
4.99667e-06
-6.77764e-09
4.99811e-06
-1.17935e-09
4.9983e-06
8.30465e-09
4.99574e-06
1.54004e-08
4.99458e-06
2.40535e-08
5.00769e-06
3.28159e-08
5.04597e-06
4.14274e-08
5.06478e-06
5.26914e-08
5.05876e-06
-1.20061e-09
5.00584e-06
-4.4502e-08
4.99753e-06
-5.43775e-08
5.00636e-06
-2.61399e-08
5.01056e-06
5.50062e-10
5.01001e-06
3.92819e-09
5.00789e-06
-2.68716e-09
5.00435e-06
-6.52702e-09
5.00363e-06
-5.62174e-09
-4.14607e-09
4.99855e-06
-2.14639e-09
4.99791e-06
-7.24492e-09
4.99997e-06
-7.30008e-09
5.00275e-06
-1.02932e-09
5.00469e-06
8.44446e-09
5.00328e-06
1.55722e-08
4.99917e-06
2.10796e-08
5.0004e-06
2.60835e-08
5.01492e-06
2.7381e-08
5.05516e-06
2.12345e-08
5.05813e-06
3.60734e-09
5.03142e-06
-1.70657e-08
5.00598e-06
-2.81984e-08
5.00453e-06
-2.16657e-08
5.01093e-06
-6.71997e-09
5.01181e-06
4.62608e-10
5.00822e-06
-1.15988e-10
5.00302e-06
-4.17527e-09
5.00153e-06
-4.89771e-09
-4.428e-09
5.00007e-06
2.34838e-09
5.00034e-06
-3.87483e-09
5.00285e-06
-5.57093e-09
5.00608e-06
-3.57629e-10
5.0078e-06
7.12547e-09
5.00665e-06
1.27265e-08
5.00332e-06
1.48855e-08
5.00503e-06
1.62303e-08
5.01573e-06
1.501e-08
5.03214e-06
1.16143e-08
5.03764e-06
4.45678e-09
5.02688e-06
-7.11676e-09
5.01293e-06
-1.53094e-08
5.0092e-06
-1.56744e-08
5.0116e-06
-8.18592e-09
5.01036e-06
-2.7102e-10
5.00748e-06
5.84616e-10
5.00351e-06
-3.23321e-09
5.00176e-06
-4.54752e-09
-4.28139e-09
5.00176e-06
8.7415e-09
5.00237e-06
1.63214e-09
5.00477e-06
-2.72629e-09
5.00816e-06
1.25242e-10
5.00952e-06
5.07343e-09
5.00829e-06
7.74977e-09
5.00493e-06
7.84974e-09
5.00413e-06
7.87675e-09
5.00924e-06
7.62709e-09
5.02138e-06
5.66585e-09
5.0306e-06
5.81622e-10
5.02713e-06
-5.2638e-09
5.019e-06
-9.4076e-09
5.01508e-06
-9.45966e-09
5.01464e-06
-5.56959e-09
5.01079e-06
-4.89449e-10
5.0062e-06
4.0996e-10
5.00331e-06
-2.42192e-09
5.00071e-06
-3.57343e-09
-3.80394e-09
5.00283e-06
1.38874e-08
5.00321e-06
6.34836e-09
5.00486e-06
-2.15982e-10
5.00762e-06
9.14561e-11
5.00858e-06
2.46196e-09
5.00726e-06
2.75607e-09
5.00498e-06
1.46523e-09
5.00419e-06
1.26189e-09
5.00907e-06
1.73263e-09
5.01962e-06
1.17285e-09
5.02829e-06
-1.53249e-09
5.02696e-06
-4.30071e-09
5.02035e-06
-4.9679e-09
5.01619e-06
-3.65005e-09
5.01498e-06
-2.2448e-09
5.00888e-06
-6.81048e-10
5.00307e-06
-4.5191e-10
5.00271e-06
-2.45574e-09
5.00049e-06
-3.15521e-09
-3.65482e-09
5.00257e-06
1.54068e-08
5.00308e-06
8.84103e-09
5.00314e-06
9.96031e-10
5.00471e-06
3.59886e-11
5.00536e-06
2.47991e-10
5.00485e-06
-8.04705e-10
5.00474e-06
-2.5852e-09
5.00547e-06
-2.88246e-09
5.01e-06
-1.75924e-09
5.01838e-06
-1.06637e-09
5.02584e-06
-2.33312e-09
5.02744e-06
-3.77704e-09
5.02218e-06
-2.4616e-09
5.01768e-06
3.35752e-11
5.016e-06
1.18992e-10
5.00867e-06
-1.00852e-09
5.00179e-06
-1.63082e-09
5.00287e-06
-1.78639e-09
5.00008e-06
-2.53413e-09
-3.50433e-09
5.0015e-06
1.32997e-08
5.00205e-06
8.67061e-09
5.0004e-06
1.58727e-09
5.00006e-06
-3.15746e-10
5.00057e-06
-8.54871e-10
5.00203e-06
-3.11932e-09
5.00419e-06
-4.51379e-09
5.00751e-06
-4.81614e-09
5.01233e-06
-3.0203e-09
5.01894e-06
-1.76296e-09
5.02621e-06
-2.37001e-09
5.02957e-06
-2.77984e-09
5.02473e-06
-9.35158e-10
5.01809e-06
1.78284e-09
5.01357e-06
1.4785e-09
5.00686e-06
-1.28239e-09
5.00121e-06
-1.90223e-09
5.00184e-06
-5.09004e-10
4.999e-06
-2.49156e-09
-3.46207e-09
5.00076e-06
7.69979e-09
5.00008e-06
5.04906e-09
4.99721e-06
9.13026e-10
4.99515e-06
-3.46592e-10
4.99518e-06
-9.66928e-10
4.99858e-06
-2.48521e-09
5.00445e-06
-3.27985e-09
5.0102e-06
-3.46846e-09
5.01511e-06
-2.24092e-09
5.01988e-06
-1.29196e-09
5.02628e-06
-1.34954e-09
5.03137e-06
-1.49763e-09
5.02739e-06
-2.53551e-10
5.01771e-06
1.51484e-09
5.01049e-06
1.2546e-09
5.00638e-06
-1.05756e-09
5.00263e-06
-1.04353e-09
5.00004e-06
-5.63795e-11
4.99816e-06
-1.67319e-09
-2.37592e-09
5.0005e-06
4.99897e-06
4.99518e-06
4.99155e-06
4.99205e-06
4.99659e-06
5.00434e-06
5.01195e-06
5.01695e-06
5.02075e-06
5.0269e-06
5.03238e-06
5.02923e-06
5.0176e-06
5.00794e-06
5.00584e-06
5.00368e-06
4.99849e-06
4.99738e-06
)
;

boundaryField
{
    sides
    {
        type            calculated;
        value           uniform 0;
    }
    inlet
    {
        type            calculated;
        value           nonuniform List<scalar> 
20
(
-5e-06
-5e-06
-5e-06
-5e-06
-5e-06
-5e-06
-5e-06
-5e-06
-5e-06
-5e-06
-5e-06
-5e-06
-5e-06
-5e-06
-5e-06
-5e-06
-5e-06
-5e-06
-5e-06
-5e-06
)
;
    }
    outlet
    {
        type            calculated;
        value           nonuniform List<scalar> 
20
(
5.00394e-06
5.00139e-06
4.99972e-06
4.99889e-06
5.00039e-06
5.00144e-06
5.00375e-06
5.00433e-06
5.00601e-06
5.00283e-06
5.00256e-06
5.00527e-06
5.00293e-06
5.00193e-06
4.99907e-06
4.99728e-06
4.99541e-06
4.99491e-06
4.9966e-06
4.99733e-06
)
;
    }
    frontAndBack
    {
        type            empty;
        value           nonuniform List<scalar> 0();
    }
}


// ************************************************************************* //
