/*--------------------------------*- C++ -*----------------------------------*\
  =========                 |
  \\      /  F ield         | OpenFOAM: The Open Source CFD Toolbox
   \\    /   O peration     | Website:  https://openfoam.org
    \\  /    A nd           | Version:  9
     \\/     M anipulation  |
\*---------------------------------------------------------------------------*/
FoamFile
{
    format      ascii;
    class       volVectorField;
    location    "4";
    object      U;
}
// * * * * * * * * * * * * * * * * * * * * * * * * * * * * * * * * * * * * * //

dimensions      [0 1 -1 0 0 0 0];

internalField   nonuniform List<vector> 
400
(
(0.0999832 -6.11922e-05 0)
(0.0999761 -6.02628e-05 0)
(0.100045 -1.2807e-05 0)
(0.099948 -3.90795e-06 0)
(0.0998859 -7.06805e-06 0)
(0.0998941 -4.90323e-07 0)
(0.0999202 1.60142e-05 0)
(0.0999573 2.5352e-05 0)
(0.100016 2.34997e-05 0)
(0.100142 2.06281e-05 0)
(0.10037 2.05814e-05 0)
(0.100604 7.42216e-06 0)
(0.100647 -1.96456e-05 0)
(0.100484 -3.45605e-05 0)
(0.100313 -2.3836e-05 0)
(0.100227 -4.21016e-06 0)
(0.100164 -1.97143e-06 0)
(0.100107 -1.01775e-05 0)
(0.100077 -2.00703e-06 0)
(0.10006 -7.53801e-06 0)
(0.0999969 -0.000170775 0)
(0.10001 -0.000160583 0)
(0.100063 -2.70577e-05 0)
(0.0999729 5.71571e-06 0)
(0.0999238 5.30554e-07 0)
(0.0999384 2.07349e-05 0)
(0.099956 6.22237e-05 0)
(0.0999696 8.65137e-05 0)
(0.100014 8.73557e-05 0)
(0.10014 8.83809e-05 0)
(0.100358 9.4237e-05 0)
(0.100564 6.54994e-05 0)
(0.100605 -3.16512e-06 0)
(0.100479 -4.41277e-05 0)
(0.100344 -1.75409e-05 0)
(0.100249 2.30257e-05 0)
(0.10016 2.25631e-05 0)
(0.100104 4.49263e-06 0)
(0.100086 1.7023e-05 0)
(0.100044 1.1642e-05 0)
(0.100009 -0.000253749 0)
(0.100047 -0.000225163 0)
(0.100087 -4.36322e-05 0)
(0.100015 -2.59771e-06 0)
(0.0999824 -1.87876e-05 0)
(0.0999998 -7.72286e-07 0)
(0.1 3.84115e-05 0)
(0.0999863 6.46953e-05 0)
(0.100019 7.49376e-05 0)
(0.100149 8.96198e-05 0)
(0.100348 0.000109293 0)
(0.100506 8.1675e-05 0)
(0.100537 -4.62127e-06 0)
(0.100469 -5.88958e-05 0)
(0.100381 -3.37137e-05 0)
(0.100268 -2.39264e-06 0)
(0.100146 4.62894e-06 0)
(0.100099 5.11055e-06 0)
(0.10009 1.37969e-05 0)
(0.100041 7.16608e-06 0)
(0.100016 -0.000289095 0)
(0.100077 -0.000223333 0)
(0.100107 -3.55904e-05 0)
(0.100066 -1.48721e-06 0)
(0.100056 -3.44563e-05 0)
(0.100069 -4.05735e-05 0)
(0.100047 -1.16232e-05 0)
(0.100013 1.53387e-05 0)
(0.10004 4.08975e-05 0)
(0.100175 7.37981e-05 0)
(0.100351 0.000115805 0)
(0.10045 0.000123274 0)
(0.100463 6.50016e-05 0)
(0.100449 1.77718e-05 0)
(0.100402 1.69781e-05 0)
(0.100288 -6.08647e-06 0)
(0.100168 -1.62821e-05 0)
(0.10011 5.57955e-06 0)
(0.100092 1.12142e-05 0)
(0.100038 4.15538e-06 0)
(0.100014 -0.000261452 0)
(0.100077 -0.000170322 0)
(0.100105 -1.47155e-05 0)
(0.100107 -4.78991e-06 0)
(0.100108 -6.73863e-05 0)
(0.100119 -0.000113457 0)
(0.100091 -0.000107043 0)
(0.100048 -8.38779e-05 0)
(0.10008 -4.76587e-05 0)
(0.100225 9.25875e-06 0)
(0.100399 7.13563e-05 0)
(0.100456 0.000110179 0)
(0.10043 0.000105755 0)
(0.100419 8.31593e-05 0)
(0.100358 5.41566e-05 0)
(0.100235 -7.04524e-06 0)
(0.100158 -2.51211e-05 0)
(0.100123 1.39442e-05 0)
(0.100092 3.23064e-05 0)
(0.100052 1.85139e-05 0)
(0.0999978 -0.000173867 0)
(0.100036 -7.90281e-05 0)
(0.100075 2.60167e-05 0)
(0.10012 -1.98841e-06 0)
(0.100131 -0.000109265 0)
(0.100142 -0.000194848 0)
(0.10012 -0.000227592 0)
(0.100084 -0.000228824 0)
(0.100137 -0.000191433 0)
(0.100296 -9.49816e-05 0)
(0.100453 4.86703e-05 0)
(0.100484 0.000167459 0)
(0.100436 0.000230542 0)
(0.100396 0.000195937 0)
(0.100312 6.90583e-05 0)
(0.100208 -5.74154e-05 0)
(0.100188 -7.38752e-05 0)
(0.100165 -1.53026e-05 0)
(0.100097 1.5093e-05 0)
(0.100051 7.61263e-06 0)
(0.0999727 -6.4119e-05 0)
(0.0999631 2.06217e-05 0)
(0.10001 7.03886e-05 0)
(0.100081 4.6588e-07 0)
(0.100101 -0.00014632 0)
(0.100121 -0.000277696 0)
(0.100106 -0.000351579 0)
(0.100099 -0.00040935 0)
(0.100217 -0.000396827 0)
(0.100466 -0.000325806 0)
(0.100662 -9.94801e-05 0)
(0.100637 0.000224059 0)
(0.100459 0.000478862 0)
(0.100256 0.000474244 0)
(0.100101 0.000232657 0)
(0.100089 -3.12854e-06 0)
(0.100198 -4.06462e-05 0)
(0.10021 2.65461e-05 0)
(0.100111 6.42953e-05 0)
(0.100073 3.80884e-05 0)
(0.0999477 1.73303e-05 0)
(0.0998802 8.66606e-05 0)
(0.0999235 9.60941e-05 0)
(0.100006 3.43959e-06 0)
(0.100025 -0.000171772 0)
(0.100056 -0.000329581 0)
(0.100038 -0.000478526 0)
(0.100057 -0.000561421 0)
(0.100221 -0.00055821 0)
(0.1006 -0.000332492 0)
(0.101011 -1.93677e-05 0)
(0.10107 0.00035838 0)
(0.100696 0.00046558 0)
(0.100156 0.000269826 0)
(0.0998362 6.95673e-06 0)
(0.0999375 -0.00011073 0)
(0.100219 -5.58315e-05 0)
(0.100271 1.19272e-05 0)
(0.100103 3.03757e-05 0)
(0.100059 1.40207e-05 0)
(0.0999322 4.59911e-05 0)
(0.0998143 9.07316e-05 0)
(0.0998384 8.92e-05 0)
(0.0999031 1.52031e-05 0)
(0.0999077 -0.000154318 0)
(0.0999209 -0.000307744 0)
(0.0999192 -0.000577717 0)
(0.100036 -0.000965152 0)
(0.100445 -0.00140325 0)
(0.101001 -0.00155226 0)
(0.10133 0.000268259 0)
(0.101103 0.00181498 0)
(0.10034 0.00165148 0)
(0.0997469 0.000606556 0)
(0.0996677 -0.000116469 0)
(0.0999884 -0.000200378 0)
(0.100297 4.35554e-06 0)
(0.100283 9.95221e-05 0)
(0.1001 7.28442e-05 0)
(0.100092 1.08476e-05 0)
(0.0999122 2.62276e-05 0)
(0.0998106 4.15046e-05 0)
(0.0997351 4.37934e-05 0)
(0.0999186 1.92403e-05 0)
(0.099677 -6.28901e-05 0)
(0.0998361 -0.000119893 0)
(0.0992633 -0.000326428 0)
(0.0995359 -0.000628152 0)
(0.0990088 -0.00116096 0)
(0.102032 -0.00142761 0)
(0.106308 -4.35795e-05 0)
(0.101278 0.00146038 0)
(0.0990837 0.00139596 0)
(0.0983505 0.000539435 0)
(0.099013 -7.83991e-05 0)
(0.0997865 -0.000168242 0)
(0.100071 -1.05286e-06 0)
(0.0999619 9.66507e-05 0)
(0.0998204 9.9323e-05 0)
(0.100016 3.30191e-05 0)
(0.0999132 -1.73684e-05 0)
(0.0998112 -2.44092e-05 0)
(0.099736 -2.07285e-05 0)
(0.0999202 6.37609e-06 0)
(0.0996785 8.39235e-05 0)
(0.0998367 0.000130625 0)
(0.0992632 0.000327146 0)
(0.0995353 0.000621591 0)
(0.099007 0.00115014 0)
(0.10203 0.00141533 0)
(0.106306 2.78555e-05 0)
(0.101277 -0.00147728 0)
(0.0990823 -0.00141685 0)
(0.0983486 -0.000567088 0)
(0.0990117 4.56994e-05 0)
(0.0997865 0.000129737 0)
(0.10007 -4.42071e-05 0)
(0.0999603 -0.000152724 0)
(0.0998186 -0.0001569 0)
(0.100011 -0.000108814 0)
(0.0999353 -3.93087e-05 0)
(0.099816 -7.53283e-05 0)
(0.0998415 -6.64378e-05 0)
(0.0999072 1.09077e-05 0)
(0.0999118 0.000176183 0)
(0.0999261 0.000321443 0)
(0.0999241 0.000580766 0)
(0.100041 0.000959626 0)
(0.100448 0.00139342 0)
(0.101004 0.00153983 0)
(0.101331 -0.000281 0)
(0.101101 -0.00183128 0)
(0.100333 -0.00167219 0)
(0.0997371 -0.000632815 0)
(0.0996584 8.51369e-05 0)
(0.0999748 0.0001629 0)
(0.100281 -4.30087e-05 0)
(0.10027 -0.000149667 0)
(0.100084 -0.000128273 0)
(0.100075 -8.56334e-05 0)
(0.0999532 -1.33411e-05 0)
(0.0998847 -7.32641e-05 0)
(0.0999295 -7.45717e-05 0)
(0.100013 2.08201e-05 0)
(0.100033 0.000193415 0)
(0.100062 0.000342464 0)
(0.100041 0.000479715 0)
(0.100058 0.000553751 0)
(0.100221 0.000545878 0)
(0.100598 0.000318479 0)
(0.101007 3.50454e-06 0)
(0.10106 -0.000376795 0)
(0.100684 -0.000486698 0)
(0.100143 -0.000292507 0)
(0.0998233 -3.60567e-05 0)
(0.0999287 7.56044e-05 0)
(0.100207 1.70003e-05 0)
(0.100249 -6.01846e-05 0)
(0.10008 -8.19085e-05 0)
(0.100032 -8.48111e-05 0)
(0.0999808 6.68393e-05 0)
(0.0999701 -8.97501e-06 0)
(0.100018 -5.23096e-05 0)
(0.100091 2.05765e-05 0)
(0.100113 0.00016604 0)
(0.100131 0.000288777 0)
(0.100113 0.000355076 0)
(0.100104 0.000406056 0)
(0.100222 0.000390073 0)
(0.100468 0.000317906 0)
(0.100659 8.94167e-05 0)
(0.10063 -0.00023572 0)
(0.100447 -0.000492102 0)
(0.100238 -0.000490037 0)
(0.10008 -0.000250651 0)
(0.100064 -2.29211e-05 0)
(0.100171 4.46109e-06 0)
(0.100179 -7.36457e-05 0)
(0.100078 -0.000114943 0)
(0.100034 -0.000108175 0)
(0.100008 0.000176105 0)
(0.100045 8.91169e-05 0)
(0.100086 -1.07535e-05 0)
(0.100135 2.23656e-05 0)
(0.100147 0.000127782 0)
(0.100156 0.000206033 0)
(0.10013 0.000231984 0)
(0.10009 0.000227454 0)
(0.100139 0.000184563 0)
(0.100294 8.42148e-05 0)
(0.100445 -6.00176e-05 0)
(0.100472 -0.000181337 0)
(0.10042 -0.00024618 0)
(0.100378 -0.000212429 0)
(0.100289 -8.6408e-05 0)
(0.10018 3.5005e-05 0)
(0.100157 4.66357e-05 0)
(0.100126 -2.25861e-05 0)
(0.100055 -5.67872e-05 0)
(0.100003 -7.09157e-05 0)
(0.100027 0.000263425 0)
(0.100088 0.000178716 0)
(0.100121 2.89573e-05 0)
(0.100127 2.23069e-05 0)
(0.100127 8.19613e-05 0)
(0.100136 0.000121213 0)
(0.100105 0.000107701 0)
(0.100057 8.09068e-05 0)
(0.100083 4.28259e-05 0)
(0.100226 -1.47928e-05 0)
(0.100394 -7.82319e-05 0)
(0.100445 -0.000117079 0)
(0.100416 -0.000113885 0)
(0.1004 -9.26802e-05 0)
(0.100332 -6.79137e-05 0)
(0.100199 -1.73569e-05 0)
(0.100117 -8.10401e-06 0)
(0.100075 -5.73315e-05 0)
(0.100038 -7.80202e-05 0)
(0.0999887 -8.42015e-05 0)
(0.100031 0.0002909 0)
(0.100091 0.000229699 0)
(0.100125 4.87747e-05 0)
(0.100087 1.55937e-05 0)
(0.100077 4.9245e-05 0)
(0.100089 5.32293e-05 0)
(0.100065 1.77549e-05 0)
(0.100026 -1.3003e-05 0)
(0.100048 -3.92334e-05 0)
(0.100175 -7.34237e-05 0)
(0.100343 -0.00011594 0)
(0.100436 -0.000122134 0)
(0.100445 -6.62177e-05 0)
(0.100425 -2.31971e-05 0)
(0.100365 -2.65839e-05 0)
(0.100239 -7.67804e-06 0)
(0.100119 -1.94648e-06 0)
(0.100056 -3.53664e-05 0)
(0.100032 -4.20408e-05 0)
(0.0999684 -5.4448e-05 0)
(0.100026 0.000256082 0)
(0.100065 0.000230226 0)
(0.100108 5.03083e-05 0)
(0.100041 8.6891e-06 0)
(0.100012 2.2575e-05 0)
(0.100025 1.27589e-06 0)
(0.100021 -4.55725e-05 0)
(0.100002 -7.74431e-05 0)
(0.100027 -8.97111e-05 0)
(0.100151 -0.000103147 0)
(0.100345 -0.000121093 0)
(0.100495 -9.42025e-05 0)
(0.100516 -9.31448e-06 0)
(0.10044 3.81361e-05 0)
(0.100347 9.43262e-06 0)
(0.100222 -2.22267e-05 0)
(0.100092 -2.69965e-05 0)
(0.100034 -3.99823e-05 0)
(0.100022 -4.96289e-05 0)
(0.0999521 -5.96194e-05 0)
(0.100016 0.000174614 0)
(0.100027 0.000169512 0)
(0.100082 3.88637e-05 0)
(0.0999955 9.00973e-06 0)
(0.0999493 1.34048e-05 0)
(0.0999615 -8.55689e-06 0)
(0.0999745 -4.88039e-05 0)
(0.0999852 -7.30681e-05 0)
(0.100026 -7.36853e-05 0)
(0.100145 -7.35287e-05 0)
(0.100352 -8.01147e-05 0)
(0.100548 -5.3301e-05 0)
(0.100579 1.50474e-05 0)
(0.100445 5.27516e-05 0)
(0.100304 2.34996e-05 0)
(0.100201 -2.09308e-05 0)
(0.100103 -1.58131e-05 0)
(0.100033 -6.18733e-06 0)
(0.100012 -1.71453e-05 0)
(0.0999497 -3.13618e-05 0)
(0.100005 5.98701e-05 0)
(0.0999984 5.58355e-05 0)
(0.10007 6.01968e-06 0)
(0.0999754 -5.45996e-06 0)
(0.0999149 -6.37324e-06 0)
(0.0999243 -1.86267e-05 0)
(0.0999485 -3.65284e-05 0)
(0.099979 -4.72437e-05 0)
(0.100029 -4.69339e-05 0)
(0.100146 -4.67812e-05 0)
(0.100365 -4.71347e-05 0)
(0.10059 -3.36587e-05 0)
(0.100623 -5.4665e-06 0)
(0.100449 1.01716e-05 0)
(0.100274 -1.11682e-06 0)
(0.10018 -2.06944e-05 0)
(0.10011 -2.0333e-05 0)
(0.10003 -1.51502e-05 0)
(0.0999991 -2.09485e-05 0)
(0.0999396 -3.12055e-05 0)
)
;

boundaryField
{
    sides
    {
        type            calculated;
        value           nonuniform List<vector> 
40
(
(0.100005 0 0)
(0.0999984 0 0)
(0.10007 0 0)
(0.0999754 0 0)
(0.0999149 0 0)
(0.0999243 0 0)
(0.0999485 0 0)
(0.099979 0 0)
(0.100029 0 0)
(0.100146 0 0)
(0.100365 0 0)
(0.10059 0 0)
(0.100623 0 0)
(0.100449 0 0)
(0.100274 0 0)
(0.10018 0 0)
(0.10011 0 0)
(0.10003 0 0)
(0.0999991 0 0)
(0.0999396 0 0)
(0.0999832 0 0)
(0.0999761 0 0)
(0.100045 0 0)
(0.099948 0 0)
(0.0998859 0 0)
(0.0998941 0 0)
(0.0999202 0 0)
(0.0999573 0 0)
(0.100016 0 0)
(0.100142 0 0)
(0.10037 0 0)
(0.100604 0 0)
(0.100647 0 0)
(0.100484 0 0)
(0.100313 0 0)
(0.100227 0 0)
(0.100164 0 0)
(0.100107 0 0)
(0.100077 0 0)
(0.10006 0 0)
)
;
    }
    inlet
    {
        type            calculated;
        value           nonuniform List<vector> 
20
(
(0.100054 0 0)
(0.100062 0 0)
(0.10007 0 0)
(0.100062 0 0)
(0.100032 0 0)
(0.0999827 0 0)
(0.0999332 0 0)
(0.099902 0 0)
(0.0998909 0 0)
(0.0998918 0 0)
(0.0998936 0 0)
(0.0998959 0 0)
(0.0999089 0 0)
(0.0999423 0 0)
(0.0999936 0 0)
(0.100045 0 0)
(0.100077 0 0)
(0.100088 0 0)
(0.100082 0 0)
(0.100073 0 0)
)
;
    }
    outlet
    {
        type            calculated;
        value           nonuniform List<vector> 
20
(
(0.100051 -7.53732e-06 0)
(0.100043 1.16419e-05 0)
(0.100052 7.16684e-06 0)
(0.100056 4.15611e-06 0)
(0.10007 1.85172e-05 0)
(0.100066 7.61375e-06 0)
(0.100084 3.80926e-05 0)
(0.100067 1.40219e-05 0)
(0.100099 1.08485e-05 0)
(0.100026 3.30224e-05 0)
(0.10002 -0.000108824 0)
(0.100081 -8.56392e-05 0)
(0.10004 -8.48181e-05 0)
(0.100044 -0.000108186 0)
(0.100017 -7.09257e-05 0)
(0.100006 -8.42163e-05 0)
(0.0999866 -5.4458e-05 0)
(0.0999639 -5.96264e-05 0)
(0.0999481 -3.13612e-05 0)
(0.0999288 -3.12021e-05 0)
)
;
    }
    frontAndBack
    {
        type            empty;
    }
}


// ************************************************************************* //
