# vtk DataFile Version 2.0
sampleSurface
ASCII
DATASET POLYDATA
POINTS 189 float
-4 0 0 -5 0 0 -5 0 1 -4 0
1 -3 0 0 -3 0 1 -2 0 0
-2 0 1 -1 0 0 -1 0 1 0
0 0 0 0 1 1 0 0 1 0
1 2 0 0 2 0 1 3 0 0
3 0 1 4 0 0 4 0 1 5
0 0 5 0 1 6 0 0 6 0
1 7 0 0 7 0 1 8 0 0
8 0 1 9 0 0 9 0 1 10
0 0 10 0 1 11 0 0 11 0
1 12 0 0 12 0 1 13 0 0
13 0 1 14 0 0 14 0 1 15
0 1 15 0 0 -5 0 2 -4 0
2 -3 0 2 -2 0 2 -1 0 2
0 0 2 1 0 2 2 0 2 3
0 2 4 0 2 5 0 2 6 0
2 7 0 2 8 0 2 9 0 2
10 0 2 11 0 2 12 0 2 13
0 2 14 0 2 15 0 2 -5 0
3 -4 0 3 -3 0 3 -2 0 3
-1 0 3 0 0 3 1 0 3 2
0 3 3 0 3 4 0 3 5 0
3 6 0 3 7 0 3 8 0 3
9 0 3 10 0 3 11 0 3 12
0 3 13 0 3 14 0 3 15 0
3 -5 0 4 -4 0 4 -3 0 4
-2 0 4 -1 0 4 0 0 4 1
0 4 2 0 4 3 0 4 4 0
4 5 0 4 6 0 4 7 0 4
8 0 4 9 0 4 10 0 4 11
0 4 12 0 4 13 0 4 14 0
4 15 0 4 -5 0 5 -4 0 5
-3 0 5 -2 0 5 -1 0 5 0
0 5 1 0 5 2 0 5 3 0
5 4 0 5 5 0 5 6 0 5
7 0 5 8 0 5 9 0 5 10
0 5 11 0 5 12 0 5 13 0
5 14 0 5 15 0 5 -5 0 6
-4 0 6 -3 0 6 -2 0 6 -1
0 6 0 0 6 1 0 6 2 0
6 3 0 6 4 0 6 5 0 6
6 0 6 7 0 6 8 0 6 9
0 6 10 0 6 11 0 6 12 0
6 13 0 6 14 0 6 15 0 6
-5 0 7 -4 0 7 -3 0 7 -2
0 7 -1 0 7 0 0 7 1 0
7 2 0 7 3 0 7 4 0 7
5 0 7 6 0 7 7 0 7 8
0 7 9 0 7 10 0 7 11 0
7 12 0 7 13 0 7 14 0 7
15 0 7 -5 0 8 -4 0 8 -3
0 8 -2 0 8 -1 0 8 0 0
8 1 0 8 2 0 8 3 0 8
4 0 8 5 0 8 6 0 8 7
0 8 8 0 8 9 0 8 10 0
8 11 0 8 12 0 8 13 0 8
14 0 8 15 0 8 
POLYGONS 160 800
4 0 1 2 3 4 4 0 3 5 4
6 4 5 7 4 8 6 7 9 4
10 8 9 11 4 12 10 11 13 4
14 12 13 15 4 16 14 15 17 4
18 16 17 19 4 20 18 19 21 4
22 20 21 23 4 24 22 23 25 4
26 24 25 27 4 28 26 27 29 4
30 28 29 31 4 32 30 31 33 4
34 32 33 35 4 36 34 35 37 4
38 36 37 39 4 40 41 38 39 4
3 2 42 43 4 5 3 43 44 4
7 5 44 45 4 9 7 45 46 4
11 9 46 47 4 13 11 47 48 4
15 13 48 49 4 17 15 49 50 4
19 17 50 51 4 21 19 51 52 4
23 21 52 53 4 25 23 53 54 4
27 25 54 55 4 29 27 55 56 4
31 29 56 57 4 33 31 57 58 4
35 33 58 59 4 37 35 59 60 4
39 37 60 61 4 62 40 39 61 4
43 42 63 64 4 44 43 64 65 4
45 44 65 66 4 46 45 66 67 4
47 46 67 68 4 48 47 68 69 4
49 48 69 70 4 50 49 70 71 4
51 50 71 72 4 52 51 72 73 4
53 52 73 74 4 54 53 74 75 4
55 54 75 76 4 56 55 76 77 4
57 56 77 78 4 58 57 78 79 4
59 58 79 80 4 60 59 80 81 4
61 60 81 82 4 83 62 61 82 4
64 63 84 85 4 65 64 85 86 4
66 65 86 87 4 67 66 87 88 4
68 67 88 89 4 69 68 89 90 4
70 69 90 91 4 71 70 91 92 4
72 71 92 93 4 73 72 93 94 4
74 73 94 95 4 75 74 95 96 4
76 75 96 97 4 77 76 97 98 4
78 77 98 99 4 79 78 99 100 4
80 79 100 101 4 81 80 101 102 4
82 81 102 103 4 104 83 82 103 4
85 84 105 106 4 86 85 106 107 4
87 86 107 108 4 88 87 108 109 4
89 88 109 110 4 90 89 110 111 4
91 90 111 112 4 92 91 112 113 4
93 92 113 114 4 94 93 114 115 4
95 94 115 116 4 96 95 116 117 4
97 96 117 118 4 98 97 118 119 4
99 98 119 120 4 100 99 120 121 4
101 100 121 122 4 102 101 122 123 4
103 102 123 124 4 125 104 103 124 4
106 105 126 127 4 107 106 127 128 4
108 107 128 129 4 109 108 129 130 4
110 109 130 131 4 111 110 131 132 4
112 111 132 133 4 113 112 133 134 4
114 113 134 135 4 115 114 135 136 4
116 115 136 137 4 117 116 137 138 4
118 117 138 139 4 119 118 139 140 4
120 119 140 141 4 121 120 141 142 4
122 121 142 143 4 123 122 143 144 4
124 123 144 145 4 146 125 124 145 4
127 126 147 148 4 128 127 148 149 4
129 128 149 150 4 130 129 150 151 4
131 130 151 152 4 132 131 152 153 4
133 132 153 154 4 134 133 154 155 4
135 134 155 156 4 136 135 156 157 4
137 136 157 158 4 138 137 158 159 4
139 138 159 160 4 140 139 160 161 4
141 140 161 162 4 142 141 162 163 4
143 142 163 164 4 144 143 164 165 4
145 144 165 166 4 167 146 145 166 4
148 147 168 169 4 149 148 169 170 4
150 149 170 171 4 151 150 171 172 4
152 151 172 173 4 153 152 173 174 4
154 153 174 175 4 155 154 175 176 4
156 155 176 177 4 157 156 177 178 4
158 157 178 179 4 159 158 179 180 4
160 159 180 181 4 161 160 181 182 4
162 161 182 183 4 163 162 183 184 4
164 163 184 185 4 165 164 185 186 4
166 165 186 187 4 167 166 187 188 
POINT_DATA 189
FIELD attributes 1
p 1 189 float
-2.25944e-13 -1.92002e-13 -1.89184e-13 -2.08374e-13 -2.42898e-13 -2.23833e-13 -2.22552e-13 -2.24398e-13 -2.04847e-13 -2.14797e-13 -1.92921e-13
-1.97307e-13 -2.00664e-13 -1.93225e-13 -1.89622e-13 -1.82646e-13 -1.58311e-13 -1.5982e-13 -1.25567e-13 -1.31014e-13 -1.09393e-13
-1.16005e-13 -1.00091e-13 -1.06752e-13 -8.17853e-14 -8.85322e-14 -8.77159e-14 -9.01683e-14 -1.01034e-13 -9.72919e-14 -8.39469e-14
-8.29295e-14 -6.57834e-14 -6.9456e-14 -4.88002e-14 -4.90674e-14 -1.50022e-14 -1.70565e-14 3.85308e-15 1.74206e-16 0
2.41196e-15 -1.98539e-13 -1.97955e-13 -2.05959e-13 -2.24169e-13 -2.24806e-13 -2.05462e-13 -1.88721e-13 -1.76491e-13 -1.59882e-13
-1.35465e-13 -1.19919e-13 -1.10803e-13 -9.68438e-14 -9.3683e-14 -9.0838e-14 -7.80228e-14 -6.8051e-14 -4.80323e-14 -2.10262e-14
-4.67212e-15 0 -2.02178e-13 -2.0303e-13 -2.11728e-13 -2.23303e-13 -2.24245e-13 -2.09377e-13 -1.89639e-13 -1.75127e-13
-1.59536e-13 -1.39987e-13 -1.23197e-13 -1.09328e-13 -9.76743e-14 -9.49214e-14 -8.91564e-14 -7.40074e-14 -5.72674e-14 -4.05813e-14
-2.32597e-14 -8.45952e-15 0 -1.90692e-13 -2.02488e-13 -2.22427e-13 -2.27484e-13 -2.18527e-13 -2.04448e-13 -1.87247e-13
-1.7187e-13 -1.62664e-13 -1.51224e-13 -1.30959e-13 -1.10428e-13 -9.89331e-14 -9.30612e-14 -8.38322e-14 -6.91404e-14 -5.15592e-14
-3.70989e-14 -2.63819e-14 -1.16075e-14 0 -2.00865e-13 -2.14692e-13 -2.31673e-13 -2.26223e-13 -2.04106e-13 -1.86924e-13
-1.80865e-13 -1.73961e-13 -1.69924e-13 -1.59689e-13 -1.34944e-13 -1.13252e-13 -1.01812e-13 -9.1699e-14 -7.68341e-14 -5.97701e-14
-4.73936e-14 -3.9882e-14 -3.11553e-14 -1.31447e-14 0 -1.98179e-13 -2.16256e-13 -2.33847e-13 -2.29854e-13 -2.05217e-13
-1.71934e-13 -1.70022e-13 -1.84613e-13 -1.82033e-13 -1.58532e-13 -1.30438e-13 -1.15484e-13 -1.04188e-13 -8.98195e-14 -7.38079e-14
-5.28552e-14 -3.83984e-14 -3.58013e-14 -3.17704e-14 -1.49916e-14 0 -1.7995e-13 -2.04194e-13 -2.30383e-13 -2.37805e-13
-2.17231e-13 -1.65819e-13 -1.56495e-13 -1.90794e-13 -1.91659e-13 -1.52229e-13 -1.25433e-13 -1.19587e-13 -1.08552e-13 -9.25786e-14
-7.48993e-14 -4.857e-14 -2.88387e-14 -2.81512e-14 -2.75273e-14 -1.58962e-14 0 -1.7753e-13 -2.01238e-13 -2.27872e-13
-2.37894e-13 -2.18809e-13 -1.62244e-13 -1.47805e-13 -1.89488e-13 -1.94406e-13 -1.49829e-13 -1.27132e-13 -1.24315e-13 -1.11426e-13
-9.78915e-14 -7.8373e-14 -4.65703e-14 -2.41108e-14 -2.46989e-14 -2.46384e-14 -1.5963e-14 -6.79301e-15 
