# vtk DataFile Version 2.0
sampleSurface
ASCII
DATASET POLYDATA
POINTS 189 float
-4 0 0 -5 0 0 -5 0 1 -4 0
1 -3 0 0 -3 0 1 -2 0 0
-2 0 1 -1 0 0 -1 0 1 0
0 0 0 0 1 1 0 0 1 0
1 2 0 0 2 0 1 3 0 0
3 0 1 4 0 0 4 0 1 5
0 0 5 0 1 6 0 0 6 0
1 7 0 0 7 0 1 8 0 0
8 0 1 9 0 0 9 0 1 10
0 0 10 0 1 11 0 0 11 0
1 12 0 0 12 0 1 13 0 0
13 0 1 14 0 0 14 0 1 15
0 1 15 0 0 -5 0 2 -4 0
2 -3 0 2 -2 0 2 -1 0 2
0 0 2 1 0 2 2 0 2 3
0 2 4 0 2 5 0 2 6 0
2 7 0 2 8 0 2 9 0 2
10 0 2 11 0 2 12 0 2 13
0 2 14 0 2 15 0 2 -5 0
3 -4 0 3 -3 0 3 -2 0 3
-1 0 3 0 0 3 1 0 3 2
0 3 3 0 3 4 0 3 5 0
3 6 0 3 7 0 3 8 0 3
9 0 3 10 0 3 11 0 3 12
0 3 13 0 3 14 0 3 15 0
3 -5 0 4 -4 0 4 -3 0 4
-2 0 4 -1 0 4 0 0 4 1
0 4 2 0 4 3 0 4 4 0
4 5 0 4 6 0 4 7 0 4
8 0 4 9 0 4 10 0 4 11
0 4 12 0 4 13 0 4 14 0
4 15 0 4 -5 0 5 -4 0 5
-3 0 5 -2 0 5 -1 0 5 0
0 5 1 0 5 2 0 5 3 0
5 4 0 5 5 0 5 6 0 5
7 0 5 8 0 5 9 0 5 10
0 5 11 0 5 12 0 5 13 0
5 14 0 5 15 0 5 -5 0 6
-4 0 6 -3 0 6 -2 0 6 -1
0 6 0 0 6 1 0 6 2 0
6 3 0 6 4 0 6 5 0 6
6 0 6 7 0 6 8 0 6 9
0 6 10 0 6 11 0 6 12 0
6 13 0 6 14 0 6 15 0 6
-5 0 7 -4 0 7 -3 0 7 -2
0 7 -1 0 7 0 0 7 1 0
7 2 0 7 3 0 7 4 0 7
5 0 7 6 0 7 7 0 7 8
0 7 9 0 7 10 0 7 11 0
7 12 0 7 13 0 7 14 0 7
15 0 7 -5 0 8 -4 0 8 -3
0 8 -2 0 8 -1 0 8 0 0
8 1 0 8 2 0 8 3 0 8
4 0 8 5 0 8 6 0 8 7
0 8 8 0 8 9 0 8 10 0
8 11 0 8 12 0 8 13 0 8
14 0 8 15 0 8 
POLYGONS 160 800
4 0 1 2 3 4 4 0 3 5 4
6 4 5 7 4 8 6 7 9 4
10 8 9 11 4 12 10 11 13 4
14 12 13 15 4 16 14 15 17 4
18 16 17 19 4 20 18 19 21 4
22 20 21 23 4 24 22 23 25 4
26 24 25 27 4 28 26 27 29 4
30 28 29 31 4 32 30 31 33 4
34 32 33 35 4 36 34 35 37 4
38 36 37 39 4 40 41 38 39 4
3 2 42 43 4 5 3 43 44 4
7 5 44 45 4 9 7 45 46 4
11 9 46 47 4 13 11 47 48 4
15 13 48 49 4 17 15 49 50 4
19 17 50 51 4 21 19 51 52 4
23 21 52 53 4 25 23 53 54 4
27 25 54 55 4 29 27 55 56 4
31 29 56 57 4 33 31 57 58 4
35 33 58 59 4 37 35 59 60 4
39 37 60 61 4 62 40 39 61 4
43 42 63 64 4 44 43 64 65 4
45 44 65 66 4 46 45 66 67 4
47 46 67 68 4 48 47 68 69 4
49 48 69 70 4 50 49 70 71 4
51 50 71 72 4 52 51 72 73 4
53 52 73 74 4 54 53 74 75 4
55 54 75 76 4 56 55 76 77 4
57 56 77 78 4 58 57 78 79 4
59 58 79 80 4 60 59 80 81 4
61 60 81 82 4 83 62 61 82 4
64 63 84 85 4 65 64 85 86 4
66 65 86 87 4 67 66 87 88 4
68 67 88 89 4 69 68 89 90 4
70 69 90 91 4 71 70 91 92 4
72 71 92 93 4 73 72 93 94 4
74 73 94 95 4 75 74 95 96 4
76 75 96 97 4 77 76 97 98 4
78 77 98 99 4 79 78 99 100 4
80 79 100 101 4 81 80 101 102 4
82 81 102 103 4 104 83 82 103 4
85 84 105 106 4 86 85 106 107 4
87 86 107 108 4 88 87 108 109 4
89 88 109 110 4 90 89 110 111 4
91 90 111 112 4 92 91 112 113 4
93 92 113 114 4 94 93 114 115 4
95 94 115 116 4 96 95 116 117 4
97 96 117 118 4 98 97 118 119 4
99 98 119 120 4 100 99 120 121 4
101 100 121 122 4 102 101 122 123 4
103 102 123 124 4 125 104 103 124 4
106 105 126 127 4 107 106 127 128 4
108 107 128 129 4 109 108 129 130 4
110 109 130 131 4 111 110 131 132 4
112 111 132 133 4 113 112 133 134 4
114 113 134 135 4 115 114 135 136 4
116 115 136 137 4 117 116 137 138 4
118 117 138 139 4 119 118 139 140 4
120 119 140 141 4 121 120 141 142 4
122 121 142 143 4 123 122 143 144 4
124 123 144 145 4 146 125 124 145 4
127 126 147 148 4 128 127 148 149 4
129 128 149 150 4 130 129 150 151 4
131 130 151 152 4 132 131 152 153 4
133 132 153 154 4 134 133 154 155 4
135 134 155 156 4 136 135 156 157 4
137 136 157 158 4 138 137 158 159 4
139 138 159 160 4 140 139 160 161 4
141 140 161 162 4 142 141 162 163 4
143 142 163 164 4 144 143 164 165 4
145 144 165 166 4 167 146 145 166 4
148 147 168 169 4 149 148 169 170 4
150 149 170 171 4 151 150 171 172 4
152 151 172 173 4 153 152 173 174 4
154 153 174 175 4 155 154 175 176 4
156 155 176 177 4 157 156 177 178 4
158 157 178 179 4 159 158 179 180 4
160 159 180 181 4 161 160 181 182 4
162 161 182 183 4 163 162 183 184 4
164 163 184 185 4 165 164 185 186 4
166 165 186 187 4 167 166 187 188 
POINT_DATA 189
FIELD attributes 1
U 3 189 float
20 0 0 20 0 0 20 0 0 20 -2.3614e-16
-3.24394e-16 20 0 0 20 -6.56629e-16 -1.42623e-15 20 0 0
20 -6.23105e-16 -1.4866e-15 20 0 0 20 -4.98595e-16 -1.10226e-15 20
0 0 20 -3.37607e-16 -9.89973e-16 20 0 0 20 -4.028e-17
-1.27826e-15 20 0 0 20 -6.17177e-17 -1.61327e-15 20 0 0
20 7.4858e-17 -1.55972e-15 20 0 0 20 5.83403e-16 -1.11295e-15 20
0 0 20 7.91825e-16 -5.14671e-16 20 0 0 20 7.65194e-16
-1.49823e-16 20 0 0 20 8.2085e-16 -2.77496e-17 20 0 0
20 8.68003e-16 -1.67044e-16 20 0 0 20 6.73444e-16 -5.71851e-16 20
0 0 20 2.6963e-16 -5.56597e-16 20 0 0 20 -1.30821e-16
-1.85356e-16 20 0 0 20 -3.16109e-16 7.53074e-17 20 0 0
20 1.73675e-16 2.08977e-16 20 0 0 20 3.05605e-16 1.76334e-16 20
2.45825e-17 1.78568e-16 20 1.39223e-16 1.74172e-16 20 0 0 20 -3.98158e-16
5.82878e-16 20 -8.99209e-16 3.25451e-16 20 -9.11901e-16 -2.81354e-16 20 -4.204e-16 -5.74548e-16
20 -3.09112e-17 -6.00391e-16 20 8.26176e-17 -7.04046e-16 20 -1.32645e-16 -9.64964e-16 20
2.39294e-17 -1.00565e-15 20 8.16659e-16 -4.16939e-16 20 1.06815e-15 2.28416e-17 20 9.44778e-16
9.41338e-17 20 6.6268e-16 4.65693e-17 20 3.60517e-16 -1.45836e-16 20 1.33474e-16 -4.34475e-16
20 1.63427e-16 -4.19323e-16 20 -6.39647e-18 -4.18687e-16 20 -5.69961e-16 -2.28848e-16 20
-4.5107e-16 -8.21663e-17 20 -1.81213e-16 -2.32065e-16 20 -1.671e-16 -1.37654e-16 20 0
0 20 -2.58895e-16 5.81903e-16 20 -4.24808e-16 1.23874e-15 20 -2.59584e-16 8.27908e-16
20 5.59884e-17 1.64576e-16 20 1.07347e-16 -1.86633e-16 20 -1.9155e-18 -2.76125e-16 20
6.80451e-17 -3.4441e-16 20 2.25135e-16 -3.61313e-16 20 5.51359e-16 -1.36974e-16 20 5.88899e-16
3.18844e-17 20 5.01379e-16 2.46074e-16 20 3.56049e-16 2.50239e-16 20 -1.00714e-16 3.77964e-17
20 -1.50338e-16 2.45077e-16 20 1.43661e-16 4.36769e-16 20 -1.9834e-16 1.89187e-16 20
-9.30215e-16 2.08774e-16 20 -8.03113e-16 2.56991e-16 20 -3.93772e-16 -4.8107e-17 20 -3.52273e-16
-2.11189e-16 20 0 0 20 -6.37656e-17 2.89452e-16 20 -1.06906e-16 9.43347e-16
20 -1.60855e-16 1.18552e-15 20 1.2287e-17 8.13519e-16 20 1.14073e-16 7.21816e-17 20
3.88388e-17 -1.56885e-16 20 2.11389e-16 -1.74048e-16 20 2.3696e-16 -4.11773e-16 20 1.76772e-16
-4.79959e-16 20 1.54868e-16 -1.8532e-16 20 -3.94495e-17 4.43065e-16 20 -7.8819e-17 7.54027e-16
20 -1.32654e-16 6.36914e-16 20 4.64729e-17 9.81581e-16 20 2.94427e-16 1.02978e-15 20
-1.79086e-16 6.08121e-16 20 -6.75704e-16 5.78515e-16 20 -6.67481e-16 8.60345e-16 20 -4.6737e-16
6.54214e-16 20 -3.83988e-16 1.97145e-16 20 0 0 20 1.99112e-16 2.09845e-16
20 8.58838e-17 4.49113e-16 20 -3.60448e-16 7.46318e-16 20 -1.55623e-16 7.60172e-16 20
2.07549e-16 -1.75092e-16 20 1.00526e-16 -7.5206e-16 20 -8.1428e-17 -4.6927e-16 20 -3.42906e-16
-2.3675e-16 20 -3.93961e-16 -1.86426e-16 20 -1.56735e-16 -1.50194e-16 20 -4.32813e-16 2.62306e-16
20 -4.98433e-16 6.4074e-16 20 -1.54712e-16 5.82252e-16 20 -2.17115e-17 4.61238e-16 20
1.31714e-16 8.12917e-17 20 -2.01817e-16 -3.03844e-16 20 -5.09993e-16 1.12907e-16 20 -5.31016e-16
7.98898e-16 20 -3.76671e-16 7.58741e-16 20 -1.26766e-16 4.7053e-16 20 0 0
20 4.42277e-16 -4.12584e-16 20 3.95026e-16 -4.65646e-16 20 1.94443e-16 -4.04707e-16 20
3.68911e-16 9.13458e-17 20 5.51839e-16 -1.99961e-16 20 2.00961e-16 -1.35616e-15 20 -2.86748e-16
-9.24932e-16 20 -7.42384e-16 2.14776e-16 20 -6.71231e-16 7.03328e-17 20 -3.40744e-16 -6.39755e-16
20 -6.12916e-16 -5.80745e-16 20 -7.09521e-16 3.5009e-17 20 -7.32656e-16 4.21278e-17 20
-8.77075e-16 -4.37514e-16 20 -3.8829e-16 -6.21067e-16 20 -2.51315e-16 -7.0668e-16 20 -6.90695e-16
-3.84717e-16 20 -7.67472e-16 -1.33828e-17 20 -5.14433e-16 -9.15718e-17 20 -2.58124e-16 -7.38258e-17
20 0 0 20 3.32044e-16 -4.23748e-16 20 5.00232e-16 -3.32229e-16 20
5.05801e-16 -5.65882e-16 20 6.65306e-16 -3.15971e-16 20 7.36378e-16 6.43789e-17 20 1.53707e-16
-9.32833e-16 20 -5.68418e-16 -8.71693e-16 20 -9.25151e-16 -7.65948e-17 20 -4.13549e-16 -4.20148e-16
20 -1.18439e-16 -8.9149e-16 20 -5.58812e-16 -8.12755e-16 20 -5.75889e-16 -1.72642e-16 20
-7.79451e-16 -4.9062e-17 20 -1.17071e-15 -2.67885e-16 20 -6.80603e-16 2.57328e-17 20 -1.90396e-16
-5.86587e-17 20 -6.26901e-16 -4.42291e-16 20 -1.05569e-15 -5.21408e-16 20 -8.16983e-16 -4.72846e-16
20 -4.86473e-16 -3.61563e-16 20 -3.88326e-17 0 20 1.90265e-16 0 20
5.14533e-16 0 20 4.93925e-16 0 20 6.59135e-16 0 20 7.03573e-16
0 20 -1.52692e-17 0 20 -7.75274e-16 0 20 -9.63094e-16 0
20 -1.94692e-16 0 20 7.06182e-17 0 20 -5.65171e-16 0 20
-4.25092e-16 0 20 -2.73079e-16 0 20 -7.16105e-16 0 20 -5.72605e-16
0 20 -8.51431e-17 0 20 -4.92762e-16 0 20 -1.18856e-15 0
20 -9.72929e-16 0 20 -5.4188e-16 -8.34916e-17 
