/*--------------------------------*- C++ -*----------------------------------*\
  =========                 |
  \\      /  F ield         | OpenFOAM: The Open Source CFD Toolbox
   \\    /   O peration     | Website:  https://openfoam.org
    \\  /    A nd           | Version:  9
     \\/     M anipulation  |
\*---------------------------------------------------------------------------*/
FoamFile
{
    format      ascii;
    class       volScalarField;
    location    "74";
    object      ddt0(h);
}
// * * * * * * * * * * * * * * * * * * * * * * * * * * * * * * * * * * * * * //

dimensions      [0 1 -1 0 0 0 0];

internalField   nonuniform List<scalar> 
400
(
-6.51044e-09
1.73106e-08
1.01576e-08
1.50063e-09
-6.45856e-09
-2.21651e-08
-6.09025e-09
1.05077e-08
2.16632e-08
1.83819e-08
8.83242e-09
1.1763e-08
8.09537e-09
1.10388e-08
2.09793e-08
2.79472e-08
2.19059e-08
1.49851e-08
1.90412e-08
1.0254e-08
1.04752e-08
4.54285e-09
-1.98413e-09
2.04695e-09
-9.46078e-09
-1.05974e-08
4.11953e-10
1.48225e-08
1.82458e-08
-5.15159e-09
8.75448e-09
-1.31777e-08
-6.60525e-09
-9.40783e-09
-6.20851e-10
1.77548e-08
2.00242e-08
1.09374e-08
7.58079e-10
-1.86617e-09
2.26008e-08
-1.32855e-08
-1.09273e-08
1.1378e-09
-2.74138e-09
5.40305e-09
1.61795e-08
1.2072e-09
-7.83321e-09
-3.06498e-08
-2.79065e-08
-5.52082e-09
-4.78724e-08
-3.49431e-08
-2.36871e-08
-9.55139e-09
7.10138e-09
8.6204e-09
-1.09882e-08
-1.1247e-08
1.38985e-08
-1.84061e-08
-1.17334e-08
6.00019e-09
5.87249e-09
2.75708e-08
2.34447e-10
-7.56253e-09
-9.38986e-08
1.91004e-08
-8.49853e-08
1.25606e-08
5.60057e-09
-5.53793e-08
-3.50605e-08
-2.50189e-08
-1.22689e-08
-5.15006e-09
-1.85244e-08
-1.3665e-08
-9.38268e-09
-1.58337e-08
4.33409e-09
8.28659e-09
1.9421e-08
1.70223e-08
-3.41769e-09
-7.8678e-08
-2.68551e-08
-3.19745e-08
1.53696e-07
-7.20564e-08
8.84614e-08
5.76068e-08
-3.15881e-08
-3.88585e-08
-2.29535e-08
-1.89229e-08
-2.08087e-08
-9.81186e-09
-2.91056e-08
-8.76784e-09
1.50936e-08
1.30404e-08
1.17947e-08
1.40166e-08
-3.6512e-08
-7.83889e-08
1.33688e-07
-8.43018e-08
1.08615e-07
1.24593e-07
-3.68103e-08
9.06083e-08
6.17993e-08
-1.4257e-08
-2.84657e-08
-1.84036e-08
-3.15079e-09
2.54342e-09
-3.07391e-08
-2.40997e-09
1.56713e-08
-1.37077e-09
6.77252e-09
4.97007e-09
-5.34978e-08
7.37214e-08
-2.93093e-08
2.92328e-07
-3.80492e-07
8.44877e-08
8.68675e-08
8.46467e-09
4.53085e-08
1.74272e-08
-1.06004e-08
-7.67525e-09
1.73143e-08
1.45881e-08
-1.64591e-08
4.56237e-09
-3.15823e-10
-1.49844e-08
-5.98225e-09
9.36348e-09
1.49863e-09
2.21077e-09
1.37843e-07
-1.89432e-07
-9.3866e-07
-3.63286e-07
-4.76324e-10
4.31035e-08
2.10614e-08
1.15627e-08
-5.94544e-09
6.90686e-09
2.97315e-08
1.87854e-08
1.51089e-09
5.08507e-09
-1.27353e-08
-2.68308e-08
-3.86337e-09
1.3572e-08
3.00343e-08
2.08646e-08
-1.53787e-07
1.77357e-07
8.89724e-07
3.63561e-07
-1.83387e-08
-5.73588e-08
-4.37847e-08
-1.86968e-08
-5.80318e-08
7.97456e-09
2.35636e-08
2.51478e-09
9.5739e-09
2.40657e-09
-1.96162e-08
-1.56941e-08
-1.0128e-08
1.10191e-08
4.47545e-08
-5.47225e-08
2.15756e-08
-2.80545e-07
3.8927e-07
-7.46124e-08
-8.52887e-08
-2.16578e-08
-4.1844e-08
-2.33052e-08
5.11036e-08
9.88534e-09
1.0583e-08
1.54657e-08
6.01092e-09
-1.71167e-10
-1.49587e-08
-5.43633e-09
-2.86876e-09
-1.96885e-08
2.39923e-08
3.49838e-08
-1.12163e-07
1.61625e-07
-1.57212e-07
-1.33599e-07
1.0553e-07
-5.68373e-08
-2.26962e-08
1.81814e-08
1.93738e-08
1.20689e-08
4.74012e-09
1.16762e-09
-3.2938e-09
1.13003e-09
-7.76983e-09
-9.53426e-10
-4.37376e-09
-1.81032e-08
-1.78512e-08
3.87796e-08
7.01133e-08
-2.39288e-07
5.76407e-06
-2.31759e-08
-1.08668e-07
-1.66769e-08
2.94869e-08
3.66519e-08
1.9806e-08
9.23561e-09
5.26098e-09
2.5717e-09
-1.26593e-08
4.77723e-09
8.05752e-10
-5.63051e-09
-7.21047e-09
-1.59805e-08
-6.35089e-09
2.24967e-08
-5.73816e-09
3.22477e-07
-5.9776e-06
1.28225e-07
2.92745e-08
9.37824e-09
2.7835e-08
2.45379e-08
1.22595e-08
2.33536e-09
7.0247e-09
5.89144e-09
-1.69996e-08
2.98782e-09
1.16893e-08
-1.0602e-08
-1.46804e-08
-1.09676e-08
2.60486e-09
1.0172e-08
5.56687e-08
-1.44665e-07
3.18416e-07
2.56988e-08
-3.76204e-08
1.64591e-08
4.41331e-09
1.11002e-08
8.94492e-09
-1.02772e-09
5.65841e-09
6.42015e-09
-1.53481e-08
-5.76042e-09
1.81078e-08
-1.31355e-09
-2.1576e-08
-5.28784e-09
1.42224e-09
2.06348e-08
6.9246e-09
1.17237e-08
-3.85879e-08
-3.37866e-08
1.83998e-08
-3.02105e-09
-8.54414e-10
5.14311e-09
6.93128e-09
-4.55587e-09
-6.53401e-09
-5.75306e-10
-7.16831e-09
-2.01859e-08
1.3624e-08
1.92943e-08
-9.3048e-09
-1.59106e-08
6.89874e-09
-1.05827e-08
1.4459e-08
2.12116e-09
1.90035e-08
1.09154e-08
6.51377e-09
1.44844e-08
-1.69079e-09
4.27479e-10
1.13763e-08
-6.77817e-09
-2.86081e-08
-1.59599e-08
2.07333e-09
-2.56208e-08
-3.69415e-09
3.35815e-08
1.41152e-08
-1.39002e-08
-1.70747e-08
-1.0995e-08
-1.7681e-08
-3.066e-09
6.12093e-09
2.26771e-09
2.06948e-08
1.30208e-08
8.08032e-09
8.52044e-09
9.79566e-09
-1.26675e-08
-4.35346e-08
-2.74817e-08
7.11877e-09
-1.38445e-08
-1.70124e-08
1.86523e-08
2.81218e-08
1.90134e-10
-2.32562e-08
-2.13798e-08
-2.24166e-08
-1.27772e-08
-1.46774e-08
-7.74857e-09
3.86988e-09
1.37314e-08
1.56863e-08
2.43877e-09
-3.02372e-09
-1.26924e-08
-3.40915e-08
-2.28607e-08
1.19785e-08
4.63897e-09
-1.57898e-08
-1.37074e-08
7.77794e-09
1.06656e-08
-5.41567e-10
-7.40027e-09
-1.21435e-09
-7.18223e-09
-2.74702e-08
-2.06204e-08
-8.88685e-09
4.38897e-09
7.44513e-10
-1.28601e-08
-1.44912e-08
2.87721e-10
5.45067e-09
1.04313e-09
1.69733e-08
1.88573e-08
-1.01471e-08
-3.62471e-08
-2.2522e-08
9.02582e-09
1.79381e-08
1.81069e-08
2.28423e-08
1.43347e-08
-3.91863e-09
-1.08199e-08
-4.20732e-09
-2.47099e-09
-7.0713e-09
-1.56035e-08
-1.13035e-08
2.20076e-08
4.54731e-08
2.37756e-08
)
;

boundaryField
{
    sides
    {
        type            calculated;
        value           nonuniform List<scalar> 
40
(
1.69733e-08
1.88573e-08
-1.01471e-08
-3.62471e-08
-2.2522e-08
9.02582e-09
1.79381e-08
1.81069e-08
2.28423e-08
1.43347e-08
-3.91863e-09
-1.08199e-08
-4.20732e-09
-2.47099e-09
-7.0713e-09
-1.56035e-08
-1.13035e-08
2.20076e-08
4.54731e-08
2.37756e-08
-6.51044e-09
1.73106e-08
1.01576e-08
1.50063e-09
-6.45856e-09
-2.21651e-08
-6.09025e-09
1.05077e-08
2.16632e-08
1.83819e-08
8.83242e-09
1.1763e-08
8.09537e-09
1.10388e-08
2.09793e-08
2.79472e-08
2.19059e-08
1.49851e-08
1.90412e-08
1.0254e-08
)
;
    }
    inlet
    {
        type            calculated;
        value           nonuniform List<scalar> 
20
(
-6.51044e-09
1.04752e-08
2.26008e-08
1.38985e-08
-9.38268e-09
-2.91056e-08
-3.07391e-08
-1.64591e-08
1.51089e-09
9.5739e-09
6.01092e-09
-3.2938e-09
-1.26593e-08
-1.69996e-08
-1.53481e-08
-7.16831e-09
2.07333e-09
7.11877e-09
1.19785e-08
1.69733e-08
)
;
    }
    outlet
    {
        type            calculated;
        value           uniform 0;
    }
    frontAndBack
    {
        type            empty;
    }
}


// ************************************************************************* //
