/*--------------------------------*- C++ -*----------------------------------*\
  =========                 |
  \\      /  F ield         | OpenFOAM: The Open Source CFD Toolbox
   \\    /   O peration     | Website:  https://openfoam.org
    \\  /    A nd           | Version:  9
     \\/     M anipulation  |
\*---------------------------------------------------------------------------*/
FoamFile
{
    format      ascii;
    class       volVectorField;
    location    "74";
    object      ddt0(hU);
}
// * * * * * * * * * * * * * * * * * * * * * * * * * * * * * * * * * * * * * //

dimensions      [0 2 -2 0 0 0 0];

internalField   nonuniform List<vector> 
400
(
(-1.45134e-09 4.61543e-10 0)
(9.27724e-10 1.85219e-10 0)
(1.87859e-09 1.3983e-09 0)
(1.98737e-09 2.29328e-10 0)
(1.18651e-09 3.16492e-10 0)
(2.19284e-12 -4.18937e-10 0)
(2.86749e-10 -4.78251e-10 0)
(-7.85313e-10 -2.16005e-09 0)
(-1.58059e-09 -1.26559e-09 0)
(-4.20004e-10 -1.28007e-09 0)
(-2.78695e-10 -1.00012e-09 0)
(5.81394e-10 1.02547e-09 0)
(1.4391e-09 1.07815e-09 0)
(3.86322e-09 1.84809e-09 0)
(4.42649e-09 5.37284e-10 0)
(4.83726e-09 5.18334e-10 0)
(6.95234e-09 -1.85304e-10 0)
(4.51682e-09 -1.59589e-09 0)
(2.12411e-09 -2.24481e-10 0)
(3.30676e-09 -1.66607e-10 0)
(-5.01681e-11 -5.12797e-10 0)
(9.53332e-11 1.05085e-09 0)
(1.19757e-09 3.58543e-09 0)
(1.38071e-09 1.0868e-09 0)
(3.52162e-10 4.05402e-10 0)
(-2.13442e-11 -1.33169e-09 0)
(-1.19412e-09 -2.92098e-09 0)
(-1.1938e-09 -4.36056e-09 0)
(-5.45997e-10 -3.18167e-09 0)
(-2.10996e-09 1.04998e-09 0)
(1.89032e-09 1.39566e-10 0)
(-3.50897e-10 4.51471e-09 0)
(3.62457e-10 6.69116e-09 0)
(1.51666e-09 5.76509e-09 0)
(1.45638e-09 3.42558e-09 0)
(3.43557e-09 1.89732e-09 0)
(4.28363e-09 -6.41466e-10 0)
(3.46021e-09 -2.67774e-09 0)
(1.55169e-09 -9.95527e-10 0)
(2.18839e-09 -1.46618e-10 0)
(2.66062e-09 -6.36325e-10 0)
(1.20956e-09 2.63806e-09 0)
(8.26043e-10 3.73495e-09 0)
(-1.39661e-10 1.2189e-09 0)
(-5.37338e-10 -7.57567e-10 0)
(-1.45471e-09 -3.00503e-09 0)
(-1.57709e-09 -5.00389e-09 0)
(-2.0742e-09 -2.80003e-09 0)
(1.95593e-09 1.44681e-09 0)
(-8.19124e-10 5.13925e-09 0)
(-8.35117e-10 1.00093e-08 0)
(4.12148e-09 4.18231e-09 0)
(-3.918e-09 1.41938e-08 0)
(-3.59739e-09 1.17983e-08 0)
(-2.58135e-09 6.62492e-09 0)
(-2.04604e-09 3.66373e-09 0)
(6.67503e-12 9.02885e-10 0)
(1.9635e-09 4.1779e-10 0)
(1.42646e-09 1.35787e-09 0)
(1.69493e-09 1.01636e-09 0)
(2.98319e-09 2.20714e-09 0)
(2.08215e-09 4.34404e-09 0)
(4.76789e-11 2.23534e-09 0)
(-1.0785e-09 -4.08228e-10 0)
(-1.86263e-09 -2.27346e-09 0)
(-1.69348e-09 -4.42002e-09 0)
(-2.60566e-09 -1.83435e-09 0)
(2.91997e-09 1.52605e-09 0)
(-2.27432e-09 1.41304e-08 0)
(1.04637e-08 -5.53174e-11 0)
(-8.56367e-09 9.63821e-09 0)
(4.07896e-09 5.79696e-09 0)
(8.08111e-09 2.57885e-09 0)
(-1.02007e-08 1.24276e-08 0)
(-8.24926e-09 8.97829e-09 0)
(-5.20676e-09 3.36596e-09 0)
(-3.40915e-09 1.53497e-09 0)
(1.86368e-10 3.55993e-09 0)
(1.77443e-10 5.12017e-09 0)
(-1.23272e-09 1.9486e-09 0)
(1.20948e-09 4.1678e-09 0)
(1.50336e-09 4.68327e-09 0)
(-8.46779e-10 7.87354e-10 0)
(-1.82046e-09 -1.50734e-09 0)
(-1.74242e-09 -2.60432e-09 0)
(-1.50378e-09 -1.49273e-09 0)
(4.92469e-10 1.83494e-09 0)
(5.68059e-09 1.41988e-08 0)
(9.1163e-10 2.56545e-09 0)
(-4.12521e-09 4.56745e-09 0)
(2.34029e-08 -1.74297e-08 0)
(-1.23479e-08 5.59298e-09 0)
(1.42759e-08 -9.12922e-09 0)
(1.31965e-08 -7.47036e-09 0)
(-1.00853e-08 2.5495e-09 0)
(-1.08475e-08 2.02115e-09 0)
(-4.34345e-09 4.27664e-10 0)
(2.34191e-10 3.37934e-09 0)
(-7.95896e-10 4.85964e-09 0)
(-4.24033e-09 1.62441e-09 0)
(-1.21682e-09 3.76096e-09 0)
(-4.7823e-11 2.85285e-09 0)
(-1.71497e-09 -6.28648e-11 0)
(-1.36954e-09 -6.68032e-10 0)
(-6.25265e-10 4.68561e-10 0)
(-3.73028e-10 2.08713e-09 0)
(7.17823e-09 8.15054e-09 0)
(-3.09727e-09 1.13779e-08 0)
(1.26611e-08 -1.04251e-08 0)
(-1.73072e-08 -5.91508e-09 0)
(1.05961e-08 -1.00982e-09 0)
(2.19458e-08 -3.30627e-08 0)
(-1.21453e-08 -6.80656e-09 0)
(1.69675e-08 -1.42376e-08 0)
(1.39886e-08 -1.03311e-08 0)
(-4.46423e-09 -3.1949e-09 0)
(-5.43003e-09 -1.68487e-09 0)
(3.55224e-10 3.03902e-10 0)
(9.17155e-10 9.7947e-10 0)
(-3.90235e-09 -7.38378e-11 0)
(-2.68327e-09 1.58499e-09 0)
(-1.87977e-09 2.69075e-10 0)
(-1.45795e-09 -2.62773e-10 0)
(2.46009e-10 1.58424e-09 0)
(4.18219e-10 3.55379e-09 0)
(3.16821e-09 5.08182e-09 0)
(2.79989e-09 6.56479e-09 0)
(2.60035e-09 -2.24757e-09 0)
(-1.512e-08 1.08324e-09 0)
(4.04574e-08 -3.72158e-08 0)
(-5.74991e-08 -2.55198e-11 0)
(-6.54033e-09 -2.00296e-08 0)
(3.20339e-08 -1.32757e-08 0)
(4.86995e-09 -1.05117e-09 0)
(1.1483e-08 -7.50274e-09 0)
(5.51066e-09 -7.52174e-09 0)
(-1.28107e-09 -5.47885e-09 0)
(1.00225e-09 -3.68108e-09 0)
(3.80554e-09 -3.08915e-09 0)
(3.00741e-10 -2.07784e-09 0)
(-2.74717e-09 -7.40727e-10 0)
(-2.85617e-09 -1.14644e-09 0)
(-3.52584e-10 2.98773e-10 0)
(2.05903e-09 2.94432e-09 0)
(1.72037e-09 3.74327e-09 0)
(6.30948e-10 4.86492e-09 0)
(1.97563e-09 -5.05357e-10 0)
(-6.91882e-10 -9.39977e-09 0)
(-1.88435e-08 4.08894e-10 0)
(-2.89108e-08 3.58359e-08 0)
(-7.76661e-08 -4.05727e-09 0)
(-4.39371e-08 3.86574e-08 0)
(9.14729e-09 2.48122e-08 0)
(1.88977e-08 1.17115e-08 0)
(5.52702e-09 4.05603e-09 0)
(1.97902e-09 -4.99936e-09 0)
(-6.57296e-10 -5.55834e-09 0)
(2.54963e-09 -4.49872e-09 0)
(6.81916e-09 -3.97924e-09 0)
(5.36687e-09 -2.10095e-09 0)
(-1.6912e-09 -1.60443e-09 0)
(-2.9829e-09 -7.53261e-10 0)
(9.91063e-10 1.56223e-09 0)
(3.19482e-09 2.3156e-09 0)
(1.79382e-09 1.24055e-09 0)
(-1.2805e-09 1.94184e-09 0)
(-4.59949e-09 -1.73204e-09 0)
(-2.17979e-09 -7.57141e-09 0)
(1.85295e-08 3.31915e-09 0)
(2.78343e-08 3.75714e-08 0)
(7.2234e-08 3.13273e-09 0)
(4.99011e-08 4.15693e-08 0)
(-8.69065e-09 2.43743e-08 0)
(-2.21292e-08 1.2537e-08 0)
(-1.21324e-08 4.82834e-09 0)
(-6.38399e-09 -1.52769e-09 0)
(-6.41518e-09 -2.37529e-09 0)
(2.06037e-09 -5.29176e-10 0)
(7.53114e-09 -1.62552e-09 0)
(6.63031e-09 -1.95877e-09 0)
(-8.06022e-10 -8.21764e-10 0)
(-2.18539e-09 5.31763e-10 0)
(1.51931e-09 2.10579e-09 0)
(3.06436e-09 1.06087e-09 0)
(1.33209e-09 -2.15691e-09 0)
(-2.7705e-09 -3.40574e-10 0)
(-4.14755e-09 2.21565e-09 0)
(-1.86983e-09 4.71121e-10 0)
(1.56159e-08 7.70014e-09 0)
(-3.57327e-08 -3.50054e-08 0)
(5.83412e-08 1.62687e-08 0)
(6.41708e-09 -2.43775e-08 0)
(-3.02996e-08 -1.42651e-08 0)
(-7.04422e-09 -2.31624e-09 0)
(-1.37524e-08 -5.56396e-09 0)
(-7.79314e-09 -7.96529e-10 0)
(5.67171e-09 3.24736e-09 0)
(2.5763e-09 4.63077e-09 0)
(3.50529e-09 2.30118e-09 0)
(8.3879e-09 -2.84643e-10 0)
(-5.68698e-10 1.53983e-10 0)
(-1.4541e-09 1.12823e-09 0)
(1.50659e-09 1.25828e-09 0)
(1.63997e-09 -2.22904e-10 0)
(7.07434e-10 -2.21645e-09 0)
(-3.00268e-10 -2.51326e-09 0)
(-4.54605e-09 3.67649e-09 0)
(4.87729e-09 7.50105e-09 0)
(-1.58755e-08 -5.85657e-09 0)
(3.26372e-08 -7.03453e-09 0)
(-1.63157e-08 -7.94682e-09 0)
(-3.5131e-08 -8.35383e-09 0)
(2.59147e-08 -8.99506e-09 0)
(-1.32514e-08 -1.32351e-08 0)
(-8.63087e-09 -5.88642e-09 0)
(6.5442e-09 2.19307e-09 0)
(6.88e-09 6.08132e-09 0)
(1.57968e-09 5.33191e-09 0)
(8.75829e-10 3.55749e-09 0)
(3.75448e-09 1.42276e-09 0)
(-9.48119e-10 2.15755e-10 0)
(-6.99316e-10 8.92382e-10 0)
(9.89676e-10 -1.32016e-10 0)
(7.25049e-10 -7.75285e-10 0)
(-3.09445e-10 -5.84009e-10 0)
(6.77838e-10 -1.32709e-09 0)
(2.70676e-10 -2.07652e-09 0)
(-1.86895e-09 5.80377e-09 0)
(2.84158e-09 -8.90754e-09 0)
(-3.46707e-08 1.22779e-08 0)
(6.05406e-07 -2.06672e-08 0)
(1.18093e-08 -1.49629e-08 0)
(-3.92178e-08 -9.55468e-09 0)
(-3.82154e-09 -1.13436e-08 0)
(8.33806e-09 2.38174e-10 0)
(1.00271e-08 3.92048e-09 0)
(6.28506e-09 2.66995e-09 0)
(1.05746e-09 1.99018e-09 0)
(-3.00083e-10 1.52329e-09 0)
(1.42822e-09 7.10284e-10 0)
(-1.05877e-09 -8.37844e-10 0)
(8.52703e-11 3.44128e-10 0)
(5.09583e-10 -7.74979e-10 0)
(3.34775e-11 -1.20704e-09 0)
(-2.84915e-10 7.24751e-10 0)
(-2.99596e-10 -1.47665e-10 0)
(6.91194e-10 -2.75055e-09 0)
(-2.62835e-09 -5.22931e-09 0)
(1.46852e-09 -2.11088e-09 0)
(3.99043e-08 3.03078e-09 0)
(-6.3671e-07 8.47026e-11 0)
(3.20227e-09 -1.0491e-08 0)
(2.42707e-08 -5.18919e-09 0)
(2.10427e-09 -7.16742e-10 0)
(1.07229e-08 1.38358e-09 0)
(8.91932e-09 1.98271e-09 0)
(5.25937e-09 2.97429e-10 0)
(1.50652e-09 -9.52545e-10 0)
(3.44999e-10 -2.0745e-10 0)
(4.83715e-10 4.42041e-10 0)
(-2.24242e-10 -2.07861e-09 0)
(1.27776e-09 -4.75722e-10 0)
(-1.73469e-12 -1.92114e-10 0)
(-5.28781e-10 -1.73809e-09 0)
(-3.47308e-10 5.71523e-11 0)
(-5.07642e-10 9.48405e-11 0)
(-1.02783e-09 -2.53716e-09 0)
(-3.77163e-09 -4.62102e-09 0)
(9.88715e-09 -3.2041e-10 0)
(-2.62403e-08 -7.98759e-09 0)
(3.72834e-08 -7.5974e-10 0)
(1.47061e-08 2.3118e-08 0)
(-1.95402e-08 5.64488e-10 0)
(4.89786e-09 2.95425e-09 0)
(6.48593e-09 2.55621e-09 0)
(5.23344e-09 2.75816e-09 0)
(3.82068e-09 1.24975e-09 0)
(2.42604e-09 -8.28244e-10 0)
(1.43639e-09 5.76245e-11 0)
(-8.9707e-10 7.77613e-10 0)
(1.33578e-09 -2.25911e-09 0)
(2.57048e-09 -1.57687e-09 0)
(-7.60777e-10 6.58448e-10 0)
(-1.5756e-09 -1.28946e-09 0)
(-5.07197e-11 -2.56211e-09 0)
(1.27882e-10 -1.42479e-09 0)
(-1.19378e-09 -2.71684e-09 0)
(-5.7104e-10 -2.18148e-09 0)
(-3.68652e-09 1.41355e-09 0)
(6.1789e-09 -4.07612e-09 0)
(-1.924e-09 1.76489e-08 0)
(-9.66898e-09 -1.01432e-08 0)
(2.18594e-09 2.15993e-09 0)
(2.55665e-09 3.53142e-09 0)
(4.95458e-09 3.29964e-09 0)
(4.18733e-09 3.94536e-09 0)
(3.03837e-09 3.74044e-09 0)
(3.09663e-09 1.33187e-09 0)
(5.86292e-10 5.92608e-10 0)
(-4.26175e-09 7.48365e-10 0)
(2.74484e-09 -1.20696e-09 0)
(3.11914e-09 -3.03276e-09 0)
(-1.39653e-09 5.09404e-11 0)
(-3.25475e-09 2.20275e-10 0)
(-2.67465e-10 -3.31597e-09 0)
(1.01262e-09 -4.44481e-09 0)
(9.46156e-10 -2.42674e-09 0)
(-1.53207e-09 -2.00691e-09 0)
(1.72038e-09 2.70267e-09 0)
(2.14794e-09 6.23337e-09 0)
(2.46291e-09 7.42446e-10 0)
(-1.06375e-09 5.43303e-09 0)
(8.57411e-10 4.89347e-09 0)
(4.64339e-09 4.72524e-09 0)
(3.34435e-09 3.53087e-09 0)
(2.95121e-09 4.6085e-09 0)
(3.57909e-09 5.50892e-09 0)
(2.44544e-09 1.90664e-09 0)
(-2.94449e-09 -1.50076e-09 0)
(-8.20952e-09 -8.40983e-10 0)
(2.71097e-09 2.33256e-10 0)
(2.41674e-09 -3.95606e-09 0)
(-1.51728e-09 -3.02642e-09 0)
(-3.8307e-09 1.23013e-09 0)
(-1.55642e-09 -1.81085e-10 0)
(2.21766e-09 -3.61938e-09 0)
(1.81047e-09 -3.268e-09 0)
(1.52783e-09 -9.38233e-10 0)
(-1.39482e-11 9.46628e-10 0)
(6.04402e-10 2.13784e-09 0)
(1.79299e-09 1.67239e-09 0)
(7.61079e-10 2.1629e-09 0)
(3.32188e-09 3.66859e-09 0)
(1.71889e-09 2.17951e-09 0)
(2.79635e-09 1.84728e-09 0)
(4.85569e-09 3.1293e-09 0)
(2.78729e-09 3.0755e-09 0)
(-1.11311e-09 -1.18594e-09 0)
(-6.36428e-09 -5.85325e-09 0)
(-8.28505e-09 -3.35785e-09 0)
(1.19963e-09 1.05199e-09 0)
(3.7849e-10 -3.67413e-09 0)
(-9.52281e-10 -6.0704e-09 0)
(-2.46186e-09 -1.8399e-10 0)
(-1.71724e-09 4.30123e-09 0)
(1.30306e-09 2.14146e-09 0)
(2.73897e-09 -1.26674e-09 0)
(1.84311e-09 -5.89221e-10 0)
(-8.22003e-10 -1.55197e-09 0)
(-6.37681e-10 -1.24062e-09 0)
(-7.56684e-10 -2.73822e-09 0)
(1.30614e-09 -2.3864e-09 0)
(2.25492e-09 -2.56073e-09 0)
(1.70102e-09 -2.76525e-09 0)
(3.4299e-09 -1.60078e-09 0)
(2.91766e-09 -2.6673e-09 0)
(-2.52264e-10 -4.17347e-09 0)
(-3.94952e-09 -6.89877e-09 0)
(-5.8635e-09 -9.58899e-09 0)
(-2.40023e-09 -4.78528e-09 0)
(-4.21291e-10 1.16514e-09 0)
(-2.36199e-09 -2.4928e-09 0)
(-6.65542e-10 -6.00931e-09 0)
(2.74933e-10 -2.21943e-09 0)
(1.39549e-11 5.2012e-09 0)
(5.58114e-10 6.37101e-09 0)
(2.33938e-09 2.87267e-09 0)
(1.79101e-09 3.45455e-10 0)
(-6.3759e-10 -7.68363e-10 0)
(-2.57179e-09 -2.88395e-09 0)
(-2.57067e-09 -4.9021e-09 0)
(5.1285e-10 -4.63876e-09 0)
(1.21816e-09 -5.92656e-09 0)
(9.60409e-10 -5.43068e-09 0)
(1.2389e-10 -5.48832e-09 0)
(-1.04088e-09 -7.15242e-09 0)
(-2.30733e-09 -8.25518e-09 0)
(-2.83505e-09 -8.66637e-09 0)
(1.01004e-09 -8.31449e-09 0)
(7.98784e-09 -3.59764e-09 0)
(-1.41075e-09 5.54905e-10 0)
(-4.3796e-09 -8.73811e-10 0)
(-8.43333e-10 -2.49665e-09 0)
(2.2929e-09 -1.40231e-09 0)
(1.79941e-09 2.07461e-09 0)
(7.70824e-10 3.43306e-09 0)
(1.79526e-09 2.19118e-09 0)
(2.23004e-09 7.52717e-10 0)
(-4.48461e-10 2.90998e-11 0)
(-3.07114e-09 -1.22061e-09 0)
(-1.361e-09 -2.30252e-09 0)
(1.14866e-09 -2.35021e-09 0)
(1.39287e-09 -2.9886e-09 0)
(5.64254e-11 -2.88764e-09 0)
(-1.82959e-09 -3.11336e-09 0)
(-2.41709e-09 -3.68935e-09 0)
(-1.67545e-09 -3.95012e-09 0)
(8.79453e-10 -3.59581e-09 0)
(7.96447e-09 -2.82736e-09 0)
(1.48573e-08 -1.11624e-09 0)
)
;

boundaryField
{
    sides
    {
        type            calculated;
        value           nonuniform List<vector> 
40
(
(-1.41075e-09 0 0)
(-4.3796e-09 0 0)
(-8.43333e-10 0 0)
(2.2929e-09 0 0)
(1.79941e-09 0 0)
(7.70824e-10 0 0)
(1.79526e-09 0 0)
(2.23004e-09 0 0)
(-4.48461e-10 0 0)
(-3.07114e-09 0 0)
(-1.361e-09 0 0)
(1.14866e-09 0 0)
(1.39287e-09 0 0)
(5.64254e-11 0 0)
(-1.82959e-09 0 0)
(-2.41709e-09 0 0)
(-1.67545e-09 0 0)
(8.79453e-10 0 0)
(7.96447e-09 0 0)
(1.48573e-08 0 0)
(-1.45134e-09 0 0)
(9.27724e-10 0 0)
(1.87859e-09 0 0)
(1.98737e-09 0 0)
(1.18651e-09 0 0)
(2.19284e-12 0 0)
(2.86749e-10 0 0)
(-7.85313e-10 0 0)
(-1.58059e-09 0 0)
(-4.20004e-10 0 0)
(-2.78695e-10 0 0)
(5.81394e-10 0 0)
(1.4391e-09 0 0)
(3.86322e-09 0 0)
(4.42649e-09 0 0)
(4.83726e-09 0 0)
(6.95234e-09 0 0)
(4.51682e-09 0 0)
(2.12411e-09 0 0)
(3.30676e-09 0 0)
)
;
    }
    inlet
    {
        type            calculated;
        value           uniform (0 0 0);
    }
    outlet
    {
        type            calculated;
        value           nonuniform List<vector> 
20
(
(3.30676e-09 -1.66607e-10 0)
(2.18839e-09 -1.46618e-10 0)
(1.69493e-09 1.01636e-09 0)
(-1.23272e-09 1.9486e-09 0)
(-4.24033e-09 1.62441e-09 0)
(-3.90235e-09 -7.38378e-11 0)
(3.00741e-10 -2.07784e-09 0)
(5.36687e-09 -2.10095e-09 0)
(6.63031e-09 -1.95877e-09 0)
(8.3879e-09 -2.84643e-10 0)
(3.75448e-09 1.42276e-09 0)
(1.42822e-09 7.10284e-10 0)
(4.83715e-10 4.42041e-10 0)
(-8.9707e-10 7.77613e-10 0)
(-4.26175e-09 7.48365e-10 0)
(-8.20952e-09 -8.40983e-10 0)
(-8.28505e-09 -3.35785e-09 0)
(-2.40023e-09 -4.78528e-09 0)
(7.98784e-09 -3.59764e-09 0)
(1.48573e-08 -1.11624e-09 0)
)
;
    }
    frontAndBack
    {
        type            empty;
    }
}


// ************************************************************************* //
