/*--------------------------------*- C++ -*----------------------------------*\
  =========                 |
  \\      /  F ield         | OpenFOAM: The Open Source CFD Toolbox
   \\    /   O peration     | Website:  https://openfoam.org
    \\  /    A nd           | Version:  9
     \\/     M anipulation  |
\*---------------------------------------------------------------------------*/
FoamFile
{
    format      ascii;
    class       surfaceScalarField;
    location    "74";
    object      ddtCorrDdt0(phi);
}
// * * * * * * * * * * * * * * * * * * * * * * * * * * * * * * * * * * * * * //

dimensions      [0 4 -2 0 0 0 0];

internalField   nonuniform List<scalar> 
760
(
-1.91585e-12
-5.81551e-12
-3.0618e-13
3.35089e-12
1.9761e-11
1.94294e-11
9.98734e-13
2.7725e-12
1.00086e-11
4.63455e-12
-4.27134e-13
-5.737e-12
2.78423e-12
-5.04861e-12
-1.4819e-11
-2.4182e-11
-4.74801e-12
-9.08573e-12
4.72331e-13
-3.26705e-12
2.65752e-13
-7.36939e-12
2.37929e-12
2.14112e-11
1.37436e-11
1.34361e-11
2.87164e-11
2.29077e-11
1.50631e-11
8.63601e-12
2.94475e-11
5.15644e-12
3.86565e-11
-4.53685e-12
7.23846e-12
-1.26165e-11
1.17537e-11
-4.63642e-12
4.09516e-12
-8.76605e-12
-1.12591e-11
9.54066e-12
9.22638e-12
7.03187e-12
2.32348e-11
2.83792e-12
8.94536e-12
3.82372e-12
4.44142e-13
-7.34497e-14
-9.66783e-12
-1.24581e-11
-2.62776e-11
-4.14865e-12
-2.17471e-11
-7.95392e-12
-1.86907e-11
-1.15702e-12
3.2753e-11
1.14464e-11
2.10317e-11
-1.05454e-11
3.78055e-11
1.18952e-11
6.22964e-11
8.09702e-12
4.32562e-11
1.03082e-11
3.12847e-11
1.88869e-11
1.83508e-11
1.88211e-11
4.5138e-13
1.40986e-11
-7.78141e-12
5.2565e-12
2.54384e-12
1.29459e-12
4.61852e-12
3.50111e-12
1.94652e-11
1.79891e-11
-5.9952e-12
1.57778e-11
-4.43821e-13
3.85827e-12
-1.97087e-12
-8.68267e-12
-1.27161e-11
-2.25735e-11
-1.18534e-11
-2.67336e-11
-7.2534e-12
-6.84093e-12
2.65498e-11
4.01722e-11
-2.73959e-11
3.152e-11
2.38953e-11
1.00108e-10
-3.13412e-12
8.22981e-12
-2.17772e-11
8.38046e-11
-1.21086e-11
7.64985e-11
-1.22396e-11
3.81721e-11
-6.95046e-12
2.29157e-11
3.79558e-13
1.23067e-11
1.08048e-11
1.29017e-11
1.20979e-11
1.78471e-11
6.6933e-12
1.62282e-11
1.93686e-11
1.71317e-11
2.7026e-11
-1.18143e-11
6.75418e-12
-4.53897e-12
-8.55894e-12
-9.907e-12
-1.55208e-11
-2.1962e-11
-2.37587e-11
-1.4707e-12
7.42822e-12
1.51744e-11
2.32661e-11
1.7381e-11
1.12489e-10
2.99729e-11
-2.7076e-11
-6.64116e-11
-2.48348e-11
8.24243e-11
4.56562e-11
-2.30647e-11
-6.14069e-11
-5.41196e-11
3.94763e-11
-2.7939e-11
4.71432e-11
-2.40108e-11
1.03196e-11
-1.25092e-11
3.73628e-12
7.82601e-12
1.9821e-11
6.36012e-13
2.56636e-11
8.66617e-12
2.13186e-11
2.37659e-11
2.32494e-12
2.19336e-11
-1.54588e-11
9.63737e-13
-1.94804e-12
-8.26654e-12
-2.09279e-11
-1.21686e-11
-2.46867e-12
9.4563e-12
-4.67496e-12
1.17165e-11
1.01238e-10
1.28488e-10
-1.0773e-10
-9.20617e-11
1.16514e-10
9.59577e-11
3.75227e-12
-2.05908e-10
-2.354e-11
-9.71806e-12
1.19059e-10
-2.94409e-11
-1.25982e-11
-1.21387e-10
-6.0807e-11
-3.76971e-11
-3.73931e-11
3.62541e-12
-1.04134e-11
-1.66658e-13
9.16174e-12
1.00095e-11
-1.19415e-11
1.53181e-11
3.38163e-12
1.57715e-11
1.46155e-11
-1.40043e-11
6.9947e-12
-1.31682e-11
-2.11402e-12
-1.06078e-12
8.85209e-13
-6.51682e-12
1.73586e-11
-1.45511e-11
1.33155e-11
9.97427e-11
7.58127e-11
-6.55818e-11
-2.63595e-11
7.70417e-11
-1.27127e-11
-1.47687e-10
-1.72443e-10
2.15493e-10
2.38871e-10
-5.18599e-11
-3.37791e-10
1.60767e-11
-2.50074e-11
1.07588e-10
-9.73635e-12
1.26395e-11
-7.23368e-11
-3.49694e-11
-4.33539e-11
-8.51792e-12
-2.20876e-11
1.37162e-11
-1.13138e-11
-9.49574e-12
-9.78001e-12
-7.85805e-12
1.42788e-12
2.81122e-13
-2.13127e-11
-6.37041e-12
-6.54481e-12
-1.00821e-12
1.56335e-11
1.57857e-11
-1.72955e-11
2.07165e-11
3.69897e-11
3.94448e-11
4.45558e-11
-9.12169e-12
-7.39896e-11
-2.88759e-12
1.70777e-11
3.23523e-12
1.27441e-10
-2.2312e-10
-3.97247e-10
-1.83634e-09
2.30392e-10
3.0944e-10
4.28807e-11
-8.14327e-11
4.3142e-11
6.17585e-12
5.28954e-11
5.75252e-12
1.03532e-12
-2.22432e-11
2.18108e-13
-3.30683e-11
1.79127e-11
-2.70202e-11
8.47387e-12
-2.47219e-11
-1.43154e-11
-1.40977e-11
-9.69866e-12
-1.85955e-11
-7.63199e-12
9.64529e-12
4.57513e-12
1.77711e-11
1.57985e-11
6.89199e-13
1.91238e-11
-1.71871e-12
6.56648e-12
3.06589e-11
6.04371e-13
-3.03023e-12
-8.16899e-11
-3.21171e-10
7.15515e-11
-6.65296e-11
6.57128e-10
-3.64543e-10
5.48954e-08
-1.18124e-10
-1.83332e-10
1.19718e-10
3.21465e-10
4.36493e-11
1.11579e-10
1.89064e-11
2.84314e-11
-1.10434e-12
-3.22404e-12
6.03898e-12
3.84633e-13
2.43066e-11
-1.34102e-11
2.97549e-11
-1.40608e-11
-8.37544e-12
-2.21686e-11
-8.05482e-12
-9.33561e-12
-9.04294e-13
1.94688e-11
1.21469e-11
2.28166e-11
6.99394e-12
-5.02423e-12
-6.57498e-12
-8.49103e-12
1.17326e-11
-5.30804e-11
-2.17423e-11
-1.11768e-11
3.86887e-11
3.46231e-10
7.00055e-12
1.95657e-11
-1.78258e-10
3.83571e-10
-1.45656e-09
1.38385e-10
3.07742e-10
-1.28571e-10
-1.09303e-10
-6.85081e-11
-2.99732e-11
-5.61071e-11
-1.52799e-11
-2.54922e-11
-4.18799e-12
-1.27618e-11
-1.11579e-09
2.33524e-11
1.6483e-11
3.8586e-11
7.93677e-12
7.22112e-10
-2.25373e-11
-6.73885e-13
2.23939e-12
6.64237e-12
2.00913e-11
9.58554e-12
1.01583e-11
7.25404e-13
9.89604e-12
-1.75439e-11
-3.74367e-11
-9.40005e-12
-4.27385e-11
4.84738e-11
6.79888e-11
-2.18824e-11
3.85023e-12
3.1285e-11
-1.11152e-10
-2.31117e-10
3.91008e-10
4.71734e-10
-2.29055e-10
-3.75278e-10
-3.28059e-11
-2.94844e-11
-6.65618e-11
-3.75677e-11
-6.24019e-11
-6.04015e-11
-2.55794e-12
-1.0271e-11
2.98312e-11
3.124e-11
6.74814e-12
3.11839e-11
2.75017e-11
2.11663e-11
8.0049e-12
-1.70078e-11
3.8387e-12
5.95035e-12
5.72142e-12
1.58072e-11
3.09317e-12
-4.23431e-12
-4.59673e-12
7.53079e-12
-5.87474e-12
7.94497e-12
-1.56691e-11
-6.95081e-11
1.53289e-12
8.63571e-11
9.0024e-11
-1.30958e-10
-1.46152e-10
3.0302e-10
2.35804e-10
-4.03617e-10
-1.51436e-09
1.41781e-10
2.32056e-10
5.47863e-12
-3.35916e-11
-8.34704e-11
-8.39443e-11
2.83195e-12
-2.5055e-11
4.47138e-11
2.37168e-11
2.1263e-11
2.47467e-11
-2.40232e-12
1.98035e-11
1.12095e-11
1.27123e-11
4.52189e-12
-1.01137e-11
-7.76697e-14
4.24666e-12
3.48869e-12
8.68208e-12
-4.97592e-12
-7.09436e-12
-2.53532e-12
1.7769e-12
1.3605e-12
1.17187e-11
-4.15161e-13
6.97018e-12
-2.42751e-11
-5.31721e-11
-1.05387e-11
3.09528e-11
6.34797e-11
1.24498e-09
-5.67433e-11
1.74533e-09
-4.14027e-08
-1.91638e-10
-4.12581e-10
-8.87771e-11
-2.00634e-11
1.88822e-11
-1.30568e-11
4.63093e-11
1.19962e-11
4.56245e-11
1.39593e-11
1.9795e-11
9.11777e-12
-4.94439e-12
-6.86548e-13
1.46754e-12
-1.57765e-14
1.58691e-12
1.14338e-12
-8.32012e-12
-3.47475e-12
-2.50268e-13
5.42823e-12
-3.67194e-12
-5.89899e-12
-8.56175e-12
2.56264e-12
7.64506e-12
3.23992e-12
-9.10481e-13
8.37652e-12
-1.00493e-11
-3.45429e-11
-3.57058e-11
1.02657e-10
-2.21843e-11
-1.41104e-09
1.20117e-10
-1.72828e-09
-9.06264e-10
1.89226e-10
2.96255e-10
1.03637e-11
-1.86123e-11
4.83902e-11
1.56928e-11
5.15143e-11
1.79379e-11
3.36687e-11
1.22231e-11
1.99303e-11
2.00247e-12
1.30129e-12
-7.24397e-12
3.07226e-13
-2.0423e-12
2.46032e-12
1.68731e-11
-1.27535e-11
-6.44983e-12
-3.94376e-12
-5.43177e-12
1.53181e-12
3.69125e-12
-9.71143e-12
-2.39832e-12
-5.99859e-12
2.47755e-12
2.18086e-12
-1.34996e-11
-1.56848e-11
-2.23052e-11
-9.18425e-12
5.93489e-11
8.70221e-12
-1.48614e-10
-1.4986e-10
3.32653e-10
2.53217e-10
-1.4142e-10
-1.18093e-10
-9.38675e-12
1.13612e-11
3.7003e-11
1.23067e-11
3.09774e-11
8.65975e-12
1.81667e-11
1.59203e-11
1.78886e-11
1.12517e-11
1.31355e-11
2.56234e-13
-8.04627e-13
3.67909e-12
5.66647e-12
3.19012e-11
-1.02994e-11
-1.97606e-12
-1.08089e-11
-2.09937e-11
6.14871e-12
3.23177e-12
-4.16263e-12
8.97915e-12
-2.1492e-11
-8.01365e-12
-1.5895e-11
-1.50456e-12
-1.00534e-11
-1.54603e-11
-1.0352e-11
-1.80283e-11
1.06091e-11
6.86203e-11
5.89911e-11
-7.51229e-11
-1.0733e-10
-6.82716e-12
2.88506e-11
8.22335e-12
1.59359e-11
2.32396e-11
2.05466e-11
2.79768e-11
2.2543e-11
1.13631e-11
2.17848e-11
1.4884e-11
2.43843e-11
1.98646e-11
1.21334e-11
-1.04237e-11
3.45422e-12
3.1615e-12
3.52413e-11
-2.3112e-12
1.04767e-11
-1.90281e-11
-3.41202e-11
-3.66467e-12
-1.15226e-11
6.26508e-12
1.69004e-11
-1.58801e-11
3.32681e-12
-3.03442e-11
-5.05234e-12
-1.18932e-11
-3.19456e-13
-6.72576e-12
7.69998e-12
1.76829e-11
2.11338e-11
1.9701e-11
-2.04805e-12
1.63194e-11
-6.49446e-12
1.8557e-11
1.68244e-11
3.03542e-11
2.1674e-11
2.41302e-11
1.87046e-11
1.19076e-11
1.34653e-11
2.13848e-11
1.17708e-11
2.8463e-11
1.16426e-11
8.25676e-12
-2.74375e-11
-1.48777e-11
-9.57046e-12
2.17959e-11
4.46372e-12
1.93482e-11
-2.10052e-11
-2.95662e-11
-2.58785e-11
-2.86831e-11
7.51776e-12
9.84176e-12
1.24076e-11
2.19143e-11
-8.96071e-12
-1.09115e-12
-2.07095e-11
1.23346e-11
-1.67258e-12
-6.56441e-12
-6.85575e-12
1.26155e-11
9.71515e-12
2.6579e-13
1.07594e-11
1.30717e-11
8.91956e-12
1.31448e-11
1.03657e-11
4.07221e-12
-5.52979e-13
2.67958e-11
7.12526e-12
2.16979e-11
7.65364e-12
-2.39264e-12
1.85785e-12
-1.14453e-11
-1.77203e-11
-3.45455e-11
-4.07271e-11
-2.29167e-11
1.20573e-15
5.6857e-12
1.16705e-11
-1.77524e-11
-7.00313e-12
-3.65597e-11
-2.71187e-11
-5.68709e-12
-3.21547e-12
3.60202e-11
1.82958e-11
3.04699e-11
1.71716e-11
3.23656e-12
5.65023e-13
-9.11865e-12
-6.22755e-12
-1.34373e-11
-3.26686e-12
-1.79718e-11
-8.95027e-13
-2.08865e-11
1.62779e-11
-1.88351e-11
3.61059e-12
-2.79247e-11
9.66396e-12
-2.22771e-11
2.14358e-11
-1.90978e-11
1.15888e-11
-3.06323e-11
-1.63527e-11
-4.03026e-11
-2.82529e-11
-5.04331e-11
-1.83672e-11
-5.7508e-11
-2.66883e-11
-1.97845e-11
4.54852e-12
-6.16125e-12
-1.10486e-11
9.94166e-12
-2.59884e-11
-4.96441e-13
-1.08422e-11
-6.6641e-12
2.77554e-11
6.56401e-12
3.74111e-11
1.83776e-11
1.75968e-11
3.57637e-12
-1.69362e-12
-1.41469e-11
-7.8432e-12
-1.53613e-11
-1.90086e-11
-4.3069e-13
-2.24197e-11
7.20269e-12
-2.85765e-11
3.00066e-12
-3.24086e-11
8.83128e-13
-2.81706e-11
-1.86147e-12
-2.95977e-11
-2.6095e-12
-3.64348e-11
-1.60943e-11
-4.14824e-11
-1.79514e-11
-4.29298e-11
2.49917e-11
-3.88161e-11
-1.48809e-11
-3.28192e-11
-1.94721e-11
1.56732e-11
2.23612e-11
-2.04799e-13
-1.46488e-12
1.5641e-11
8.03569e-12
-1.61476e-11
-1.65531e-11
7.56081e-12
7.87367e-12
3.59043e-12
-6.47501e-12
-1.24138e-11
-5.02498e-12
-2.88361e-12
5.31711e-12
5.82833e-11
)
;

boundaryField
{
    sides
    {
        type            calculated;
        value           uniform 0;
    }
    inlet
    {
        type            calculated;
        value           uniform 0;
    }
    outlet
    {
        type            calculated;
        value           nonuniform List<scalar> 
20
(
2.53685e-11
1.73925e-11
3.96752e-12
-1.62253e-11
-3.54516e-11
-3.19645e-11
-3.8766e-12
2.96492e-11
3.6152e-11
5.70219e-11
2.76998e-11
1.35203e-11
4.82445e-12
-8.77433e-12
-3.58013e-11
-6.23219e-11
-5.7618e-11
-1.11765e-11
5.84448e-11
1.02321e-10
)
;
    }
    frontAndBack
    {
        type            empty;
        value           nonuniform List<scalar> 0();
    }
}


// ************************************************************************* //
