/*--------------------------------*- C++ -*----------------------------------*\
  =========                 |
  \\      /  F ield         | OpenFOAM: The Open Source CFD Toolbox
   \\    /   O peration     | Website:  https://openfoam.org
    \\  /    A nd           | Version:  9
     \\/     M anipulation  |
\*---------------------------------------------------------------------------*/
FoamFile
{
    format      ascii;
    class       volVectorField;
    location    "74";
    object      hU;
}
// * * * * * * * * * * * * * * * * * * * * * * * * * * * * * * * * * * * * * //

dimensions      [0 2 -1 0 0 0 0];

internalField   nonuniform List<vector> 
400
(
(0.001 -2.41438e-08 0)
(0.00100004 -7.07381e-08 0)
(0.00100012 -1.13431e-07 0)
(0.00100024 -1.52532e-07 0)
(0.00100039 -1.87195e-07 0)
(0.00100058 -2.16526e-07 0)
(0.00100078 -2.36853e-07 0)
(0.00100099 -2.45689e-07 0)
(0.00100118 -2.36855e-07 0)
(0.00100133 -2.11751e-07 0)
(0.0010014 -1.688e-07 0)
(0.0010014 -1.28477e-07 0)
(0.00100129 -9.89869e-08 0)
(0.00100111 -9.32042e-08 0)
(0.00100087 -1.00061e-07 0)
(0.00100065 -1.35929e-07 0)
(0.00100044 -1.56679e-07 0)
(0.00100034 -2.01307e-07 0)
(0.00100026 -1.88848e-07 0)
(0.00100033 -2.68632e-07 0)
(0.001 -2.668e-08 0)
(0.00100005 -7.9236e-08 0)
(0.00100013 -1.28648e-07 0)
(0.00100026 -1.74332e-07 0)
(0.00100042 -2.13104e-07 0)
(0.00100062 -2.399e-07 0)
(0.00100084 -2.45951e-07 0)
(0.00100108 -2.21296e-07 0)
(0.0010013 -1.55896e-07 0)
(0.00100147 -4.85154e-08 0)
(0.00100156 9.34959e-08 0)
(0.00100154 2.48039e-07 0)
(0.00100141 3.9017e-07 0)
(0.00100119 4.76757e-07 0)
(0.00100093 5.04499e-07 0)
(0.00100067 4.51169e-07 0)
(0.00100048 3.78048e-07 0)
(0.00100037 2.568e-07 0)
(0.00100033 2.04495e-07 0)
(0.00100029 8.05342e-08 0)
(0.001 -5.27559e-08 0)
(0.00100004 -1.59505e-07 0)
(0.00100013 -2.67374e-07 0)
(0.00100026 -3.74105e-07 0)
(0.00100043 -4.73493e-07 0)
(0.00100065 -5.55292e-07 0)
(0.0010009 -6.04004e-07 0)
(0.00100117 -5.98757e-07 0)
(0.00100143 -5.19073e-07 0)
(0.00100164 -3.51885e-07 0)
(0.00100176 -1.08682e-07 0)
(0.00100176 1.64151e-07 0)
(0.00100159 4.04074e-07 0)
(0.00100131 5.2141e-07 0)
(0.00100095 4.99646e-07 0)
(0.00100062 3.53456e-07 0)
(0.00100037 2.02955e-07 0)
(0.00100026 4.61207e-08 0)
(0.00100022 -3.76394e-09 0)
(0.0010003 -1.17616e-07 0)
(0.001 -7.36363e-08 0)
(0.00100004 -2.22675e-07 0)
(0.00100013 -3.756e-07 0)
(0.00100026 -5.31264e-07 0)
(0.00100045 -6.80989e-07 0)
(0.00100069 -8.10129e-07 0)
(0.001001 -8.89424e-07 0)
(0.00100134 -8.8608e-07 0)
(0.00100171 -7.54926e-07 0)
(0.00100203 -4.74541e-07 0)
(0.00100222 -2.06269e-08 0)
(0.00100219 4.95698e-07 0)
(0.00100192 9.39521e-07 0)
(0.00100146 1.14199e-06 0)
(0.00100097 1.05565e-06 0)
(0.00100058 7.43151e-07 0)
(0.00100041 4.24097e-07 0)
(0.00100035 1.70643e-07 0)
(0.0010004 1.01929e-07 0)
(0.00100035 -1.1213e-11 0)
(0.001 -9.07321e-08 0)
(0.00100004 -2.78121e-07 0)
(0.00100012 -4.77891e-07 0)
(0.00100025 -6.95185e-07 0)
(0.00100044 -9.2152e-07 0)
(0.00100072 -1.13941e-06 0)
(0.00100109 -1.29864e-06 0)
(0.00100155 -1.33579e-06 0)
(0.00100207 -1.17405e-06 0)
(0.00100257 -7.77297e-07 0)
(0.0010029 -1.6969e-07 0)
(0.00100288 5.8146e-07 0)
(0.00100244 1.23239e-06 0)
(0.00100167 1.51267e-06 0)
(0.00100086 1.37608e-06 0)
(0.00100031 9.65043e-07 0)
(0.00100013 5.8197e-07 0)
(0.00100021 3.15322e-07 0)
(0.00100036 2.62297e-07 0)
(0.00100043 1.67661e-07 0)
(0.001 -1.02734e-07 0)
(0.00100003 -3.18512e-07 0)
(0.00100009 -5.63225e-07 0)
(0.00100019 -8.46162e-07 0)
(0.00100038 -1.17365e-06 0)
(0.00100068 -1.52499e-06 0)
(0.00100115 -1.85801e-06 0)
(0.00100179 -2.05201e-06 0)
(0.00100254 -1.91141e-06 0)
(0.00100326 -1.19988e-06 0)
(0.00100377 8.38493e-08 0)
(0.00100378 1.54151e-06 0)
(0.00100309 2.43417e-06 0)
(0.00100192 2.3042e-06 0)
(0.00100082 1.42948e-06 0)
(0.00100019 4.92351e-07 0)
(0.00100017 1.37057e-08 0)
(0.00100037 -8.45299e-08 0)
(0.00100064 6.03927e-08 0)
(0.00100055 4.97887e-08 0)
(0.001 -1.01813e-07 0)
(0.001 -3.33474e-07 0)
(0.00100002 -6.03103e-07 0)
(0.00100008 -9.6349e-07 0)
(0.00100021 -1.39324e-06 0)
(0.00100048 -1.94601e-06 0)
(0.001001 -2.48809e-06 0)
(0.00100188 -3.08356e-06 0)
(0.00100321 -3.23377e-06 0)
(0.00100473 -2.88265e-06 0)
(0.00100573 -6.67903e-07 0)
(0.00100536 2.55428e-06 0)
(0.0010035 4.8271e-06 0)
(0.00100112 4.73568e-06 0)
(0.000999609 3.02691e-06 0)
(0.000999371 1.26307e-06 0)
(0.00100001 4.31157e-07 0)
(0.00100056 3.27296e-07 0)
(0.00100093 5.61836e-07 0)
(0.00100066 5.33575e-07 0)
(0.000999995 -9.18384e-08 0)
(0.000999969 -2.88716e-07 0)
(0.000999908 -5.77998e-07 0)
(0.000999876 -9.5802e-07 0)
(0.000999879 -1.57828e-06 0)
(0.0010001 -2.34471e-06 0)
(0.0010005 -3.40216e-06 0)
(0.00100153 -4.12592e-06 0)
(0.00100308 -4.37456e-06 0)
(0.00100602 -2.54919e-06 0)
(0.0010091 7.50234e-07 0)
(0.00100914 4.26879e-06 0)
(0.00100551 4.71984e-06 0)
(0.00100074 2.78185e-06 0)
(0.000998151 7.34041e-07 0)
(0.000998274 -2.75947e-07 0)
(0.000999798 -2.86131e-07 0)
(0.00100088 -9.52529e-09 0)
(0.00100133 2.11541e-07 0)
(0.00100085 1.02443e-07 0)
(0.000999995 -4.8737e-08 0)
(0.000999915 -2.03709e-07 0)
(0.000999757 -3.87049e-07 0)
(0.000999532 -7.35758e-07 0)
(0.000999288 -1.33929e-06 0)
(0.000999211 -2.4817e-06 0)
(0.000999707 -4.68774e-06 0)
(0.00100139 -8.0698e-06 0)
(0.00100491 -1.32868e-05 0)
(0.00100958 -1.49118e-05 0)
(0.0010119 3.83951e-06 0)
(0.00100894 1.87318e-05 0)
(0.00100221 1.57828e-05 0)
(0.000997565 5.74188e-06 0)
(0.000996885 -3.16719e-07 0)
(0.000998461 -1.26425e-06 0)
(0.00100027 -9.47143e-08 0)
(0.001001 6.34535e-07 0)
(0.00100107 6.51158e-07 0)
(0.00100054 2.43219e-07 0)
(0.000999803 -1.95882e-08 0)
(0.00100017 -6.6466e-08 0)
(0.000999216 -1.51396e-07 0)
(0.000999905 -2.48982e-07 0)
(0.000997522 -5.93074e-07 0)
(0.000998844 -1.13224e-06 0)
(0.000993347 -2.88402e-06 0)
(0.000997531 -5.59273e-06 0)
(0.000991668 -1.15412e-05 0)
(0.000915831 -1.27071e-05 0)
(0.00095147 2.76673e-07 0)
(0.00101022 1.46382e-05 0)
(0.000990948 1.3084e-05 0)
(0.000983973 5.14099e-06 0)
(0.000989585 1.94048e-07 0)
(0.000996281 -7.81246e-07 0)
(0.000999237 -1.11236e-07 0)
(0.000999413 2.48493e-07 0)
(0.000998648 1.73853e-07 0)
(0.000998505 -1.85211e-07 0)
(0.000999804 1.30036e-08 0)
(0.00100017 4.615e-08 0)
(0.000999216 1.17813e-07 0)
(0.000999903 2.00008e-07 0)
(0.000997519 5.28713e-07 0)
(0.000998839 1.05022e-06 0)
(0.000993339 2.78593e-06 0)
(0.00099752 5.47449e-06 0)
(0.00099165 1.13981e-05 0)
(0.000915811 1.25498e-05 0)
(0.00095143 -4.7722e-07 0)
(0.0010102 -1.49071e-05 0)
(0.000990947 -1.34083e-05 0)
(0.000983966 -5.53558e-06 0)
(0.000989567 -6.47666e-07 0)
(0.000996244 2.49036e-07 0)
(0.000999196 -4.71818e-07 0)
(0.000999367 -1.00221e-06 0)
(0.000998634 -9.88712e-07 0)
(0.000998455 -8.88522e-07 0)
(0.000999995 4.23765e-08 0)
(0.000999915 1.84032e-07 0)
(0.000999756 3.53914e-07 0)
(0.000999531 6.87598e-07 0)
(0.000999286 1.27623e-06 0)
(0.000999211 2.4006e-06 0)
(0.000999703 4.58813e-06 0)
(0.00100139 7.94308e-06 0)
(0.0010049 1.31316e-05 0)
(0.00100957 1.47184e-05 0)
(0.00101192 -4.06151e-06 0)
(0.00100891 -1.9007e-05 0)
(0.00100214 -1.6097e-05 0)
(0.000997478 -6.12326e-06 0)
(0.000996816 -8.37818e-08 0)
(0.000998402 7.75733e-07 0)
(0.00100017 -4.27465e-07 0)
(0.00100085 -1.3056e-06 0)
(0.00100088 -1.37959e-06 0)
(0.00100037 -1.2506e-06 0)
(0.000999996 8.58115e-08 0)
(0.000999968 2.70047e-07 0)
(0.000999906 5.45453e-07 0)
(0.000999871 9.10756e-07 0)
(0.000999871 1.51365e-06 0)
(0.00100008 2.26078e-06 0)
(0.00100048 3.29272e-06 0)
(0.00100149 3.99024e-06 0)
(0.00100303 4.21061e-06 0)
(0.00100595 2.36333e-06 0)
(0.00100899 -9.74807e-07 0)
(0.00100905 -4.54152e-06 0)
(0.00100543 -5.02095e-06 0)
(0.00100067 -3.12988e-06 0)
(0.00099806 -1.13147e-06 0)
(0.000998136 -2.51803e-07 0)
(0.000999622 -3.23787e-07 0)
(0.00100064 -7.4281e-07 0)
(0.00100106 -9.67739e-07 0)
(0.00100055 -1.07371e-06 0)
(0.001 9.60743e-08 0)
(0.001 3.155e-07 0)
(0.00100002 5.72377e-07 0)
(0.00100007 9.18338e-07 0)
(0.0010002 1.33369e-06 0)
(0.00100047 1.87014e-06 0)
(0.00100097 2.39767e-06 0)
(0.00100185 2.97423e-06 0)
(0.00100318 3.11169e-06 0)
(0.00100469 2.73237e-06 0)
(0.00100568 5.03376e-07 0)
(0.00100527 -2.75102e-06 0)
(0.00100338 -5.07657e-06 0)
(0.00100097 -5.06974e-06 0)
(0.000999411 -3.44878e-06 0)
(0.000999123 -1.79419e-06 0)
(0.000999745 -1.02206e-06 0)
(0.00100025 -1.06065e-06 0)
(0.00100061 -1.30772e-06 0)
(0.00100024 -1.51532e-06 0)
(0.001 9.73982e-08 0)
(0.00100003 3.02376e-07 0)
(0.00100008 5.36246e-07 0)
(0.00100018 8.0673e-07 0)
(0.00100036 1.12149e-06 0)
(0.00100066 1.45822e-06 0)
(0.00100112 1.77684e-06 0)
(0.00100174 1.9502e-06 0)
(0.00100248 1.78302e-06 0)
(0.00100317 1.03547e-06 0)
(0.00100366 -2.78856e-07 0)
(0.00100363 -1.78242e-06 0)
(0.00100292 -2.70982e-06 0)
(0.00100171 -2.63055e-06 0)
(0.00100058 -1.77795e-06 0)
(0.000999905 -8.95075e-07 0)
(0.000999859 -4.27864e-07 0)
(0.000999982 -4.49287e-07 0)
(0.00100022 -6.17086e-07 0)
(0.00100001 -8.48414e-07 0)
(0.001 8.58618e-08 0)
(0.00100004 2.64003e-07 0)
(0.00100011 4.54735e-07 0)
(0.00100024 6.62479e-07 0)
(0.00100043 8.77668e-07 0)
(0.0010007 1.08296e-06 0)
(0.00100106 1.22833e-06 0)
(0.0010015 1.25198e-06 0)
(0.001002 1.07383e-06 0)
(0.00100248 6.57497e-07 0)
(0.0010028 1.80304e-08 0)
(0.00100274 -7.70478e-07 0)
(0.00100228 -1.44969e-06 0)
(0.00100146 -1.7734e-06 0)
(0.00100062 -1.66706e-06 0)
(0.00100001 -1.3477e-06 0)
(0.000999794 -1.02991e-06 0)
(0.000999766 -9.383e-07 0)
(0.000999884 -9.46112e-07 0)
(0.000999767 -1.10835e-06 0)
(0.001 6.9456e-08 0)
(0.00100004 2.09801e-07 0)
(0.00100012 3.5418e-07 0)
(0.00100025 5.01848e-07 0)
(0.00100043 6.44032e-07 0)
(0.00100066 7.64551e-07 0)
(0.00100096 8.36076e-07 0)
(0.00100129 8.25208e-07 0)
(0.00100163 6.91373e-07 0)
(0.00100191 4.06386e-07 0)
(0.00100206 -4.76055e-08 0)
(0.001002 -5.77003e-07 0)
(0.00100171 -1.03601e-06 0)
(0.0010012 -1.28108e-06 0)
(0.00100065 -1.22898e-06 0)
(0.00100016 -9.94138e-07 0)
(0.000999915 -7.02779e-07 0)
(0.00099974 -5.58234e-07 0)
(0.000999752 -4.88088e-07 0)
(0.000999561 -5.9825e-07 0)
(0.001 5.09376e-08 0)
(0.00100004 1.50251e-07 0)
(0.00100012 2.46588e-07 0)
(0.00100025 3.38501e-07 0)
(0.00100041 4.21324e-07 0)
(0.00100062 4.8272e-07 0)
(0.00100086 5.07961e-07 0)
(0.00100112 4.73328e-07 0)
(0.00100137 3.61915e-07 0)
(0.00100157 1.56006e-07 0)
(0.00100167 -1.17843e-07 0)
(0.00100161 -4.2264e-07 0)
(0.00100139 -6.82723e-07 0)
(0.00100103 -8.42825e-07 0)
(0.00100064 -8.5034e-07 0)
(0.00100022 -7.7129e-07 0)
(0.000999951 -6.39157e-07 0)
(0.000999689 -5.98104e-07 0)
(0.000999628 -5.62034e-07 0)
(0.000999388 -6.84516e-07 0)
(0.001 3.51971e-08 0)
(0.00100004 1.05177e-07 0)
(0.00100011 1.74222e-07 0)
(0.00100023 2.40951e-07 0)
(0.00100038 3.01622e-07 0)
(0.00100056 3.49545e-07 0)
(0.00100077 3.75456e-07 0)
(0.00100097 3.69449e-07 0)
(0.00100116 3.20815e-07 0)
(0.0010013 2.24616e-07 0)
(0.00100136 8.57733e-08 0)
(0.00100131 -7.14273e-08 0)
(0.00100115 -2.07178e-07 0)
(0.00100086 -2.97941e-07 0)
(0.00100054 -3.12732e-07 0)
(0.00100017 -2.82472e-07 0)
(0.000999902 -2.0379e-07 0)
(0.000999614 -1.69722e-07 0)
(0.000999518 -1.18732e-07 0)
(0.000999251 -1.98038e-07 0)
(0.001 -3.81902e-09 0)
(0.00100004 -9.72871e-09 0)
(0.00100012 -1.31242e-08 0)
(0.00100024 -1.52154e-08 0)
(0.00100039 -1.7458e-08 0)
(0.00100056 -2.29414e-08 0)
(0.00100075 -3.36018e-08 0)
(0.00100094 -5.30754e-08 0)
(0.00100111 -8.1336e-08 0)
(0.00100123 -1.219e-07 0)
(0.00100128 -1.69906e-07 0)
(0.00100122 -2.31581e-07 0)
(0.00100107 -2.90807e-07 0)
(0.00100081 -3.41415e-07 0)
(0.00100053 -3.59758e-07 0)
(0.00100018 -3.6819e-07 0)
(0.000999947 -3.42757e-07 0)
(0.000999611 -3.53151e-07 0)
(0.000999524 -3.27852e-07 0)
(0.000999133 -4.10424e-07 0)
)
;

boundaryField
{
    sides
    {
        type            slip;
    }
    inlet
    {
        type            fixedValue;
        value           uniform (0.001 0 0);
    }
    outlet
    {
        type            zeroGradient;
    }
    frontAndBack
    {
        type            empty;
    }
}


// ************************************************************************* //
