/*--------------------------------*- C++ -*----------------------------------*\
  =========                 |
  \\      /  F ield         | OpenFOAM: The Open Source CFD Toolbox
   \\    /   O peration     | Website:  https://openfoam.org
    \\  /    A nd           | Version:  9
     \\/     M anipulation  |
\*---------------------------------------------------------------------------*/
FoamFile
{
    format      ascii;
    class       surfaceScalarField;
    location    "74";
    object      phi;
}
// * * * * * * * * * * * * * * * * * * * * * * * * * * * * * * * * * * * * * //

dimensions      [0 4 -1 0 0 0 0];

internalField   nonuniform List<scalar> 
760
(
5.00009e-06
-9.31882e-11
5.0004e-06
-3.07647e-10
5.00091e-06
-5.13482e-10
5.00162e-06
-7.06093e-10
5.00249e-06
-8.73656e-10
5.0035e-06
-1.00167e-09
5.00456e-06
-1.05915e-09
5.00557e-06
-1.01725e-09
5.0064e-06
-8.37076e-10
5.00693e-06
-5.27903e-10
5.00705e-06
-1.26058e-10
5.00665e-06
3.96775e-10
5.0058e-06
8.53668e-10
5.0047e-06
1.10133e-09
5.00353e-06
1.16796e-09
5.00258e-06
9.48877e-10
5.00186e-06
7.12335e-10
5.00161e-06
2.41515e-10
5.00151e-06
1.01744e-10
-3.93792e-10
5.00012e-06
-2.15182e-10
5.00045e-06
-6.3612e-10
5.00098e-06
-1.04731e-09
5.00172e-06
-1.44488e-09
5.00265e-06
-1.80513e-09
5.00375e-06
-2.09168e-09
5.00493e-06
-2.24752e-09
5.00611e-06
-2.1978e-09
5.00713e-06
-1.86137e-09
5.00778e-06
-1.17189e-09
5.00775e-06
-9.4492e-11
5.00726e-06
8.91332e-10
5.00627e-06
1.84856e-09
5.00496e-06
2.41532e-09
5.00369e-06
2.44169e-09
5.00278e-06
1.85345e-09
5.00225e-06
1.24091e-09
5.00191e-06
5.76118e-10
5.00165e-06
3.62809e-10
-1.51887e-10
5.00011e-06
-3.23291e-10
5.00043e-06
-9.5484e-10
5.00096e-06
-1.57954e-09
5.00172e-06
-2.20842e-09
5.00272e-06
-2.80612e-09
5.00394e-06
-3.31539e-09
5.00532e-06
-3.62627e-09
5.00672e-06
-3.59806e-09
5.00793e-06
-3.06197e-09
5.00872e-06
-1.95976e-09
5.00894e-06
-2.96325e-10
5.00825e-06
1.57738e-09
5.00687e-06
3.23936e-09
5.00515e-06
4.1411e-09
5.00351e-06
4.09271e-09
5.00231e-06
3.05323e-09
5.00166e-06
1.8874e-09
5.00147e-06
7.6806e-10
5.00145e-06
3.92382e-10
-2.24205e-10
5.0001e-06
-4.21409e-10
5.00041e-06
-1.26249e-09
5.00095e-06
-2.1161e-09
5.00175e-06
-3.01357e-09
5.00286e-06
-3.91503e-09
5.00428e-06
-4.74956e-09
5.00601e-06
-5.35097e-09
5.00795e-06
-5.5267e-09
5.00985e-06
-4.93921e-09
5.01108e-06
-3.19101e-09
5.0112e-06
-4.22504e-10
5.01e-06
2.78736e-09
5.00764e-06
5.57784e-09
5.00514e-06
6.64782e-09
5.00347e-06
5.76743e-09
5.0027e-06
3.82872e-09
5.00248e-06
2.11105e-09
5.00231e-06
9.39732e-10
5.002e-06
7.09745e-10
3.38084e-10
5.00008e-06
-5.00876e-10
5.00034e-06
-1.52072e-09
5.00084e-06
-2.61108e-09
5.00164e-06
-3.81768e-09
5.00286e-06
-5.13822e-09
5.00457e-06
-6.46463e-09
5.0068e-06
-7.57071e-09
5.00943e-06
-8.13235e-09
5.01239e-06
-7.91622e-09
5.0148e-06
-5.58251e-09
5.01483e-06
-4.76876e-10
5.01285e-06
4.75615e-09
5.00867e-06
9.74904e-09
5.00459e-06
1.07093e-08
5.00223e-06
8.11726e-09
5.00174e-06
4.32568e-09
5.00204e-06
1.81046e-09
5.00226e-06
7.32409e-10
5.00201e-06
9.55164e-10
6.27191e-10
5.00005e-06
-5.40781e-10
5.0002e-06
-1.67721e-09
5.00054e-06
-2.95297e-09
5.00121e-06
-4.49068e-09
5.00241e-06
-6.33632e-09
5.00452e-06
-8.57529e-09
5.00761e-06
-1.0642e-08
5.01168e-06
-1.22112e-08
5.01553e-06
-1.1774e-08
5.01901e-06
-9.08512e-09
5.02022e-06
-1.66696e-09
5.01602e-06
8.91973e-09
5.00951e-06
1.62529e-08
5.00422e-06
1.60018e-08
5.00216e-06
1.01523e-08
5.00249e-06
3.99787e-09
5.00327e-06
1.03462e-09
5.0034e-06
6.05773e-10
5.0028e-06
1.55051e-09
1.4227e-09
4.99998e-06
-5.20626e-10
4.99994e-06
-1.63568e-09
5.00003e-06
-3.04544e-09
5.00036e-06
-4.81939e-09
5.00122e-06
-7.19561e-09
5.00292e-06
-1.02733e-08
5.00681e-06
-1.45301e-08
5.01392e-06
-1.93379e-08
5.02375e-06
-2.1609e-08
5.03093e-06
-1.62664e-08
5.02872e-06
5.26048e-10
5.01676e-06
2.0952e-08
5.00419e-06
2.88054e-08
4.99874e-06
2.14535e-08
5.00057e-06
8.30953e-09
5.00284e-06
1.72506e-09
5.00372e-06
1.63654e-10
5.00367e-06
6.56009e-10
5.00305e-06
2.16432e-09
1.68072e-09
4.99987e-06
-3.87389e-10
4.99955e-06
-1.32127e-09
4.99913e-06
-2.61643e-09
4.99886e-06
-4.54753e-09
4.99933e-06
-7.66997e-09
5.00036e-06
-1.13048e-08
5.00366e-06
-1.7824e-08
5.00983e-06
-2.55239e-08
5.02487e-06
-3.6668e-08
5.05615e-06
-4.74485e-08
5.04998e-06
6.91436e-09
5.02318e-06
4.78074e-08
4.99819e-06
5.38354e-08
4.9935e-06
2.61446e-08
4.99947e-06
2.3399e-09
5.00407e-06
-2.88036e-09
5.00491e-06
-6.7075e-10
5.00373e-06
1.83661e-09
5.00351e-06
2.37954e-09
9.69135e-10
4.99977e-06
-1.56936e-10
4.99915e-06
-7.04852e-10
4.99792e-06
-1.38055e-09
4.99611e-06
-2.73463e-09
4.99402e-06
-5.5813e-09
4.99374e-06
-1.10302e-08
4.99945e-06
-2.35368e-08
5.01713e-06
-4.31988e-08
5.05573e-06
-7.52324e-08
5.06679e-06
-5.86163e-08
5.04979e-06
2.37146e-08
4.9965e-06
1.01044e-07
4.98929e-06
6.10021e-08
4.9959e-06
1.95356e-08
5.00019e-06
-1.94057e-09
5.00293e-06
-5.61695e-09
5.00253e-06
-2.75898e-10
5.00185e-06
2.51817e-09
5.00255e-06
1.6765e-09
7.54294e-11
4.99986e-06
-1.62039e-11
4.9992e-06
-5.05901e-11
4.99791e-06
-8.5144e-11
4.99531e-06
-1.27926e-10
4.9899e-06
-1.72787e-10
4.97909e-06
-2.24283e-10
4.95582e-06
-2.6869e-10
4.91296e-06
-3.29896e-10
4.83814e-06
-4.00939e-10
4.77998e-06
-4.64652e-10
4.8043e-06
-5.81332e-10
4.90602e-06
-7.51222e-10
4.96778e-06
-7.48516e-10
4.98822e-06
-9.05159e-10
4.98745e-06
-1.1649e-09
4.98326e-06
-1.42533e-09
4.98456e-06
-1.55516e-09
4.98891e-06
-1.82617e-09
4.99248e-06
-1.89582e-09
-2.58435e-09
4.99986e-06
1.25008e-10
4.99921e-06
6.02343e-10
4.99791e-06
1.21365e-09
4.9953e-06
2.48364e-09
4.98988e-06
5.2485e-09
4.97906e-06
1.05958e-08
4.95577e-06
2.30081e-08
4.91291e-06
4.25507e-08
4.83803e-06
7.4457e-08
4.77975e-06
5.78582e-08
4.80424e-06
-2.52497e-08
4.906e-06
-1.02463e-07
4.96777e-06
-6.2521e-08
4.98806e-06
-2.12039e-08
4.98736e-06
-4.50584e-10
4.98294e-06
3.00158e-09
4.98443e-06
-3.05131e-09
4.98889e-06
-6.28764e-09
4.99235e-06
-5.35983e-09
-4.98383e-09
4.99977e-06
3.55797e-10
4.99915e-06
1.22275e-09
4.99792e-06
2.44577e-09
4.9961e-06
4.29876e-09
4.99402e-06
7.33328e-09
4.99374e-06
1.08837e-08
4.99943e-06
1.73099e-08
5.01708e-06
2.48916e-08
5.05563e-06
3.59133e-08
5.06708e-06
4.63523e-08
5.04961e-06
-7.55323e-09
4.9961e-06
-4.91047e-08
4.98884e-06
-5.52676e-08
4.9957e-06
-2.8046e-08
5.00011e-06
-4.86332e-09
5.00232e-06
7.90011e-10
5.00165e-06
-2.39673e-09
5.0009e-06
-5.54165e-09
5.00168e-06
-6.14179e-09
-5.95172e-09
4.99987e-06
4.90054e-10
4.99955e-06
1.54076e-09
4.99911e-06
2.88262e-09
4.99883e-06
4.58181e-09
4.99928e-06
6.88898e-09
5.00027e-06
9.89017e-09
5.00349e-06
1.40997e-08
5.0096e-06
1.87627e-08
5.0246e-06
2.09152e-08
5.05556e-06
1.54175e-08
5.04962e-06
-1.80908e-09
5.02283e-06
-2.21627e-08
4.99788e-06
-3.03098e-08
4.99317e-06
-2.3332e-08
4.99865e-06
-1.03434e-08
5.00345e-06
-4.02189e-09
5.00373e-06
-2.67757e-09
5.00235e-06
-4.17114e-09
5.00216e-06
-5.95038e-09
-6.53602e-09
4.99998e-06
5.12212e-10
4.99993e-06
1.59022e-09
5e-06
2.80695e-09
5.00031e-06
4.28017e-09
5.00114e-06
6.06401e-09
5.0028e-06
8.22846e-09
5.00669e-06
1.02123e-08
5.01378e-06
1.16627e-08
5.02357e-06
1.11271e-08
5.0307e-06
8.26961e-09
5.0284e-06
6.37967e-10
5.01624e-06
-1.00394e-08
5.0035e-06
-1.75573e-08
4.99778e-06
-1.76065e-08
4.99942e-06
-1.19828e-08
5.00161e-06
-6.21789e-09
5.0024e-06
-3.47143e-09
5.00213e-06
-3.89955e-09
5.00119e-06
-5.01402e-09
-5.97757e-09
5.00004e-06
4.75282e-10
5.00019e-06
1.44528e-09
5.0005e-06
2.48585e-09
5.00115e-06
3.63544e-09
5.00232e-06
4.8941e-09
5.0044e-06
6.15224e-09
5.00742e-06
7.1898e-09
5.0114e-06
7.68284e-09
5.01513e-06
7.38761e-09
5.01853e-06
4.88569e-09
5.01956e-06
-4.04625e-10
5.01523e-06
-5.70089e-09
5.00854e-06
-1.08688e-08
5.00311e-06
-1.21737e-08
5.00088e-06
-9.74852e-09
5.00101e-06
-6.34769e-09
5.00155e-06
-4.01432e-09
5.00131e-06
-3.6605e-09
5.00035e-06
-4.05134e-09
-4.97755e-09
5.00008e-06
3.98769e-10
5.00033e-06
1.1996e-09
5.00079e-06
2.01342e-09
5.00157e-06
2.86277e-09
5.00275e-06
3.71287e-09
5.00441e-06
4.49188e-09
5.00656e-06
5.04217e-09
5.0091e-06
5.14693e-09
5.01203e-06
4.4515e-09
5.01441e-06
2.51059e-09
5.01415e-06
-1.4279e-10
5.01209e-06
-3.64191e-09
5.00776e-06
-6.53808e-09
5.00349e-06
-7.90902e-09
5.00093e-06
-7.18833e-09
5.00013e-06
-5.55067e-09
5.0001e-06
-3.98793e-09
4.99987e-06
-3.42923e-09
4.99917e-06
-3.34667e-09
-4.1729e-09
5.0001e-06
3.01752e-10
5.0004e-06
9.02978e-10
5.00091e-06
1.49966e-09
5.00167e-06
2.09266e-09
5.00274e-06
2.65126e-09
5.00412e-06
3.11058e-09
5.00579e-06
3.37704e-09
5.00763e-06
3.30875e-09
5.00933e-06
2.75372e-09
5.01027e-06
1.57071e-09
5.01043e-06
-3.06868e-10
5.00903e-06
-2.24242e-09
5.0065e-06
-4.01502e-09
5.00367e-06
-5.08347e-09
5.00154e-06
-5.05971e-09
5.00034e-06
-4.35451e-09
4.9997e-06
-3.348e-09
4.99916e-06
-2.89308e-09
4.99845e-06
-2.62865e-09
-3.21573e-09
5.0001e-06
2.00019e-10
5.00041e-06
5.95478e-10
5.00093e-06
9.82161e-10
5.00166e-06
1.35499e-09
5.00262e-06
1.69476e-09
5.00378e-06
1.95232e-09
5.0051e-06
2.06751e-09
5.00645e-06
1.95801e-09
5.00765e-06
1.55939e-09
5.00839e-06
8.29394e-10
5.00822e-06
-1.32758e-10
5.00734e-06
-1.36565e-09
5.0057e-06
-2.38317e-09
5.00368e-06
-3.0686e-09
5.00179e-06
-3.17133e-09
5.00034e-06
-2.90113e-09
4.99931e-06
-2.33068e-09
4.99852e-06
-2.09855e-09
4.99773e-06
-1.83366e-09
-2.27734e-09
5.00008e-06
1.15714e-10
5.00037e-06
3.05498e-10
5.00087e-06
4.9135e-10
5.00155e-06
6.70832e-10
5.00241e-06
8.32249e-10
5.00341e-06
9.5077e-10
5.00449e-06
9.97595e-10
5.00551e-06
9.37551e-10
5.00633e-06
7.39315e-10
5.00679e-06
3.63336e-10
5.00681e-06
-1.43075e-10
5.00608e-06
-6.31528e-10
5.00479e-06
-1.09491e-09
5.00316e-06
-1.43072e-09
5.00149e-06
-1.50238e-09
5.00003e-06
-1.43977e-09
4.99889e-06
-1.18978e-09
4.99792e-06
-1.13647e-09
4.99707e-06
-9.75794e-10
-1.42361e-09
5.00011e-06
5.00041e-06
5.00091e-06
5.00159e-06
5.00242e-06
5.00337e-06
5.00436e-06
5.0053e-06
5.00603e-06
5.00639e-06
5.00625e-06
5.00563e-06
5.00454e-06
5.00311e-06
5.00161e-06
5.00018e-06
4.99899e-06
4.99785e-06
4.99688e-06
)
;

boundaryField
{
    sides
    {
        type            calculated;
        value           uniform 0;
    }
    inlet
    {
        type            calculated;
        value           nonuniform List<scalar> 
20
(
-5e-06
-5e-06
-5e-06
-5e-06
-5e-06
-5e-06
-5e-06
-5e-06
-5e-06
-5e-06
-5e-06
-5e-06
-5e-06
-5e-06
-5e-06
-5e-06
-5e-06
-5e-06
-5e-06
-5e-06
)
;
    }
    outlet
    {
        type            calculated;
        value           nonuniform List<scalar> 
20
(
5.0019e-06
5.00141e-06
5.00152e-06
5.00144e-06
5.00172e-06
5.002e-06
5.00279e-06
5.00422e-06
5.00344e-06
4.99514e-06
4.99475e-06
5.00265e-06
5.00274e-06
5.00063e-06
4.99935e-06
4.99836e-06
4.99749e-06
4.99679e-06
4.99622e-06
4.99546e-06
)
;
    }
    frontAndBack
    {
        type            empty;
        value           nonuniform List<scalar> 0();
    }
}


// ************************************************************************* //
