/*--------------------------------*- C++ -*----------------------------------*\
  =========                 |
  \\      /  F ield         | OpenFOAM: The Open Source CFD Toolbox
   \\    /   O peration     | Website:  https://openfoam.org
    \\  /    A nd           | Version:  9
     \\/     M anipulation  |
\*---------------------------------------------------------------------------*/
FoamFile
{
    format      ascii;
    class       volVectorField;
    location    "74";
    object      U;
}
// * * * * * * * * * * * * * * * * * * * * * * * * * * * * * * * * * * * * * //

dimensions      [0 1 -1 0 0 0 0];

internalField   nonuniform List<vector> 
400
(
(0.0999964 -2.41429e-06 0)
(0.100001 -7.07356e-06 0)
(0.100009 -1.13428e-05 0)
(0.100023 -1.52531e-05 0)
(0.10004 -1.87196e-05 0)
(0.100061 -2.16532e-05 0)
(0.100083 -2.36865e-05 0)
(0.100107 -2.45707e-05 0)
(0.100128 -2.36878e-05 0)
(0.100144 -2.11774e-05 0)
(0.100152 -1.6882e-05 0)
(0.100152 -1.28493e-05 0)
(0.10014 -9.89977e-06 0)
(0.10012 -9.32123e-06 0)
(0.100093 -1.00067e-05 0)
(0.100068 -1.35934e-05 0)
(0.100045 -1.56681e-05 0)
(0.100034 -2.01306e-05 0)
(0.100025 -1.88847e-05 0)
(0.100033 -2.68631e-05 0)
(0.0999969 -2.66792e-06 0)
(0.100002 -7.92337e-06 0)
(0.100011 -1.28645e-05 0)
(0.100025 -1.74331e-05 0)
(0.100044 -2.13107e-05 0)
(0.100066 -2.39909e-05 0)
(0.100091 -2.45966e-05 0)
(0.100117 -2.21316e-05 0)
(0.100141 -1.55914e-05 0)
(0.100161 -4.85219e-06 0)
(0.100171 9.35095e-06 0)
(0.100169 2.48074e-05 0)
(0.100154 3.9022e-05 0)
(0.100129 4.76806e-05 0)
(0.1001 5.04535e-05 0)
(0.100071 4.51188e-05 0)
(0.100051 3.78056e-05 0)
(0.100037 2.56802e-05 0)
(0.100033 2.04495e-05 0)
(0.100029 8.05343e-06 0)
(0.0999968 -5.27541e-06 0)
(0.100001 -1.595e-05 0)
(0.100011 -2.67368e-05 0)
(0.100025 -3.74103e-05 0)
(0.100044 -4.73499e-05 0)
(0.100068 -5.55314e-05 0)
(0.100096 -6.04045e-05 0)
(0.100127 -5.98816e-05 0)
(0.100156 -5.19139e-05 0)
(0.10018 -3.51939e-05 0)
(0.100193 -1.08701e-05 0)
(0.100192 1.64178e-05 0)
(0.100174 4.04135e-05 0)
(0.100142 5.2147e-05 0)
(0.100102 4.99683e-05 0)
(0.100066 3.53469e-05 0)
(0.100038 2.02956e-05 0)
(0.100026 4.61204e-06 0)
(0.100021 -3.76391e-07 0)
(0.100029 -1.17615e-05 0)
(0.0999962 -7.36333e-06 0)
(0.100001 -2.22667e-05 0)
(0.10001 -3.7559e-05 0)
(0.100025 -5.31258e-05 0)
(0.100046 -6.80996e-05 0)
(0.100073 -8.1016e-05 0)
(0.100107 -8.89488e-05 0)
(0.100146 -8.8618e-05 0)
(0.100186 -7.55043e-05 0)
(0.100222 -4.74632e-05 0)
(0.100243 -2.06313e-06 0)
(0.10024 4.95802e-05 0)
(0.100211 9.39691e-05 0)
(0.100159 0.000114214 0)
(0.100104 0.000105572 0)
(0.100061 7.43171e-05 0)
(0.100041 4.24099e-05 0)
(0.100035 1.70643e-05 0)
(0.10004 1.0193e-05 0)
(0.100035 -1.1213e-09 0)
(0.0999953 -9.07276e-06 0)
(0.0999995 -2.78109e-05 0)
(0.100008 -4.77874e-05 0)
(0.100023 -6.9517e-05 0)
(0.100044 -9.2152e-05 0)
(0.100075 -0.000113945 0)
(0.100117 -0.000129873 0)
(0.100168 -0.000133596 0)
(0.100225 -0.000117427 0)
(0.100281 -7.77487e-05 0)
(0.100318 -1.69738e-05 0)
(0.100316 5.81624e-05 0)
(0.100267 0.000123268 0)
(0.100181 0.000151288 0)
(0.100091 0.000137614 0)
(0.100029 9.65027e-05 0)
(0.100009 5.81949e-05 0)
(0.100019 3.15314e-05 0)
(0.100036 2.62295e-05 0)
(0.100043 1.67661e-05 0)
(0.0999939 -1.02727e-05 0)
(0.0999969 -3.18493e-05 0)
(0.100003 -5.63195e-05 0)
(0.100015 -8.46128e-05 0)
(0.100036 -0.000117362 0)
(0.10007 -0.000152501 0)
(0.100122 -0.000185813 0)
(0.100193 -0.00020523 0)
(0.100277 -0.000191184 0)
(0.100357 -0.000120025 0)
(0.100414 8.38801e-06 0)
(0.100415 0.000154208 0)
(0.100339 0.000243488 0)
(0.100208 0.000230456 0)
(0.100084 0.000142952 0)
(0.100014 4.92329e-05 0)
(0.100012 1.3705e-06 0)
(0.100035 -8.45284e-06 0)
(0.100065 6.03932e-06 0)
(0.100055 4.97892e-06 0)
(0.0999923 -1.01805e-05 0)
(0.0999928 -3.33448e-05 0)
(0.0999949 -6.03058e-05 0)
(0.100001 -9.63424e-05 0)
(0.100016 -0.000139316 0)
(0.100046 -0.000194596 0)
(0.100103 -0.000248818 0)
(0.100202 -0.000308397 0)
(0.10035 -0.000323469 0)
(0.100519 -0.000288397 0)
(0.100632 -6.68294e-05 0)
(0.10059 0.000255567 0)
(0.100383 0.000482869 0)
(0.100118 0.000473592 0)
(0.0999478 0.000302652 0)
(0.0999218 0.000126288 0)
(0.0999926 4.31122e-05 0)
(0.100056 3.27295e-05 0)
(0.100095 5.61851e-05 0)
(0.100067 5.33581e-05 0)
(0.0999904 -9.183e-06 0)
(0.0999873 -2.88689e-05 0)
(0.0999807 -5.77939e-05 0)
(0.099977 -9.57918e-05 0)
(0.0999775 -0.000157811 0)
(0.100001 -0.000234451 0)
(0.100047 -0.000340204 0)
(0.10016 -0.000412622 0)
(0.100334 -0.00043757 0)
(0.100659 -0.000255064 0)
(0.101007 7.50955e-05 0)
(0.101013 0.000427297 0)
(0.100606 0.000472244 0)
(0.100072 0.000278179 0)
(0.099782 7.33798e-05 0)
(0.0997968 -2.75862e-05 0)
(0.0999672 -2.86095e-05 0)
(0.100089 -9.52543e-07 0)
(0.100138 2.11551e-05 0)
(0.100087 1.02445e-05 0)
(0.0999894 -4.8732e-06 0)
(0.0999805 -2.03686e-05 0)
(0.0999629 -3.87e-05 0)
(0.0999378 -7.35645e-05 0)
(0.0999107 -0.000133905 0)
(0.0999019 -0.000248122 0)
(0.0999567 -0.000468709 0)
(0.100144 -0.000807021 0)
(0.100537 -0.00132928 0)
(0.101061 -0.00149271 0)
(0.101323 0.000384455 0)
(0.100997 0.0018751 0)
(0.100241 0.00157859 0)
(0.0997199 0.000573977 0)
(0.0996445 -3.1658e-05 0)
(0.099822 -0.000126394 0)
(0.100024 -9.47116e-06 0)
(0.100107 6.34577e-05 0)
(0.100113 6.51194e-05 0)
(0.100055 2.43222e-05 0)
(0.0999702 -1.95862e-06 0)
(0.100006 -6.64583e-06 0)
(0.0999078 -1.51375e-05 0)
(0.0999718 -2.48936e-05 0)
(0.0997259 -5.92918e-05 0)
(0.0998441 -0.000113178 0)
(0.0992765 -0.000288233 0)
(0.0996751 -0.000558836 0)
(0.0991183 -0.00115356 0)
(0.102003 -0.00141529 0)
(0.106281 3.09048e-05 0)
(0.101267 0.00146736 0)
(0.0990075 0.00130725 0)
(0.0982225 0.000513186 0)
(0.0988553 1.93846e-05 0)
(0.0996051 -7.81066e-05 0)
(0.0999352 -1.11249e-05 0)
(0.0999522 2.4852e-05 0)
(0.099867 1.73857e-05 0)
(0.099849 -1.85208e-05 0)
(0.0999709 1.30024e-06 0)
(0.100006 4.6145e-06 0)
(0.0999084 1.17797e-05 0)
(0.0999722 1.99972e-05 0)
(0.0997262 5.28577e-05 0)
(0.0998442 0.00010498 0)
(0.0992763 0.000278432 0)
(0.0996745 0.000547023 0)
(0.0991171 0.00113926 0)
(0.102001 0.00139777 0)
(0.106276 -5.33064e-05 0)
(0.101265 -0.00149433 0)
(0.0990079 -0.00133965 0)
(0.0982222 -0.000552578 0)
(0.0988539 -6.46992e-05 0)
(0.0996016 2.48979e-05 0)
(0.0999311 -4.71872e-05 0)
(0.0999478 -0.000100233 0)
(0.0998659 -9.88737e-05 0)
(0.0998442 -8.88511e-05 0)
(0.0999914 4.23731e-06 0)
(0.0999825 1.84016e-05 0)
(0.0999648 3.53875e-05 0)
(0.0999397 6.87506e-05 0)
(0.0999124 0.000127602 0)
(0.0999039 0.000240019 0)
(0.0999584 0.000458758 0)
(0.100146 0.000794364 0)
(0.100537 0.00131378 0)
(0.101063 0.00147338 0)
(0.101325 -0.000406686 0)
(0.100996 -0.00190268 0)
(0.100235 -0.00161003 0)
(0.0997121 -0.000612107 0)
(0.0996387 -8.37457e-06 0)
(0.0998174 7.75555e-05 0)
(0.100015 -4.27457e-05 0)
(0.100092 -0.000130569 0)
(0.100093 -0.000137966 0)
(0.100038 -0.000125062 0)
(0.0999938 8.58065e-06 0)
(0.0999906 2.7003e-05 0)
(0.0999838 5.45416e-05 0)
(0.0999798 9.10689e-05 0)
(0.0999799 0.000151354 0)
(0.100003 0.000226067 0)
(0.100048 0.000329271 0)
(0.100159 0.000399065 0)
(0.100332 0.000421183 0)
(0.100655 0.000236474 0)
(0.100999 -9.75782e-05 0)
(0.101007 -0.000454608 0)
(0.100601 -0.000502384 0)
(0.100067 -0.00031299 0)
(0.0997752 -0.000113112 0)
(0.0997847 -2.5173e-05 0)
(0.099951 -3.23751e-05 0)
(0.100066 -7.42827e-05 0)
(0.100111 -9.67791e-05 0)
(0.100057 -0.000107373 0)
(0.099997 9.60714e-06 0)
(0.0999974 3.15491e-05 0)
(0.0999992 5.72361e-05 0)
(0.100005 9.18318e-05 0)
(0.100019 0.000133368 0)
(0.100049 0.000187018 0)
(0.100105 0.000239786 0)
(0.100203 0.000297476 0)
(0.100351 0.000311271 0)
(0.100519 0.000273375 0)
(0.100631 5.0369e-05 0)
(0.100586 -0.000275263 0)
(0.100375 -0.000507843 0)
(0.100105 -0.000507015 0)
(0.0999305 -0.000344841 0)
(0.099899 -0.000179395 0)
(0.0999682 -0.000102199 0)
(0.100026 -0.000106066 0)
(0.100065 -0.000130777 0)
(0.100025 -0.000151534 0)
(0.1 9.73981e-06 0)
(0.100003 3.02376e-05 0)
(0.100009 5.3625e-05 0)
(0.10002 8.06746e-05 0)
(0.10004 0.000112153 0)
(0.100074 0.000145832 0)
(0.100124 0.000177706 0)
(0.100194 0.000195058 0)
(0.100276 0.000178352 0)
(0.100353 0.000103584 0)
(0.100408 -2.78972e-05 0)
(0.100405 -0.000178316 0)
(0.100326 -0.000271073 0)
(0.10019 -0.000263107 0)
(0.100064 -0.000177806 0)
(0.0999891 -8.95062e-05 0)
(0.0999835 -4.27854e-05 0)
(0.0999983 -4.49287e-05 0)
(0.100024 -6.17097e-05 0)
(0.100002 -8.48424e-05 0)
(0.100003 8.5864e-06 0)
(0.100007 2.64011e-05 0)
(0.100015 4.54752e-05 0)
(0.100029 6.62514e-05 0)
(0.10005 8.77732e-05 0)
(0.10008 0.000108307 0)
(0.10012 0.000122851 0)
(0.10017 0.000125223 0)
(0.100225 0.00010741 0)
(0.100279 6.577e-05 0)
(0.100315 1.80366e-06 0)
(0.100309 -7.70741e-05 0)
(0.100256 -0.000145011 0)
(0.100166 -0.000177375 0)
(0.100072 -0.000166722 0)
(0.100003 -0.000134773 0)
(0.0999793 -0.000102991 0)
(0.0999767 -9.38301e-05 0)
(0.0999894 -9.46122e-05 0)
(0.0999775 -0.000110836 0)
(0.100005 6.94594e-06 0)
(0.10001 2.09813e-05 0)
(0.100019 3.54203e-05 0)
(0.100033 5.01887e-05 0)
(0.100053 6.44095e-05 0)
(0.100079 7.64646e-05 0)
(0.100111 8.36208e-05 0)
(0.100148 8.25369e-05 0)
(0.100186 6.91535e-05 0)
(0.100218 4.06495e-05 0)
(0.100235 -4.76191e-06 0)
(0.100228 -5.77164e-05 0)
(0.100195 -0.000103627 0)
(0.100139 -0.000128132 0)
(0.100077 -0.000122913 0)
(0.100023 -9.94206e-05 0)
(0.0999951 -7.02804e-05 0)
(0.0999763 -5.58247e-05 0)
(0.0999769 -4.88096e-05 0)
(0.0999569 -5.98255e-05 0)
(0.100007 5.09411e-06 0)
(0.100012 1.50262e-05 0)
(0.100021 2.46609e-05 0)
(0.100034 3.38534e-05 0)
(0.100053 4.21372e-05 0)
(0.100076 4.82787e-05 0)
(0.100103 5.08045e-05 0)
(0.100131 4.73421e-05 0)
(0.100159 3.61996e-05 0)
(0.100182 1.56044e-05 0)
(0.100193 -1.17874e-05 0)
(0.100186 -4.22747e-05 0)
(0.100162 -6.82879e-05 0)
(0.100122 -8.42983e-05 0)
(0.100078 -8.50459e-05 0)
(0.100032 -7.71364e-05 0)
(0.100001 -6.39196e-05 0)
(0.0999727 -5.98127e-05 0)
(0.099965 -5.62046e-05 0)
(0.0999397 -6.84522e-05 0)
(0.100009 3.52001e-06 0)
(0.100013 1.05186e-05 0)
(0.100021 1.74239e-05 0)
(0.100034 2.40977e-05 0)
(0.100051 3.01661e-05 0)
(0.100071 3.49596e-05 0)
(0.100094 3.75521e-05 0)
(0.100117 3.69521e-05 0)
(0.100138 3.20884e-05 0)
(0.100153 2.24668e-05 0)
(0.10016 8.57939e-06 0)
(0.100155 -7.14441e-06 0)
(0.100137 -2.07222e-05 0)
(0.100105 -2.97996e-05 0)
(0.100068 -3.12778e-05 0)
(0.100027 -2.82502e-05 0)
(0.0999973 -2.03805e-05 0)
(0.0999658 -1.6973e-05 0)
(0.0999542 -1.18735e-05 0)
(0.0999259 -1.98039e-05 0)
(0.10001 -3.81939e-07 0)
(0.100014 -9.7297e-07 0)
(0.100023 -1.31256e-06 0)
(0.100036 -1.52173e-06 0)
(0.100053 -1.74605e-06 0)
(0.100072 -2.29451e-06 0)
(0.100094 -3.3608e-06 0)
(0.100115 -5.30862e-06 0)
(0.100134 -8.13543e-06 0)
(0.100147 -1.21929e-05 0)
(0.100152 -1.69947e-05 0)
(0.100145 -2.31636e-05 0)
(0.100129 -2.9087e-05 0)
(0.1001 -3.4148e-05 0)
(0.100069 -3.59814e-05 0)
(0.10003 -3.68234e-05 0)
(0.100004 -3.42788e-05 0)
(0.099967 -3.53172e-05 0)
(0.0999558 -3.27863e-05 0)
(0.0999146 -4.10429e-05 0)
)
;

boundaryField
{
    sides
    {
        type            calculated;
        value           nonuniform List<vector> 
40
(
(0.10001 0 0)
(0.100014 0 0)
(0.100023 0 0)
(0.100036 0 0)
(0.100053 0 0)
(0.100072 0 0)
(0.100094 0 0)
(0.100115 0 0)
(0.100134 0 0)
(0.100147 0 0)
(0.100152 0 0)
(0.100145 0 0)
(0.100129 0 0)
(0.1001 0 0)
(0.100069 0 0)
(0.10003 0 0)
(0.100004 0 0)
(0.099967 0 0)
(0.0999558 0 0)
(0.0999146 0 0)
(0.0999964 0 0)
(0.100001 0 0)
(0.100009 0 0)
(0.100023 0 0)
(0.10004 0 0)
(0.100061 0 0)
(0.100083 0 0)
(0.100107 0 0)
(0.100128 0 0)
(0.100144 0 0)
(0.100152 0 0)
(0.100152 0 0)
(0.10014 0 0)
(0.10012 0 0)
(0.100093 0 0)
(0.100068 0 0)
(0.100045 0 0)
(0.100034 0 0)
(0.100025 0 0)
(0.100033 0 0)
)
;
    }
    inlet
    {
        type            calculated;
        value           nonuniform List<vector> 
20
(
(0.0999962 0 0)
(0.0999967 0 0)
(0.0999965 0 0)
(0.099996 0 0)
(0.0999951 0 0)
(0.0999938 0 0)
(0.0999923 0 0)
(0.0999909 0 0)
(0.0999899 0 0)
(0.0999898 0 0)
(0.0999905 0 0)
(0.0999919 0 0)
(0.0999942 0 0)
(0.099997 0 0)
(0.0999999 0 0)
(0.100003 0 0)
(0.100005 0 0)
(0.100007 0 0)
(0.100008 0 0)
(0.10001 0 0)
)
;
    }
    outlet
    {
        type            calculated;
        value           nonuniform List<vector> 
20
(
(0.100033 -2.68632e-05 0)
(0.100029 8.05342e-06 0)
(0.10003 -1.17616e-05 0)
(0.100035 -1.1213e-09 0)
(0.100043 1.67661e-05 0)
(0.100055 4.97887e-06 0)
(0.100066 5.33575e-05 0)
(0.100085 1.02443e-05 0)
(0.100054 2.43219e-05 0)
(0.0998505 -1.85211e-05 0)
(0.0998455 -8.88522e-05 0)
(0.100037 -0.00012506 0)
(0.100055 -0.000107371 0)
(0.100024 -0.000151532 0)
(0.100001 -8.48414e-05 0)
(0.0999767 -0.000110835 0)
(0.0999561 -5.9825e-05 0)
(0.0999388 -6.84516e-05 0)
(0.0999251 -1.98038e-05 0)
(0.0999133 -4.10424e-05 0)
)
;
    }
    frontAndBack
    {
        type            empty;
    }
}


// ************************************************************************* //
