/*--------------------------------*- C++ -*----------------------------------*\
  =========                 |
  \\      /  F ield         | OpenFOAM: The Open Source CFD Toolbox
   \\    /   O peration     | Website:  https://openfoam.org
    \\  /    A nd           | Version:  9
     \\/     M anipulation  |
\*---------------------------------------------------------------------------*/
FoamFile
{
    format      ascii;
    class       volScalarField;
    location    "26";
    object      h_0;
}
// * * * * * * * * * * * * * * * * * * * * * * * * * * * * * * * * * * * * * //

dimensions      [0 1 0 0 0 0 0];

internalField   nonuniform List<scalar> 
400
(
0.0099999
0.00999974
0.00999963
0.00999961
0.00999956
0.00999947
0.00999932
0.00999911
0.00999886
0.00999865
0.00999854
0.00999856
0.0099987
0.00999894
0.00999923
0.00999952
0.00999977
0.00999995
0.01
0.01
0.00999987
0.0099997
0.00999961
0.00999957
0.00999949
0.00999937
0.00999919
0.00999894
0.00999866
0.00999841
0.00999829
0.00999832
0.0099985
0.00999878
0.00999911
0.00999942
0.00999967
0.00999985
0.00999995
0.00999998
0.00999996
0.00999983
0.00999972
0.00999963
0.00999951
0.00999934
0.00999911
0.00999882
0.00999849
0.00999821
0.00999805
0.00999807
0.00999827
0.00999863
0.00999906
0.00999947
0.00999979
0.00999999
0.0100001
0.01
0.0100001
0.00999999
0.00999988
0.00999974
0.00999956
0.00999933
0.00999902
0.00999864
0.00999821
0.00999781
0.00999758
0.00999761
0.00999793
0.00999847
0.00999907
0.00999954
0.00999981
0.00999991
0.00999995
0.00999996
0.0100003
0.0100002
0.0100001
0.00999991
0.00999968
0.00999937
0.00999898
0.00999848
0.0099979
0.0099973
0.0099969
0.0099969
0.0099974
0.0099983
0.00999926
0.00999994
0.0100002
0.0100002
0.0100001
0.00999999
0.0100005
0.0100005
0.0100003
0.0100002
0.00999989
0.00999952
0.00999902
0.00999834
0.00999749
0.00999667
0.00999607
0.00999603
0.00999678
0.00999812
0.00999945
0.0100002
0.0100003
0.0100001
0.0099999
0.00999992
0.0100007
0.0100007
0.0100006
0.0100005
0.0100002
0.00999989
0.00999934
0.00999839
0.00999692
0.00999518
0.00999398
0.00999431
0.00999644
0.00999919
0.010001
0.0100013
0.0100006
0.00999994
0.0099997
0.00999987
0.0100009
0.010001
0.010001
0.0100009
0.0100007
0.0100005
0.01
0.00999902
0.00999721
0.00999416
0.0099904
0.00999008
0.00999427
0.00999992
0.010003
0.0100028
0.010001
0.00999972
0.00999944
0.00999982
0.0100011
0.0100012
0.0100013
0.0100014
0.0100015
0.0100016
0.0100011
0.00999923
0.00999535
0.00998969
0.00998674
0.00998968
0.00999789
0.0100034
0.0100041
0.0100021
0.0100001
0.0099992
0.00999937
0.00999986
0.0100011
0.0100012
0.0100014
0.0100017
0.0100023
0.0100037
0.0100055
0.0100076
0.0100048
0.00897845
0.00895242
0.00997582
0.0100087
0.0100176
0.0100102
0.010002
0.00999864
0.00999875
0.0099997
0.0100001
0.010001
0.0100012
0.0100013
0.0100016
0.0100023
0.0100036
0.0100055
0.0100075
0.0100047
0.0089784
0.00895239
0.00997575
0.0100086
0.0100175
0.0100101
0.010002
0.00999863
0.00999874
0.00999967
0.0100001
0.0100009
0.010001
0.0100011
0.0100012
0.0100013
0.0100014
0.0100008
0.00999903
0.00999515
0.00998948
0.00998648
0.00998947
0.00999774
0.0100033
0.010004
0.010002
0.00999998
0.00999918
0.00999939
0.00999987
0.0100006
0.0100007
0.0100006
0.0100006
0.0100004
0.0100002
0.00999968
0.00999871
0.0099969
0.00999386
0.00999017
0.0099898
0.00999399
0.00999964
0.0100028
0.0100026
0.0100009
0.00999964
0.00999941
0.00999981
0.0100003
0.0100003
0.0100002
0.01
0.00999978
0.00999943
0.00999887
0.00999791
0.00999644
0.00999471
0.00999351
0.00999389
0.00999605
0.00999886
0.0100007
0.010001
0.0100004
0.00999977
0.00999958
0.00999982
0.00999993
0.00999988
0.00999976
0.00999956
0.00999929
0.00999893
0.00999842
0.00999773
0.0099969
0.00999609
0.00999554
0.00999552
0.00999631
0.00999771
0.00999907
0.00999986
0.01
0.00999987
0.00999977
0.00999988
0.00999958
0.00999949
0.00999936
0.00999918
0.00999893
0.00999862
0.00999824
0.00999774
0.00999716
0.00999658
0.00999619
0.00999624
0.00999678
0.00999772
0.00999874
0.00999948
0.00999982
0.00999988
0.00999987
0.00999993
0.00999925
0.00999913
0.00999901
0.00999887
0.00999868
0.00999843
0.00999813
0.00999776
0.00999735
0.00999699
0.0099968
0.00999686
0.00999722
0.00999782
0.0099985
0.00999907
0.00999946
0.00999967
0.0099998
0.00999992
0.00999896
0.00999881
0.0099987
0.00999861
0.00999848
0.0099983
0.00999807
0.00999779
0.00999747
0.0099972
0.00999706
0.00999714
0.00999741
0.00999784
0.00999834
0.00999883
0.00999923
0.00999953
0.00999975
0.00999991
0.00999875
0.00999858
0.00999846
0.00999841
0.00999834
0.00999822
0.00999805
0.00999782
0.00999757
0.00999737
0.00999728
0.00999733
0.00999755
0.0099979
0.00999832
0.00999875
0.00999914
0.00999946
0.00999972
0.00999991
0.00999855
0.00999836
0.00999826
0.00999823
0.00999819
0.0099981
0.00999795
0.00999774
0.00999751
0.00999732
0.00999725
0.00999732
0.00999753
0.00999785
0.00999822
0.0099986
0.00999897
0.00999931
0.00999961
0.00999986
)
;

boundaryField
{
    sides
    {
        type            zeroGradient;
    }
    inlet
    {
        type            zeroGradient;
    }
    outlet
    {
        type            fixedValue;
        value           uniform 0.01;
    }
    frontAndBack
    {
        type            empty;
    }
}


// ************************************************************************* //
