/*--------------------------------*- C++ -*----------------------------------*\
  =========                 |
  \\      /  F ield         | OpenFOAM: The Open Source CFD Toolbox
   \\    /   O peration     | Website:  https://openfoam.org
    \\  /    A nd           | Version:  9
     \\/     M anipulation  |
\*---------------------------------------------------------------------------*/
FoamFile
{
    format      ascii;
    class       volScalarField;
    location    "26";
    object      hTotal;
}
// * * * * * * * * * * * * * * * * * * * * * * * * * * * * * * * * * * * * * //

dimensions      [0 1 0 0 0 0 0];

internalField   nonuniform List<scalar> 
400
(
0.00999976
0.00999965
0.0099996
0.00999962
0.00999958
0.00999948
0.00999931
0.00999908
0.00999882
0.00999862
0.00999854
0.00999857
0.00999872
0.00999897
0.00999926
0.00999957
0.00999983
0.01
0.0100001
0.0100001
0.00999974
0.00999962
0.00999958
0.00999957
0.0099995
0.00999937
0.00999918
0.00999891
0.00999862
0.00999839
0.00999828
0.00999834
0.00999852
0.00999881
0.00999915
0.00999948
0.00999974
0.00999992
0.01
0.01
0.00999986
0.00999976
0.00999968
0.00999962
0.00999952
0.00999934
0.0099991
0.0099988
0.00999846
0.0099982
0.00999805
0.00999809
0.0099983
0.00999867
0.00999911
0.00999954
0.00999987
0.0100001
0.0100001
0.0100001
0.01
0.00999994
0.00999984
0.00999973
0.00999956
0.00999932
0.00999902
0.00999863
0.0099982
0.00999781
0.0099976
0.00999763
0.00999796
0.00999852
0.00999913
0.00999962
0.0099999
0.01
0.01
0.00999999
0.0100003
0.0100002
0.0100001
0.0099999
0.00999967
0.00999937
0.00999899
0.00999849
0.0099979
0.00999732
0.00999691
0.00999694
0.00999744
0.00999835
0.00999933
0.01
0.0100003
0.0100003
0.0100001
0.01
0.0100005
0.0100004
0.0100003
0.0100001
0.00999989
0.00999954
0.00999905
0.00999837
0.00999751
0.0099967
0.00999609
0.00999605
0.00999682
0.00999818
0.00999952
0.0100003
0.0100004
0.0100002
0.00999997
0.00999994
0.0100008
0.0100007
0.0100006
0.0100005
0.0100002
0.00999993
0.0099994
0.00999844
0.00999698
0.00999521
0.00999405
0.00999435
0.00999647
0.00999924
0.0100011
0.0100014
0.0100007
0.01
0.00999976
0.00999989
0.010001
0.010001
0.0100009
0.0100009
0.0100008
0.0100005
0.0100001
0.00999912
0.00999729
0.00999425
0.00999045
0.00999014
0.00999431
0.00999997
0.0100031
0.0100029
0.0100011
0.00999981
0.0099995
0.00999984
0.0100011
0.0100012
0.0100013
0.0100014
0.0100016
0.0100016
0.0100012
0.00999936
0.00999548
0.00998976
0.0099868
0.00998968
0.00999791
0.0100035
0.0100042
0.0100022
0.0100002
0.00999928
0.00999943
0.00999988
0.0100012
0.0100013
0.0100014
0.0100017
0.0100024
0.0100038
0.0100056
0.0100077
0.0100049
0.00997856
0.00995245
0.00997584
0.0100087
0.0100176
0.0100102
0.0100021
0.00999873
0.00999884
0.00999976
0.0100002
0.0100011
0.0100012
0.0100013
0.0100017
0.0100023
0.0100037
0.0100056
0.0100077
0.0100049
0.0099785
0.00995243
0.00997578
0.0100086
0.0100176
0.0100102
0.0100021
0.00999872
0.00999883
0.00999973
0.0100001
0.0100009
0.010001
0.0100011
0.0100012
0.0100013
0.0100014
0.010001
0.00999914
0.00999527
0.00998954
0.00998667
0.00998948
0.00999777
0.0100034
0.0100041
0.0100021
0.0100001
0.00999927
0.00999945
0.00999989
0.0100007
0.0100007
0.0100006
0.0100006
0.0100004
0.0100002
0.00999976
0.00999879
0.00999698
0.00999396
0.00999008
0.00998986
0.00999403
0.0099997
0.0100028
0.0100027
0.010001
0.00999973
0.00999947
0.00999983
0.0100003
0.0100003
0.0100002
0.01
0.00999978
0.00999946
0.00999892
0.00999796
0.00999649
0.00999475
0.00999358
0.00999393
0.00999609
0.00999891
0.0100008
0.0100011
0.0100005
0.00999986
0.00999965
0.00999985
0.00999994
0.00999986
0.00999973
0.00999954
0.00999928
0.00999894
0.00999844
0.00999775
0.00999692
0.00999612
0.00999557
0.00999555
0.00999636
0.00999776
0.00999914
0.00999996
0.0100001
0.00999996
0.00999984
0.0099999
0.00999954
0.00999945
0.00999932
0.00999915
0.00999892
0.00999862
0.00999823
0.00999774
0.00999716
0.00999659
0.00999621
0.00999627
0.00999682
0.00999777
0.00999881
0.00999957
0.00999992
0.00999997
0.00999994
0.00999995
0.00999917
0.00999907
0.00999896
0.00999884
0.00999866
0.00999843
0.00999812
0.00999774
0.00999733
0.00999698
0.00999681
0.00999688
0.00999725
0.00999786
0.00999855
0.00999915
0.00999955
0.00999976
0.00999987
0.00999994
0.00999885
0.00999873
0.00999865
0.00999859
0.00999847
0.00999829
0.00999806
0.00999776
0.00999744
0.00999717
0.00999706
0.00999715
0.00999744
0.00999787
0.00999839
0.0099989
0.00999932
0.00999962
0.00999982
0.00999994
0.00999861
0.00999849
0.00999842
0.00999841
0.00999835
0.00999822
0.00999804
0.00999779
0.00999754
0.00999734
0.00999727
0.00999734
0.00999757
0.00999793
0.00999836
0.00999881
0.00999921
0.00999954
0.00999978
0.00999993
0.00999839
0.00999826
0.00999821
0.00999823
0.0099982
0.0099981
0.00999794
0.00999771
0.00999747
0.00999729
0.00999724
0.00999733
0.00999755
0.00999787
0.00999825
0.00999865
0.00999904
0.00999938
0.00999967
0.00999988
)
;

boundaryField
{
    sides
    {
        type            calculated;
        value           nonuniform List<scalar> 
40
(
0.00999839
0.00999826
0.00999821
0.00999823
0.0099982
0.0099981
0.00999794
0.00999771
0.00999747
0.00999729
0.00999724
0.00999733
0.00999755
0.00999787
0.00999825
0.00999865
0.00999904
0.00999938
0.00999967
0.00999988
0.00999976
0.00999965
0.0099996
0.00999962
0.00999958
0.00999948
0.00999931
0.00999908
0.00999882
0.00999862
0.00999854
0.00999857
0.00999872
0.00999897
0.00999926
0.00999957
0.00999983
0.01
0.0100001
0.0100001
)
;
    }
    inlet
    {
        type            calculated;
        value           nonuniform List<scalar> 
20
(
0.00999976
0.00999974
0.00999986
0.01
0.0100003
0.0100005
0.0100008
0.010001
0.0100011
0.0100012
0.0100011
0.0100009
0.0100007
0.0100003
0.00999994
0.00999954
0.00999917
0.00999885
0.00999861
0.00999839
)
;
    }
    outlet
    {
        type            calculated;
        value           uniform 0.01;
    }
    frontAndBack
    {
        type            empty;
    }
}


// ************************************************************************* //
