/*--------------------------------*- C++ -*----------------------------------*\
  =========                 |
  \\      /  F ield         | OpenFOAM: The Open Source CFD Toolbox
   \\    /   O peration     | Website:  https://openfoam.org
    \\  /    A nd           | Version:  9
     \\/     M anipulation  |
\*---------------------------------------------------------------------------*/
FoamFile
{
    format      ascii;
    class       volVectorField;
    location    "26";
    object      hU;
}
// * * * * * * * * * * * * * * * * * * * * * * * * * * * * * * * * * * * * * //

dimensions      [0 2 -1 0 0 0 0];

internalField   nonuniform List<vector> 
400
(
(0.000999982 -2.58803e-08 0)
(0.00100014 -4.23234e-08 0)
(0.00100017 -7.68574e-08 0)
(0.00100021 -1.39787e-07 0)
(0.00100039 -1.99331e-07 0)
(0.00100062 -2.25731e-07 0)
(0.00100082 -2.23707e-07 0)
(0.001001 -2.189e-07 0)
(0.00100116 -2.17627e-07 0)
(0.0010013 -2.09779e-07 0)
(0.00100139 -1.74947e-07 0)
(0.00100139 -1.26563e-07 0)
(0.00100126 -8.50008e-08 0)
(0.00100103 -7.36733e-08 0)
(0.00100074 -8.6203e-08 0)
(0.00100048 -1.35379e-07 0)
(0.00100027 -1.63442e-07 0)
(0.00100017 -2.03822e-07 0)
(0.00100003 -1.85808e-07 0)
(0.00100004 -2.62715e-07 0)
(0.000999985 -3.67691e-08 0)
(0.00100014 -1.92759e-08 0)
(0.00100018 -4.19022e-08 0)
(0.00100023 -1.40272e-07 0)
(0.00100042 -2.43409e-07 0)
(0.00100066 -2.67939e-07 0)
(0.00100088 -2.17063e-07 0)
(0.00100108 -1.53905e-07 0)
(0.00100127 -1.03576e-07 0)
(0.00100144 -3.61535e-08 0)
(0.00100154 8.66245e-08 0)
(0.00100152 2.57455e-07 0)
(0.00100137 4.33637e-07 0)
(0.00100111 5.30549e-07 0)
(0.0010008 5.37567e-07 0)
(0.00100051 4.43689e-07 0)
(0.00100031 3.38848e-07 0)
(0.00100018 2.5625e-07 0)
(0.0010001 2.51828e-07 0)
(0.00100001 9.72769e-08 0)
(0.000999988 -7.05785e-08 0)
(0.00100012 -7.55677e-08 0)
(0.00100017 -1.38704e-07 0)
(0.00100024 -3.20166e-07 0)
(0.00100044 -5.15323e-07 0)
(0.00100068 -5.94143e-07 0)
(0.00100093 -5.56534e-07 0)
(0.00100117 -4.93043e-07 0)
(0.00100141 -4.36818e-07 0)
(0.00100162 -3.30095e-07 0)
(0.00100174 -1.16664e-07 0)
(0.00100173 1.80712e-07 0)
(0.00100155 4.69643e-07 0)
(0.00100122 6.01623e-07 0)
(0.00100082 5.46671e-07 0)
(0.00100046 3.40066e-07 0)
(0.0010002 1.48261e-07 0)
(0.00100008 4.24682e-08 0)
(0.000999976 5.5952e-08 0)
(0.001 -8.87446e-08 0)
(0.000999995 -9.37187e-08 0)
(0.00100011 -1.1165e-07 0)
(0.00100017 -2.06398e-07 0)
(0.00100026 -4.57358e-07 0)
(0.00100047 -7.27874e-07 0)
(0.00100073 -8.51165e-07 0)
(0.00100102 -8.22209e-07 0)
(0.00100134 -7.48007e-07 0)
(0.00100169 -6.49705e-07 0)
(0.001002 -4.49375e-07 0)
(0.00100219 -3.91272e-08 0)
(0.00100215 5.11775e-07 0)
(0.00100187 1.01978e-06 0)
(0.00100138 1.24063e-06 0)
(0.00100085 1.11084e-06 0)
(0.00100043 7.16246e-07 0)
(0.00100022 3.43107e-07 0)
(0.00100013 1.58981e-07 0)
(0.00100015 1.7262e-07 0)
(0.00100006 3.54791e-08 0)
(0.001 -1.12378e-07 0)
(0.00100008 -1.57356e-07 0)
(0.00100015 -2.90177e-07 0)
(0.00100026 -6.08701e-07 0)
(0.00100047 -9.67102e-07 0)
(0.00100076 -1.18009e-06 0)
(0.00100111 -1.22172e-06 0)
(0.00100155 -1.1827e-06 0)
(0.00100205 -1.05702e-06 0)
(0.00100254 -7.46545e-07 0)
(0.00100286 -1.83722e-07 0)
(0.00100283 5.93987e-07 0)
(0.00100238 1.31312e-06 0)
(0.00100158 1.61444e-06 0)
(0.00100073 1.43238e-06 0)
(0.00100015 9.33441e-07 0)
(0.000999945 4.86065e-07 0)
(0.001 2.99581e-07 0)
(0.0010001 3.47606e-07 0)
(0.00100013 2.05919e-07 0)
(0.00100001 -1.23929e-07 0)
(0.00100005 -1.98205e-07 0)
(0.00100011 -3.73762e-07 0)
(0.00100022 -7.56069e-07 0)
(0.00100042 -1.2145e-06 0)
(0.00100072 -1.56139e-06 0)
(0.00100116 -1.7776e-06 0)
(0.00100178 -1.89357e-06 0)
(0.00100253 -1.78748e-06 0)
(0.00100324 -1.16437e-06 0)
(0.00100372 7.52341e-08 0)
(0.00100371 1.56642e-06 0)
(0.00100302 2.52307e-06 0)
(0.00100183 2.40897e-06 0)
(0.00100071 1.48181e-06 0)
(0.00100004 4.55888e-07 0)
(0.000999972 -8.50214e-08 0)
(0.00100012 -1.12239e-07 0)
(0.00100037 1.2307e-07 0)
(0.00100025 8.56426e-08 0)
(0.00100002 -1.1987e-07 0)
(0.00100001 -2.25946e-07 0)
(0.00100005 -4.30987e-07 0)
(0.00100012 -8.79596e-07 0)
(0.00100026 -1.42758e-06 0)
(0.00100052 -1.97679e-06 0)
(0.00100101 -2.41506e-06 0)
(0.00100188 -2.94068e-06 0)
(0.0010032 -3.12311e-06 0)
(0.0010047 -2.84493e-06 0)
(0.00100569 -6.88058e-07 0)
(0.00100528 2.56364e-06 0)
(0.00100341 4.89445e-06 0)
(0.00100102 4.82011e-06 0)
(0.00099949 3.06737e-06 0)
(0.000999219 1.21382e-06 0)
(0.000999801 3.30272e-07 0)
(0.0010003 3.00514e-07 0)
(0.00100064 6.23431e-07 0)
(0.00100036 5.65804e-07 0)
(0.00100002 -1.05521e-07 0)
(0.000999967 -2.06223e-07 0)
(0.000999933 -4.43874e-07 0)
(0.000999935 -8.91677e-07 0)
(0.000999942 -1.60622e-06 0)
(0.00100013 -2.37154e-06 0)
(0.00100051 -3.34234e-06 0)
(0.00100152 -4.00579e-06 0)
(0.00100308 -4.27919e-06 0)
(0.00100599 -2.52176e-06 0)
(0.00100904 7.52488e-07 0)
(0.00100906 4.27868e-06 0)
(0.00100541 4.7693e-06 0)
(0.00100065 2.83741e-06 0)
(0.000998045 7.57092e-07 0)
(0.000998133 -3.24265e-07 0)
(0.000999594 -3.78107e-07 0)
(0.0010006 -4.30258e-08 0)
(0.00100104 2.49166e-07 0)
(0.00100055 1.26872e-07 0)
(0.00100002 -5.73279e-08 0)
(0.000999907 -1.51517e-07 0)
(0.000999784 -3.03946e-07 0)
(0.000999605 -6.97571e-07 0)
(0.00099936 -1.36295e-06 0)
(0.000999254 -2.50677e-06 0)
(0.000999717 -4.65732e-06 0)
(0.00100139 -7.99908e-06 0)
(0.0010049 -1.32277e-05 0)
(0.00100956 -1.48922e-05 0)
(0.00101183 3.84734e-06 0)
(0.00100883 1.87446e-05 0)
(0.00100211 1.58246e-05 0)
(0.000997472 5.78119e-06 0)
(0.000996784 -3.0794e-07 0)
(0.00099832 -1.29958e-06 0)
(0.00100007 -1.7564e-07 0)
(0.00100072 5.93105e-07 0)
(0.00100078 6.61246e-07 0)
(0.00100024 2.58702e-07 0)
(0.000999831 -2.31876e-08 0)
(0.00100016 -5.053e-08 0)
(0.000999242 -1.29244e-07 0)
(0.000999984 -2.47784e-07 0)
(0.000997601 -6.17708e-07 0)
(0.000998883 -1.16022e-06 0)
(0.000993349 -2.89618e-06 0)
(0.000997528 -5.592e-06 0)
(0.000991658 -1.15368e-05 0)
(0.000915811 -1.26955e-05 0)
(0.000951404 2.80877e-07 0)
(0.00101013 1.46529e-05 0)
(0.000990856 1.31054e-05 0)
(0.000983883 5.15738e-06 0)
(0.000989487 1.92979e-07 0)
(0.000996146 -8.081e-07 0)
(0.000999029 -1.58927e-07 0)
(0.000999133 2.15247e-07 0)
(0.000998353 1.60648e-07 0)
(0.000998202 -1.78064e-07 0)
(0.00099983 1.25118e-08 0)
(0.00100016 1.79054e-08 0)
(0.000999242 7.09785e-08 0)
(0.000999983 1.61019e-07 0)
(0.000997598 5.03315e-07 0)
(0.000998878 1.02189e-06 0)
(0.000993341 2.73983e-06 0)
(0.000997518 5.42613e-06 0)
(0.000991645 1.13708e-05 0)
(0.000915792 1.25405e-05 0)
(0.000951375 -4.5596e-07 0)
(0.0010101 -1.488e-05 0)
(0.000990845 -1.33926e-05 0)
(0.000983874 -5.54145e-06 0)
(0.000989465 -6.67882e-07 0)
(0.000996108 2.22012e-07 0)
(0.000998988 -4.88622e-07 0)
(0.000999087 -1.02637e-06 0)
(0.000998338 -1.02801e-06 0)
(0.000998152 -8.93837e-07 0)
(0.00100002 4.71308e-08 0)
(0.000999907 1.20345e-07 0)
(0.000999785 2.47615e-07 0)
(0.000999608 6.13405e-07 0)
(0.000999362 1.25197e-06 0)
(0.000999256 2.36943e-06 0)
(0.000999714 4.50086e-06 0)
(0.00100138 7.82643e-06 0)
(0.00100488 1.30509e-05 0)
(0.00100955 1.47027e-05 0)
(0.00101184 -4.03932e-06 0)
(0.0010088 -1.8979e-05 0)
(0.00100204 -1.60993e-05 0)
(0.000997389 -6.15236e-06 0)
(0.000996717 -1.12539e-07 0)
(0.000998267 7.64821e-07 0)
(0.000999961 -4.18335e-07 0)
(0.00100057 -1.32156e-06 0)
(0.00100058 -1.43914e-06 0)
(0.00100007 -1.26608e-06 0)
(0.00100002 9.69309e-08 0)
(0.000999967 1.76783e-07 0)
(0.000999934 3.89254e-07 0)
(0.000999934 8.09966e-07 0)
(0.000999935 1.49446e-06 0)
(0.00100012 2.22974e-06 0)
(0.00100048 3.17469e-06 0)
(0.00100148 3.82596e-06 0)
(0.00100303 4.09653e-06 0)
(0.00100593 2.34293e-06 0)
(0.00100895 -9.45598e-07 0)
(0.00100898 -4.51089e-06 0)
(0.00100533 -5.03647e-06 0)
(0.00100058 -3.17846e-06 0)
(0.000997958 -1.16922e-06 0)
(0.000997991 -2.50451e-07 0)
(0.000999415 -2.90315e-07 0)
(0.00100037 -7.59461e-07 0)
(0.00100077 -1.05119e-06 0)
(0.00100025 -1.09874e-06 0)
(0.00100002 1.11802e-07 0)
(0.00100001 1.96427e-07 0)
(0.00100005 3.78231e-07 0)
(0.00100012 8.02385e-07 0)
(0.00100025 1.32598e-06 0)
(0.0010005 1.85145e-06 0)
(0.00100098 2.27632e-06 0)
(0.00100185 2.79643e-06 0)
(0.00100316 2.98408e-06 0)
(0.00100466 2.70404e-06 0)
(0.00100563 5.43862e-07 0)
(0.00100521 -2.73124e-06 0)
(0.00100331 -5.11499e-06 0)
(0.00100088 -5.14737e-06 0)
(0.000999301 -3.50669e-06 0)
(0.000998978 -1.79153e-06 0)
(0.000999539 -9.71973e-07 0)
(0.000999989 -1.07593e-06 0)
(0.00100032 -1.40728e-06 0)
(0.000999929 -1.54662e-06 0)
(0.00100001 1.16514e-07 0)
(0.00100005 1.7111e-07 0)
(0.00100011 3.27119e-07 0)
(0.00100022 6.88486e-07 0)
(0.00100041 1.12617e-06 0)
(0.0010007 1.45345e-06 0)
(0.00100113 1.65514e-06 0)
(0.00100173 1.75887e-06 0)
(0.00100246 1.64417e-06 0)
(0.00100315 1.00785e-06 0)
(0.00100361 -2.36432e-07 0)
(0.00100357 -1.76751e-06 0)
(0.00100285 -2.77076e-06 0)
(0.00100162 -2.72832e-06 0)
(0.00100047 -1.84453e-06 0)
(0.000999761 -8.94038e-07 0)
(0.000999659 -3.75402e-07 0)
(0.000999732 -4.62641e-07 0)
(0.000999934 -7.22853e-07 0)
(0.000999697 -8.83864e-07 0)
(0.001 1.06115e-07 0)
(0.00100008 1.33533e-07 0)
(0.00100015 2.50687e-07 0)
(0.00100025 5.53551e-07 0)
(0.00100046 8.94082e-07 0)
(0.00100073 1.08985e-06 0)
(0.00100107 1.11726e-06 0)
(0.0010015 1.07134e-06 0)
(0.00100198 9.42936e-07 0)
(0.00100246 6.29547e-07 0)
(0.00100276 4.87132e-08 0)
(0.00100269 -7.63227e-07 0)
(0.00100222 -1.51021e-06 0)
(0.00100139 -1.87089e-06 0)
(0.00100051 -1.73677e-06 0)
(0.000999858 -1.34871e-06 0)
(0.000999606 -9.77277e-07 0)
(0.000999537 -9.56221e-07 0)
(0.000999607 -1.05607e-06 0)
(0.000999455 -1.14483e-06 0)
(0.000999994 8.87795e-08 0)
(0.00100011 9.29904e-08 0)
(0.00100017 1.75437e-07 0)
(0.00100026 4.11842e-07 0)
(0.00100045 6.67917e-07 0)
(0.0010007 7.80977e-07 0)
(0.00100098 7.47779e-07 0)
(0.00100128 6.71965e-07 0)
(0.00100161 5.7835e-07 0)
(0.00100188 3.84042e-07 0)
(0.00100203 -1.72947e-08 0)
(0.00100198 -5.71483e-07 0)
(0.00100167 -1.09715e-06 0)
(0.00100112 -1.37682e-06 0)
(0.00100054 -1.29541e-06 0)
(0.00100002 -9.94193e-07 0)
(0.000999732 -6.54828e-07 0)
(0.000999524 -5.76618e-07 0)
(0.000999485 -5.88467e-07 0)
(0.000999252 -6.30541e-07 0)
(0.000999988 6.44574e-08 0)
(0.00100013 5.1052e-08 0)
(0.00100018 1.00647e-07 0)
(0.00100024 2.7016e-07 0)
(0.00100043 4.46339e-07 0)
(0.00100066 4.99624e-07 0)
(0.00100089 4.38849e-07 0)
(0.00100112 3.52099e-07 0)
(0.00100134 2.74258e-07 0)
(0.00100154 1.40681e-07 0)
(0.00100164 -9.20532e-08 0)
(0.00100158 -4.20934e-07 0)
(0.00100136 -7.35541e-07 0)
(0.00100097 -9.21623e-07 0)
(0.00100053 -9.05612e-07 0)
(0.00100008 -7.75601e-07 0)
(0.000999776 -6.04889e-07 0)
(0.000999492 -6.11276e-07 0)
(0.000999368 -6.39044e-07 0)
(0.000999078 -7.11493e-07 0)
(0.000999984 4.64087e-08 0)
(0.00100014 4.69042e-08 0)
(0.00100017 8.8059e-08 0)
(0.00100022 2.03053e-07 0)
(0.00100039 3.21539e-07 0)
(0.00100061 3.6366e-07 0)
(0.0010008 3.34268e-07 0)
(0.00100098 2.941e-07 0)
(0.00100114 2.65488e-07 0)
(0.00100127 2.14896e-07 0)
(0.00100135 9.8186e-08 0)
(0.00100131 -7.14499e-08 0)
(0.00100114 -2.39672e-07 0)
(0.0010008 -3.48421e-07 0)
(0.00100043 -3.497e-07 0)
(0.00100002 -2.85987e-07 0)
(0.000999734 -1.8189e-07 0)
(0.000999429 -1.81144e-07 0)
(0.000999262 -1.72807e-07 0)
(0.000998942 -2.17206e-07 0)
(0.00099998 3.0212e-09 0)
(0.00100015 -2.19694e-08 0)
(0.00100018 -3.35354e-08 0)
(0.00100022 -2.39384e-08 0)
(0.00100039 -9.59047e-09 0)
(0.0010006 -1.54738e-08 0)
(0.00100079 -4.28483e-08 0)
(0.00100094 -7.4086e-08 0)
(0.00100108 -9.82424e-08 0)
(0.0010012 -1.26825e-07 0)
(0.00100126 -1.63526e-07 0)
(0.00100121 -2.30921e-07 0)
(0.00100105 -3.04522e-07 0)
(0.00100075 -3.60093e-07 0)
(0.00100042 -3.71484e-07 0)
(0.00100004 -3.67529e-07 0)
(0.000999781 -3.3382e-07 0)
(0.00099943 -3.57661e-07 0)
(0.000999275 -3.47724e-07 0)
(0.000998828 -4.16617e-07 0)
)
;

boundaryField
{
    sides
    {
        type            slip;
    }
    inlet
    {
        type            fixedValue;
        value           uniform (0.001 0 0);
    }
    outlet
    {
        type            zeroGradient;
    }
    frontAndBack
    {
        type            empty;
    }
}


// ************************************************************************* //
