/*--------------------------------*- C++ -*----------------------------------*\
  =========                 |
  \\      /  F ield         | OpenFOAM: The Open Source CFD Toolbox
   \\    /   O peration     | Website:  https://openfoam.org
    \\  /    A nd           | Version:  9
     \\/     M anipulation  |
\*---------------------------------------------------------------------------*/
FoamFile
{
    format      ascii;
    class       volVectorField;
    location    "26";
    object      hU_0;
}
// * * * * * * * * * * * * * * * * * * * * * * * * * * * * * * * * * * * * * //

dimensions      [0 2 -1 0 0 0 0];

internalField   nonuniform List<vector> 
400
(
(0.000999997 -1.97924e-08 0)
(0.00100016 -3.52838e-08 0)
(0.00100017 -7.48094e-08 0)
(0.00100023 -1.42334e-07 0)
(0.00100042 -2.00637e-07 0)
(0.00100064 -2.23287e-07 0)
(0.00100082 -2.21387e-07 0)
(0.00100099 -2.20406e-07 0)
(0.00100115 -2.22215e-07 0)
(0.0010013 -2.13823e-07 0)
(0.00100139 -1.76475e-07 0)
(0.00100139 -1.25546e-07 0)
(0.00100126 -8.46053e-08 0)
(0.00100102 -7.51789e-08 0)
(0.00100073 -8.93305e-08 0)
(0.00100048 -1.38353e-07 0)
(0.00100027 -1.63828e-07 0)
(0.00100016 -2.0214e-07 0)
(0.00100001 -1.84348e-07 0)
(0.00100003 -2.62976e-07 0)
(0.000999997 -1.82225e-08 0)
(0.00100015 5.80172e-09 0)
(0.00100018 -3.28821e-08 0)
(0.00100025 -1.45982e-07 0)
(0.00100045 -2.47817e-07 0)
(0.00100068 -2.62795e-07 0)
(0.00100088 -2.11239e-07 0)
(0.00100107 -1.56455e-07 0)
(0.00100127 -1.13889e-07 0)
(0.00100144 -4.50318e-08 0)
(0.00100155 8.33753e-08 0)
(0.00100153 2.60022e-07 0)
(0.00100137 4.34759e-07 0)
(0.0010011 5.25107e-07 0)
(0.00100079 5.27969e-07 0)
(0.0010005 4.3416e-07 0)
(0.00100031 3.38527e-07 0)
(0.00100017 2.66136e-07 0)
(0.00100008 2.55114e-07 0)
(0.000999998 9.4365e-08 0)
(0.000999999 -4.26853e-08 0)
(0.00100013 -3.63234e-08 0)
(0.00100017 -1.24652e-07 0)
(0.00100026 -3.29431e-07 0)
(0.00100046 -5.2272e-07 0)
(0.00100069 -5.87118e-07 0)
(0.00100093 -5.47012e-07 0)
(0.00100117 -4.95267e-07 0)
(0.00100141 -4.50008e-07 0)
(0.00100162 -3.41504e-07 0)
(0.00100174 -1.18208e-07 0)
(0.00100173 1.85678e-07 0)
(0.00100154 4.72352e-07 0)
(0.00100121 5.9394e-07 0)
(0.00100081 5.31715e-07 0)
(0.00100045 3.26193e-07 0)
(0.00100019 1.47837e-07 0)
(0.00100008 5.5237e-08 0)
(0.000999962 6.06136e-08 0)
(0.000999989 -9.26454e-08 0)
(0.001 -6.16096e-08 0)
(0.00100011 -6.66037e-08 0)
(0.00100016 -1.91798e-07 0)
(0.00100026 -4.70875e-07 0)
(0.00100048 -7.3766e-07 0)
(0.00100074 -8.41865e-07 0)
(0.00100102 -8.08372e-07 0)
(0.00100134 -7.48878e-07 0)
(0.00100169 -6.63349e-07 0)
(0.001002 -4.61829e-07 0)
(0.00100219 -3.82404e-08 0)
(0.00100215 5.21541e-07 0)
(0.00100186 1.02465e-06 0)
(0.00100137 1.23227e-06 0)
(0.00100084 1.09204e-06 0)
(0.00100042 6.98507e-07 0)
(0.00100022 3.43378e-07 0)
(0.00100012 1.75579e-07 0)
(0.00100014 1.77756e-07 0)
(0.00100006 2.92345e-08 0)
(0.001 -7.92882e-08 0)
(0.00100008 -1.10259e-07 0)
(0.00100014 -2.76237e-07 0)
(0.00100026 -6.24723e-07 0)
(0.00100047 -9.78434e-07 0)
(0.00100076 -1.16908e-06 0)
(0.00100111 -1.20461e-06 0)
(0.00100155 -1.18048e-06 0)
(0.00100205 -1.06897e-06 0)
(0.00100253 -7.54452e-07 0)
(0.00100286 -1.80903e-07 0)
(0.00100283 6.07658e-07 0)
(0.00100237 1.32153e-06 0)
(0.00100157 1.60721e-06 0)
(0.00100073 1.41372e-06 0)
(0.00100014 9.14698e-07 0)
(0.000999943 4.85936e-07 0)
(0.000999996 3.18056e-07 0)
(0.00100009 3.52444e-07 0)
(0.00100012 1.98758e-07 0)
(0.00100001 -9.34542e-08 0)
(0.00100005 -1.54309e-07 0)
(0.0010001 -3.61905e-07 0)
(0.00100021 -7.73216e-07 0)
(0.00100041 -1.22582e-06 0)
(0.00100072 -1.54902e-06 0)
(0.00100116 -1.75802e-06 0)
(0.00100178 -1.88906e-06 0)
(0.00100253 -1.79633e-06 0)
(0.00100323 -1.16974e-06 0)
(0.00100371 8.58355e-08 0)
(0.0010037 1.58256e-06 0)
(0.00100301 2.53439e-06 0)
(0.00100182 2.40293e-06 0)
(0.0010007 1.46322e-06 0)
(0.00100003 4.37979e-07 0)
(0.000999963 -8.49843e-08 0)
(0.00100011 -9.65008e-08 0)
(0.00100036 1.27849e-07 0)
(0.00100025 8.00538e-08 0)
(0.00100001 -9.51082e-08 0)
(0.00100001 -1.89096e-07 0)
(0.00100004 -4.21929e-07 0)
(0.00100011 -8.96036e-07 0)
(0.00100025 -1.43769e-06 0)
(0.00100051 -1.96449e-06 0)
(0.001001 -2.39576e-06 0)
(0.00100188 -2.933e-06 0)
(0.0010032 -3.1246e-06 0)
(0.0010047 -2.84579e-06 0)
(0.00100568 -6.72089e-07 0)
(0.00100527 2.58408e-06 0)
(0.0010034 4.90725e-06 0)
(0.00100101 4.81753e-06 0)
(0.000999481 3.05081e-06 0)
(0.000999212 1.19495e-06 0)
(0.000999793 3.27142e-07 0)
(0.0010003 3.14711e-07 0)
(0.00100064 6.27191e-07 0)
(0.00100035 5.59969e-07 0)
(0.00100001 -8.80058e-08 0)
(0.000999955 -1.79353e-07 0)
(0.000999921 -4.38098e-07 0)
(0.000999919 -9.05327e-07 0)
(0.000999925 -1.61437e-06 0)
(0.00100012 -2.36144e-06 0)
(0.0010005 -3.32626e-06 0)
(0.00100152 -3.99755e-06 0)
(0.00100308 -4.278e-06 0)
(0.00100598 -2.5148e-06 0)
(0.00100902 7.62363e-07 0)
(0.00100904 4.29826e-06 0)
(0.0010054 4.78255e-06 0)
(0.00100064 2.83769e-06 0)
(0.000998032 7.47223e-07 0)
(0.000998121 -3.37961e-07 0)
(0.000999583 -3.80922e-07 0)
(0.00100059 -3.26362e-08 0)
(0.00100104 2.52487e-07 0)
(0.00100055 1.23174e-07 0)
(0.00100001 -4.66008e-08 0)
(0.000999893 -1.35078e-07 0)
(0.000999772 -3.01119e-07 0)
(0.000999586 -7.06833e-07 0)
(0.00099934 -1.36849e-06 0)
(0.00099924 -2.50027e-06 0)
(0.000999714 -4.64601e-06 0)
(0.00100139 -7.99224e-06 0)
(0.00100491 -1.32251e-05 0)
(0.00100955 -1.48857e-05 0)
(0.00101181 3.8543e-06 0)
(0.00100882 1.87583e-05 0)
(0.00100209 1.58339e-05 0)
(0.000997459 5.78156e-06 0)
(0.000996771 -3.12589e-07 0)
(0.000998307 -1.3061e-06 0)
(0.00100005 -1.74753e-07 0)
(0.00100072 6.01396e-07 0)
(0.00100078 6.64518e-07 0)
(0.00100024 2.57379e-07 0)
(0.000999823 -1.91048e-08 0)
(0.00100014 -4.48993e-08 0)
(0.000999229 -1.28792e-07 0)
(0.000999964 -2.51422e-07 0)
(0.000997578 -6.20221e-07 0)
(0.000998868 -1.15804e-06 0)
(0.000993348 -2.89149e-06 0)
(0.000997534 -5.5879e-06 0)
(0.00099166 -1.15323e-05 0)
(0.000915799 -1.26936e-05 0)
(0.00095139 2.85171e-07 0)
(0.00101011 1.46562e-05 0)
(0.000990838 1.31058e-05 0)
(0.000983869 5.15609e-06 0)
(0.000989474 1.88887e-07 0)
(0.000996131 -8.12638e-07 0)
(0.000999014 -1.59419e-07 0)
(0.000999127 2.18771e-07 0)
(0.000998354 1.63445e-07 0)
(0.000998203 -1.76632e-07 0)
(0.000999822 8.92207e-09 0)
(0.00100014 1.21783e-08 0)
(0.00099923 6.95934e-08 0)
(0.000999963 1.63559e-07 0)
(0.000997575 5.04032e-07 0)
(0.000998862 1.01857e-06 0)
(0.000993339 2.73562e-06 0)
(0.000997523 5.42364e-06 0)
(0.000991646 1.1369e-05 0)
(0.00091578 1.25389e-05 0)
(0.000951359 -4.57091e-07 0)
(0.00101009 -1.48884e-05 0)
(0.00099083 -1.33995e-05 0)
(0.00098386 -5.54797e-06 0)
(0.000989452 -6.72213e-07 0)
(0.000996095 2.20385e-07 0)
(0.000998974 -4.88574e-07 0)
(0.000999081 -1.02783e-06 0)
(0.000998339 -1.02571e-06 0)
(0.000998153 -8.8949e-07 0)
(0.00100001 3.7011e-08 0)
(0.000999893 1.03731e-07 0)
(0.000999773 2.43291e-07 0)
(0.000999588 6.2058e-07 0)
(0.00099934 1.2555e-06 0)
(0.000999242 2.36134e-06 0)
(0.00099971 4.48914e-06 0)
(0.00100139 7.82138e-06 0)
(0.00100488 1.30504e-05 0)
(0.00100954 1.46999e-05 0)
(0.00101181 -4.04859e-06 0)
(0.00100879 -1.89931e-05 0)
(0.00100203 -1.61138e-05 0)
(0.000997376 -6.1607e-06 0)
(0.000996705 -1.13337e-07 0)
(0.000998255 7.67969e-07 0)
(0.000999949 -4.18113e-07 0)
(0.00100056 -1.32727e-06 0)
(0.00100058 -1.43793e-06 0)
(0.00100007 -1.25961e-06 0)
(0.00100001 7.97024e-08 0)
(0.000999954 1.48838e-07 0)
(0.000999922 3.81358e-07 0)
(0.000999917 8.20852e-07 0)
(0.000999917 1.50034e-06 0)
(0.00100011 2.21807e-06 0)
(0.00100048 3.15789e-06 0)
(0.00100148 3.81932e-06 0)
(0.00100303 4.0979e-06 0)
(0.00100591 2.33967e-06 0)
(0.00100895 -9.58622e-07 0)
(0.00100896 -4.53034e-06 0)
(0.00100532 -5.0547e-06 0)
(0.00100057 -3.18568e-06 0)
(0.000997947 -1.16571e-06 0)
(0.000997981 -2.43021e-07 0)
(0.000999405 -2.91317e-07 0)
(0.00100036 -7.70602e-07 0)
(0.00100076 -1.05095e-06 0)
(0.00100025 -1.09006e-06 0)
(0.00100001 8.58318e-08 0)
(0.001 1.57647e-07 0)
(0.00100004 3.67202e-07 0)
(0.00100011 8.1606e-07 0)
(0.00100024 1.33343e-06 0)
(0.00100049 1.83753e-06 0)
(0.00100098 2.25644e-06 0)
(0.00100185 2.78922e-06 0)
(0.00100316 2.98803e-06 0)
(0.00100465 2.70578e-06 0)
(0.00100562 5.33143e-07 0)
(0.00100519 -2.75305e-06 0)
(0.0010033 -5.13267e-06 0)
(0.00100087 -5.15202e-06 0)
(0.000999292 -3.49834e-06 0)
(0.000998969 -1.7804e-06 0)
(0.00099953 -9.73194e-07 0)
(0.000999984 -1.09062e-06 0)
(0.00100032 -1.40777e-06 0)
(0.000999926 -1.53647e-06 0)
(0.00100001 8.43851e-08 0)
(0.00100005 1.24991e-07 0)
(0.00100011 3.13261e-07 0)
(0.00100021 7.0306e-07 0)
(0.0010004 1.13433e-06 0)
(0.00100069 1.43897e-06 0)
(0.00100113 1.6354e-06 0)
(0.00100173 1.75553e-06 0)
(0.00100246 1.65557e-06 0)
(0.00100314 1.01545e-06 0)
(0.0010036 -2.45875e-07 0)
(0.00100357 -1.78808e-06 0)
(0.00100284 -2.7876e-06 0)
(0.00100162 -2.7295e-06 0)
(0.00100047 -1.83291e-06 0)
(0.000999753 -8.80649e-07 0)
(0.000999652 -3.75438e-07 0)
(0.000999727 -4.78015e-07 0)
(0.000999928 -7.24108e-07 0)
(0.000999692 -8.73427e-07 0)
(0.001 7.17084e-08 0)
(0.00100008 8.43115e-08 0)
(0.00100014 2.34788e-07 0)
(0.00100025 5.67625e-07 0)
(0.00100046 9.02641e-07 0)
(0.00100073 1.07623e-06 0)
(0.00100107 1.09981e-06 0)
(0.00100149 1.07096e-06 0)
(0.00100197 9.57339e-07 0)
(0.00100245 6.40694e-07 0)
(0.00100276 4.46735e-08 0)
(0.00100269 -7.78209e-07 0)
(0.00100222 -1.52198e-06 0)
(0.00100138 -1.86918e-06 0)
(0.00100051 -1.72322e-06 0)
(0.000999853 -1.33361e-06 0)
(0.000999602 -9.77021e-07 0)
(0.000999531 -9.72422e-07 0)
(0.000999598 -1.05768e-06 0)
(0.000999448 -1.13455e-06 0)
(0.001 5.49319e-08 0)
(0.00100011 4.52822e-08 0)
(0.00100017 1.58487e-07 0)
(0.00100026 4.23051e-07 0)
(0.00100046 6.76018e-07 0)
(0.00100071 7.7043e-07 0)
(0.00100098 7.3409e-07 0)
(0.00100128 6.7413e-07 0)
(0.0010016 5.94292e-07 0)
(0.00100187 3.98493e-07 0)
(0.00100203 -1.60065e-08 0)
(0.00100198 -5.80994e-07 0)
(0.00100166 -1.10457e-06 0)
(0.00100112 -1.37201e-06 0)
(0.00100053 -1.2802e-06 0)
(0.00100001 -9.7907e-07 0)
(0.000999728 -6.54938e-07 0)
(0.000999518 -5.92143e-07 0)
(0.000999474 -5.90387e-07 0)
(0.000999244 -6.21387e-07 0)
(0.000999998 3.61529e-08 0)
(0.00100014 1.24726e-08 0)
(0.00100018 8.57475e-08 0)
(0.00100025 2.78198e-07 0)
(0.00100044 4.5269e-07 0)
(0.00100067 4.92142e-07 0)
(0.00100089 4.29672e-07 0)
(0.00100111 3.56355e-07 0)
(0.00100133 2.89994e-07 0)
(0.00100154 1.54768e-07 0)
(0.00100165 -8.91133e-08 0)
(0.00100158 -4.26847e-07 0)
(0.00100136 -7.39812e-07 0)
(0.00100097 -9.16319e-07 0)
(0.00100052 -8.92794e-07 0)
(0.00100007 -7.63528e-07 0)
(0.000999774 -6.04779e-07 0)
(0.000999485 -6.23518e-07 0)
(0.000999355 -6.41413e-07 0)
(0.000999071 -7.04814e-07 0)
(0.000999997 2.63355e-08 0)
(0.00100015 1.91863e-08 0)
(0.00100017 7.62469e-08 0)
(0.00100023 2.06521e-07 0)
(0.00100042 3.25412e-07 0)
(0.00100062 3.59721e-07 0)
(0.0010008 3.29723e-07 0)
(0.00100097 2.97768e-07 0)
(0.00100113 2.76505e-07 0)
(0.00100127 2.24621e-07 0)
(0.00100135 1.01249e-07 0)
(0.00100132 -7.37583e-08 0)
(0.00100113 -2.41542e-07 0)
(0.00100079 -3.44584e-07 0)
(0.00100042 -3.41113e-07 0)
(0.00100002 -2.77821e-07 0)
(0.000999733 -1.81866e-07 0)
(0.000999422 -1.89478e-07 0)
(0.000999249 -1.74419e-07 0)
(0.000998935 -2.12789e-07 0)
(0.000999995 -5.20552e-09 0)
(0.00100017 -3.38672e-08 0)
(0.00100019 -3.90658e-08 0)
(0.00100024 -2.40276e-08 0)
(0.00100042 -8.3566e-09 0)
(0.00100062 -1.61584e-08 0)
(0.00100079 -4.38774e-08 0)
(0.00100094 -7.29991e-08 0)
(0.00100108 -9.52821e-08 0)
(0.0010012 -1.24042e-07 0)
(0.00100127 -1.62116e-07 0)
(0.00100122 -2.32048e-07 0)
(0.00100105 -3.0511e-07 0)
(0.00100074 -3.58198e-07 0)
(0.00100042 -3.68019e-07 0)
(0.00100003 -3.64449e-07 0)
(0.00099978 -3.3386e-07 0)
(0.000999424 -3.60711e-07 0)
(0.000999261 -3.48169e-07 0)
(0.000998821 -4.14967e-07 0)
)
;

boundaryField
{
    sides
    {
        type            slip;
    }
    inlet
    {
        type            fixedValue;
        value           uniform (0.001 0 0);
    }
    outlet
    {
        type            zeroGradient;
    }
    frontAndBack
    {
        type            empty;
    }
}


// ************************************************************************* //
