/*--------------------------------*- C++ -*----------------------------------*\
  =========                 |
  \\      /  F ield         | OpenFOAM: The Open Source CFD Toolbox
   \\    /   O peration     | Website:  https://openfoam.org
    \\  /    A nd           | Version:  9
     \\/     M anipulation  |
\*---------------------------------------------------------------------------*/
FoamFile
{
    format      ascii;
    class       surfaceScalarField;
    location    "26";
    object      phi_0;
}
// * * * * * * * * * * * * * * * * * * * * * * * * * * * * * * * * * * * * * //

dimensions      [0 4 -1 0 0 0 0];

internalField   nonuniform List<scalar> 
760
(
5.00048e-06
-7.81988e-11
5.00079e-06
-5.03982e-11
5.00112e-06
-2.1326e-10
5.00173e-06
-6.20627e-10
5.00266e-06
-9.93937e-10
5.0037e-06
-1.07845e-09
5.00464e-06
-9.45466e-10
5.00549e-06
-8.02554e-10
5.00627e-06
-6.98911e-10
5.00686e-06
-5.16677e-10
5.00702e-06
-1.58516e-10
5.00655e-06
4.44053e-10
5.00548e-06
1.01306e-09
5.00412e-06
1.27599e-09
5.00277e-06
1.25669e-09
5.00174e-06
8.91717e-10
5.00099e-06
5.79267e-10
5.00054e-06
2.71912e-10
5.00012e-06
2.77606e-10
-3.42397e-10
5.00048e-06
-1.67941e-10
5.00079e-06
-9.87636e-11
5.00116e-06
-4.45918e-10
5.00182e-06
-1.27508e-09
5.00282e-06
-2.02635e-09
5.00393e-06
-2.23075e-09
5.005e-06
-2.01326e-09
5.00602e-06
-1.76715e-09
5.00698e-06
-1.57509e-09
5.00766e-06
-1.13404e-09
5.00768e-06
-1.58067e-10
5.00711e-06
9.72187e-10
5.00593e-06
2.13748e-09
5.00439e-06
2.72751e-09
5.00295e-06
2.5824e-09
5.00194e-06
1.75143e-09
5.00131e-06
1.02618e-09
5.00078e-06
6.14043e-10
5.0003e-06
6.11284e-10
-3.79901e-11
5.00037e-06
-2.60451e-10
5.00072e-06
-2.60281e-10
5.00115e-06
-7.64628e-10
5.00185e-06
-1.94629e-09
5.00288e-06
-3.07343e-09
5.0041e-06
-3.48188e-09
5.00539e-06
-3.28501e-09
5.00666e-06
-2.99677e-09
5.00782e-06
-2.65448e-09
5.00862e-06
-1.90165e-09
5.00883e-06
-3.69776e-10
5.00807e-06
1.68652e-09
5.00652e-06
3.61335e-09
5.00459e-06
4.55655e-09
5.00276e-06
4.27672e-09
5.00147e-06
2.86945e-09
5.00077e-06
1.51955e-09
5.00035e-06
8.17804e-10
5e-06
7.99936e-10
-1.00748e-10
5.00027e-06
-3.56179e-10
5.00061e-06
-4.47381e-10
5.00111e-06
-1.15376e-09
5.00189e-06
-2.68863e-09
5.00301e-06
-4.20301e-09
5.00443e-06
-4.90619e-09
5.00606e-06
-4.91556e-09
5.00788e-06
-4.79228e-09
5.00971e-06
-4.45234e-09
5.01093e-06
-3.09482e-09
5.01103e-06
-5.00868e-10
5.00975e-06
2.92283e-09
5.00726e-06
6.01295e-09
5.0046e-06
7.09551e-09
5.00278e-06
5.94859e-09
5.00184e-06
3.60868e-09
5.00141e-06
1.70643e-09
5.00105e-06
9.4667e-10
5.00061e-06
1.08037e-09
4.74798e-10
5.00015e-06
-4.39174e-10
5.00046e-06
-6.79259e-10
5.00099e-06
-1.59718e-09
5.0018e-06
-3.45477e-09
5.00301e-06
-5.40447e-09
5.00469e-06
-6.59476e-09
5.00683e-06
-7.08662e-09
5.00936e-06
-7.34179e-09
5.01226e-06
-7.36199e-09
5.01461e-06
-5.4576e-09
5.01459e-06
-4.87208e-10
5.01254e-06
4.88983e-09
5.00824e-06
1.02341e-08
5.00401e-06
1.12111e-08
5.0015e-06
8.29144e-09
5.00086e-06
4.03005e-09
5.00102e-06
1.28385e-09
5.001e-06
7.21595e-10
5.00053e-06
1.3727e-09
7.85595e-10
5.00001e-06
-4.91128e-10
5.00024e-06
-8.91595e-10
5.00069e-06
-1.98746e-09
5.00141e-06
-4.13029e-09
5.00258e-06
-6.56914e-09
5.00462e-06
-8.67347e-09
5.00761e-06
-1.0159e-08
5.01162e-06
-1.14309e-08
5.01542e-06
-1.1202e-08
5.01877e-06
-8.90907e-09
5.01988e-06
-1.6288e-09
5.01562e-06
9.10354e-09
5.00905e-06
1.66831e-08
5.00369e-06
1.64499e-08
5.00151e-06
1.03111e-08
5.0016e-06
3.71021e-09
5.00209e-06
5.11886e-10
5.00203e-06
5.35173e-10
5.00134e-06
1.89165e-09
1.56726e-09
4.99988e-06
-4.82901e-10
4.99993e-06
-9.76644e-10
5.0002e-06
-2.23017e-09
5.0006e-06
-4.50806e-09
5.0014e-06
-7.38545e-09
5.003e-06
-1.03572e-08
5.00681e-06
-1.41066e-08
5.01389e-06
-1.86407e-08
5.02362e-06
-2.11115e-08
5.03072e-06
-1.607e-08
5.02834e-06
4.94878e-10
5.01627e-06
2.11248e-08
5.00366e-06
2.92047e-08
4.99817e-06
2.18074e-08
4.99989e-06
8.40628e-09
5.00188e-06
1.47409e-09
5.00254e-06
-3.95001e-10
5.00226e-06
5.7275e-10
5.00155e-06
2.43607e-09
1.796e-09
4.9997e-06
-3.61186e-10
4.9995e-06
-8.51782e-10
4.9993e-06
-2.03448e-09
4.99914e-06
-4.34211e-09
4.99954e-06
-7.83231e-09
5.00043e-06
-1.13839e-08
5.00366e-06
-1.75343e-08
5.00981e-06
-2.50337e-08
5.02477e-06
-3.62893e-08
5.05579e-06
-4.73029e-08
5.04959e-06
7.43977e-09
5.02264e-06
4.78888e-08
4.99767e-06
5.40974e-08
4.99298e-06
2.63899e-08
4.99884e-06
2.37958e-09
5.0032e-06
-3.10771e-09
5.00359e-06
-1.05938e-09
5.00226e-06
1.69229e-09
5.00202e-06
2.52525e-09
1.05817e-09
4.99957e-06
-1.55028e-10
4.99908e-06
-4.70915e-10
4.99813e-06
-1.10252e-09
4.99644e-06
-2.66624e-09
4.99425e-06
-5.72949e-09
4.99384e-06
-1.11499e-08
4.99949e-06
-2.34444e-08
5.01712e-06
-4.29849e-08
5.05557e-06
-7.50626e-08
5.06654e-06
-5.8509e-08
5.04921e-06
2.37233e-08
4.99592e-06
1.01172e-07
4.98875e-06
6.11774e-08
4.99538e-06
1.96522e-08
4.99955e-06
-1.96231e-09
5.00203e-06
-5.81958e-09
5.00123e-06
-5.1309e-10
5.00036e-06
2.35658e-09
5.00105e-06
1.68287e-09
1.16828e-10
4.99963e-06
-2.25022e-11
4.99912e-06
-8.31161e-11
4.99813e-06
-1.50692e-10
4.99566e-06
-2.29145e-10
4.99014e-06
-3.089e-10
4.97916e-06
-3.7589e-10
4.95585e-06
-4.27513e-10
4.91295e-06
-4.56507e-10
4.83801e-06
-4.53395e-10
4.77962e-06
-4.48031e-10
4.80382e-06
-5.18533e-10
4.90549e-06
-6.28733e-10
4.96726e-06
-6.72383e-10
4.98771e-06
-8.89663e-10
4.98681e-06
-1.2278e-09
4.98234e-06
-1.56919e-09
4.98331e-06
-1.70217e-09
4.98742e-06
-1.96252e-09
4.99097e-06
-2.01349e-09
-2.56973e-09
4.99962e-06
1.04719e-10
4.99912e-06
3.03252e-10
4.99812e-06
8.07952e-10
4.99565e-06
2.21409e-09
4.99011e-06
5.12894e-09
4.97913e-06
1.04054e-08
4.9558e-06
2.26096e-08
4.91291e-06
4.20859e-08
4.83792e-06
7.41763e-08
4.77943e-06
5.77704e-08
4.80377e-06
-2.48938e-08
4.90543e-06
-1.02411e-07
4.96723e-06
-6.25241e-08
4.98753e-06
-2.12985e-08
4.98672e-06
-5.85778e-10
4.98203e-06
2.90748e-09
4.98316e-06
-3.07138e-09
4.9874e-06
-6.41666e-09
4.99084e-06
-5.5945e-09
-5.01043e-09
4.99957e-06
3.19839e-10
4.99908e-06
6.91022e-10
4.99814e-06
1.7339e-09
4.99644e-06
3.89559e-09
4.99427e-06
7.23435e-09
4.99384e-06
1.06644e-08
4.99945e-06
1.67401e-08
5.01704e-06
2.42071e-08
5.05545e-06
3.54522e-08
5.06677e-06
4.62653e-08
5.04896e-06
-8.57512e-09
4.99557e-06
-4.89931e-08
4.98833e-06
-5.53814e-08
4.9952e-06
-2.82939e-08
4.9995e-06
-5.05041e-09
5.00141e-06
7.95029e-10
5.00038e-06
-2.28771e-09
4.99942e-06
-5.67249e-09
5.00018e-06
-6.49873e-09
-6.01567e-09
4.9997e-06
4.34745e-10
4.9995e-06
8.13999e-10
4.9993e-06
1.94414e-09
4.99912e-06
4.0881e-09
4.99948e-06
6.84591e-09
5.00033e-06
9.70481e-09
5.00348e-06
1.34113e-08
5.00959e-06
1.78779e-08
5.02452e-06
2.03306e-08
5.05527e-06
1.52808e-08
5.04934e-06
-1.46077e-09
5.02229e-06
-2.21716e-08
4.99738e-06
-3.05602e-08
4.99267e-06
-2.36991e-08
4.998e-06
-1.05522e-08
5.00253e-06
-3.97545e-09
5.00249e-06
-2.49092e-09
5.00089e-06
-4.29948e-09
5.00064e-06
-6.40476e-09
-6.6282e-09
4.99987e-06
4.41614e-10
4.99992e-06
7.33059e-10
5.00018e-06
1.72653e-09
5.00056e-06
3.75688e-09
5.00132e-06
6.08913e-09
5.00287e-06
8.09111e-09
5.00669e-06
9.49888e-09
5.01373e-06
1.07157e-08
5.02343e-06
1.04982e-08
5.03046e-06
8.15554e-09
5.02803e-06
7.30978e-10
5.01583e-06
-1.00396e-08
5.00305e-06
-1.78755e-08
4.99726e-06
-1.80462e-08
4.99876e-06
-1.22376e-08
5.0007e-06
-6.15191e-09
5.00118e-06
-3.22125e-09
5.0007e-06
-4.04967e-09
4.99967e-06
-5.53695e-09
-6.09307e-09
5.00002e-06
3.97172e-10
5.00024e-06
5.40009e-10
5.00067e-06
1.3702e-09
5.00137e-06
3.13563e-09
5.00249e-06
4.98559e-09
5.00448e-06
6.08968e-09
5.00742e-06
6.52402e-09
5.01134e-06
6.74745e-09
5.01502e-06
6.76992e-09
5.01831e-06
4.79978e-09
5.01927e-06
-2.83739e-10
5.01486e-06
-5.71992e-09
5.00813e-06
-1.12369e-08
5.00262e-06
-1.26697e-08
5.00024e-06
-1.00306e-08
5.00012e-06
-6.26641e-09
5.00039e-06
-3.74493e-09
4.99993e-06
-3.8276e-09
4.99883e-06
-4.60275e-09
-5.10522e-09
5.00016e-06
3.20381e-10
5.00046e-06
3.28739e-10
5.00096e-06
9.6954e-10
5.00175e-06
2.42695e-09
5.00292e-06
3.85618e-09
5.00452e-06
4.49517e-09
5.00658e-06
4.47191e-09
5.00902e-06
4.3174e-09
5.01187e-06
3.92302e-09
5.01424e-06
2.43964e-09
5.0139e-06
3.22661e-11
5.01181e-06
-3.68778e-09
5.00741e-06
-6.91056e-09
5.00301e-06
-8.39079e-09
5.00027e-06
-7.46175e-09
4.99927e-06
-5.48628e-09
4.99903e-06
-3.74599e-09
4.99855e-06
-3.58794e-09
4.99763e-06
-3.86844e-09
-4.29564e-09
5.00029e-06
2.2869e-10
5.00063e-06
1.55738e-10
5.00109e-06
6.23228e-10
5.00183e-06
1.7555e-09
5.0029e-06
2.81815e-09
5.00425e-06
3.15456e-09
5.00581e-06
2.92702e-09
5.00754e-06
2.63653e-09
5.00918e-06
2.33007e-09
5.01009e-06
1.56262e-09
5.01032e-06
-1.81086e-10
5.00885e-06
-2.25893e-09
5.00619e-06
-4.32268e-09
5.00319e-06
-5.4955e-09
5.00089e-06
-5.30609e-09
4.99951e-06
-4.3055e-09
4.99867e-06
-3.14493e-09
4.99789e-06
-3.04678e-09
4.99694e-06
-3.09084e-09
-3.32672e-09
5.0004e-06
1.50073e-10
5.00073e-06
4.90313e-11
5.00113e-06
3.63362e-10
5.00181e-06
1.12486e-09
5.0028e-06
1.83582e-09
5.00395e-06
2.00833e-09
5.00513e-06
1.7673e-09
5.00633e-06
1.49361e-09
5.00747e-06
1.26497e-09
5.00828e-06
8.06507e-10
5.00811e-06
4.9677e-12
5.00721e-06
-1.39252e-09
5.00544e-06
-2.62273e-09
5.00323e-06
-3.37908e-09
5.00115e-06
-3.3503e-09
4.99953e-06
-2.86455e-09
4.99835e-06
-2.1869e-09
4.99731e-06
-2.22245e-09
4.99623e-06
-2.17952e-09
-2.36457e-09
5.00045e-06
7.38316e-11
5.00076e-06
-2.47341e-12
5.00113e-06
1.42504e-10
5.00172e-06
5.62463e-10
5.00261e-06
9.23459e-10
5.0036e-06
9.92514e-10
5.00455e-06
8.43088e-10
5.00542e-06
6.89707e-10
5.00618e-06
5.85326e-10
5.00669e-06
3.67215e-10
5.00682e-06
-9.72899e-11
5.00604e-06
-6.37919e-10
5.00457e-06
-1.21187e-09
5.0027e-06
-1.58561e-09
5.00083e-06
-1.5966e-09
4.99924e-06
-1.42725e-09
4.99798e-06
-1.12036e-09
4.99676e-06
-1.19976e-09
4.99558e-06
-1.15682e-09
-1.4726e-09
5.00054e-06
5.00085e-06
5.00115e-06
5.00174e-06
5.00261e-06
5.00357e-06
5.00442e-06
5.00518e-06
5.00586e-06
5.00631e-06
5.00624e-06
5.00559e-06
5.00432e-06
5.00265e-06
5.00096e-06
4.99939e-06
4.9981e-06
4.99671e-06
4.99542e-06
)
;

boundaryField
{
    sides
    {
        type            calculated;
        value           uniform 0;
    }
    inlet
    {
        type            calculated;
        value           nonuniform List<scalar> 
20
(
-5e-06
-5e-06
-5e-06
-5e-06
-5e-06
-5e-06
-5e-06
-5e-06
-5e-06
-5e-06
-5e-06
-5e-06
-5e-06
-5e-06
-5e-06
-5e-06
-5e-06
-5e-06
-5e-06
-5e-06
)
;
    }
    outlet
    {
        type            calculated;
        value           nonuniform List<scalar> 
20
(
5.0004e-06
4.99995e-06
5e-06
4.99997e-06
5.00016e-06
5.00049e-06
5.00126e-06
5.0027e-06
5.00194e-06
4.99361e-06
4.99323e-06
5.00113e-06
5.0012e-06
4.99908e-06
4.99778e-06
4.99676e-06
4.9959e-06
4.9952e-06
4.99463e-06
4.99389e-06
)
;
    }
    frontAndBack
    {
        type            empty;
        value           nonuniform List<scalar> 0();
    }
}


// ************************************************************************* //
