/*--------------------------------*- C++ -*----------------------------------*\
  =========                 |
  \\      /  F ield         | OpenFOAM: The Open Source CFD Toolbox
   \\    /   O peration     | Website:  https://openfoam.org
    \\  /    A nd           | Version:  9
     \\/     M anipulation  |
\*---------------------------------------------------------------------------*/
FoamFile
{
    format      ascii;
    class       volVectorField;
    location    "26";
    object      U;
}
// * * * * * * * * * * * * * * * * * * * * * * * * * * * * * * * * * * * * * //

dimensions      [0 1 -1 0 0 0 0];

internalField   nonuniform List<vector> 
400
(
(0.100001 -2.5881e-06 0)
(0.100018 -4.23249e-06 0)
(0.100021 -7.68604e-06 0)
(0.100025 -1.39792e-05 0)
(0.100044 -1.99339e-05 0)
(0.100067 -2.25743e-05 0)
(0.100089 -2.23722e-05 0)
(0.100109 -2.1892e-05 0)
(0.100128 -2.17652e-05 0)
(0.100144 -2.09808e-05 0)
(0.100153 -1.74973e-05 0)
(0.100153 -1.26581e-05 0)
(0.100139 -8.50117e-06 0)
(0.100113 -7.36809e-06 0)
(0.100081 -8.62093e-06 0)
(0.100052 -1.35385e-05 0)
(0.100029 -1.63445e-05 0)
(0.100016 -2.03822e-05 0)
(0.100002 -1.85807e-05 0)
(0.100004 -2.62713e-05 0)
(0.100001 -3.67701e-06 0)
(0.100018 -1.92766e-06 0)
(0.100022 -4.19039e-06 0)
(0.100027 -1.40278e-05 0)
(0.100047 -2.43422e-05 0)
(0.100072 -2.67956e-05 0)
(0.100096 -2.17081e-05 0)
(0.100119 -1.53922e-05 0)
(0.100141 -1.03591e-05 0)
(0.10016 -3.61593e-06 0)
(0.100171 8.66394e-06 0)
(0.100169 2.57498e-05 0)
(0.100152 4.33701e-05 0)
(0.100122 5.30612e-05 0)
(0.100088 5.37613e-05 0)
(0.100056 4.43713e-05 0)
(0.100034 3.38856e-05 0)
(0.100018 2.56252e-05 0)
(0.100009 2.51828e-05 0)
(0.100001 9.72769e-06 0)
(0.1 -7.05794e-06 0)
(0.100015 -7.55696e-06 0)
(0.100021 -1.38709e-05 0)
(0.100028 -3.20178e-05 0)
(0.100049 -5.15348e-05 0)
(0.100075 -5.94182e-05 0)
(0.100102 -5.56585e-05 0)
(0.100129 -4.93102e-05 0)
(0.100157 -4.36885e-05 0)
(0.10018 -3.30154e-05 0)
(0.100193 -1.16686e-05 0)
(0.100192 1.80747e-05 0)
(0.100172 4.69723e-05 0)
(0.100135 6.01704e-05 0)
(0.100091 5.46719e-05 0)
(0.10005 3.40081e-05 0)
(0.100021 1.48263e-05 0)
(0.100008 4.24679e-06 0)
(0.0999964 5.59514e-06 0)
(0.0999994 -8.8744e-06 0)
(0.0999991 -9.37183e-06 0)
(0.100011 -1.11651e-05 0)
(0.100018 -2.06402e-05 0)
(0.100029 -4.5737e-05 0)
(0.100051 -7.27906e-05 0)
(0.10008 -8.51222e-05 0)
(0.100112 -8.2229e-05 0)
(0.100148 -7.48109e-05 0)
(0.100187 -6.49822e-05 0)
(0.100222 -4.49474e-05 0)
(0.100243 -3.91367e-06 0)
(0.100239 5.11896e-05 0)
(0.100207 0.000101999 0)
(0.100152 0.000124081 0)
(0.100094 0.000111094 0)
(0.100047 7.16274e-05 0)
(0.100023 3.43111e-05 0)
(0.100012 1.58981e-05 0)
(0.100015 1.7262e-05 0)
(0.100007 3.54791e-06 0)
(0.0999975 -1.12375e-05 0)
(0.100006 -1.57354e-05 0)
(0.100014 -2.90176e-05 0)
(0.100027 -6.08707e-05 0)
(0.10005 -9.67134e-05 0)
(0.100082 -0.000118016 0)
(0.100121 -0.000122185 0)
(0.10017 -0.000118287 0)
(0.100226 -0.000105724 0)
(0.100281 -7.46745e-05 0)
(0.100317 -1.83779e-05 0)
(0.100314 5.94169e-05 0)
(0.100263 0.000131345 0)
(0.100174 0.000161471 0)
(0.10008 0.000143248 0)
(0.100014 9.33438e-05 0)
(0.0999914 4.8605e-05 0)
(0.0999976 2.99573e-05 0)
(0.100009 3.47602e-05 0)
(0.100013 2.05919e-05 0)
(0.0999957 -1.23923e-05 0)
(0.100001 -1.98196e-05 0)
(0.100008 -3.7375e-05 0)
(0.100021 -7.56058e-05 0)
(0.100043 -0.000121452 0)
(0.100076 -0.000156146 0)
(0.100126 -0.000177777 0)
(0.100194 -0.000189388 0)
(0.100278 -0.000178793 0)
(0.100357 -0.000116475 0)
(0.100411 7.52635e-06 0)
(0.10041 0.000156704 0)
(0.100334 0.000252387 0)
(0.100201 0.000240941 0)
(0.100075 0.000148188 0)
(0.100001 4.55875e-05 0)
(0.099993 -8.50179e-06 0)
(0.10001 -1.12237e-05 0)
(0.100037 1.2307e-05 0)
(0.100026 8.56431e-06 0)
(0.0999939 -1.19861e-05 0)
(0.0999942 -2.25929e-05 0)
(0.0999987 -4.3096e-05 0)
(0.100008 -8.79555e-05 0)
(0.100024 -0.000142754 0)
(0.100053 -0.000197681 0)
(0.100107 -0.000241521 0)
(0.100203 -0.000294114 0)
(0.10035 -0.000312405 0)
(0.100518 -0.000284629 0)
(0.100629 -6.88468e-05 0)
(0.100585 0.000256509 0)
(0.100376 0.000489618 0)
(0.10011 0.000482047 0)
(0.0999381 0.000306704 0)
(0.0999082 0.000121365 0)
(0.0999728 3.30248e-05 0)
(0.10003 3.00513e-05 0)
(0.100067 6.23446e-05 0)
(0.100037 5.65811e-05 0)
(0.0999918 -1.0551e-05 0)
(0.0999869 -2.06203e-05 0)
(0.0999838 -4.43832e-05 0)
(0.0999848 -8.91599e-05 0)
(0.0999865 -0.00016061 0)
(0.100008 -0.000237142 0)
(0.10005 -0.000334231 0)
(0.10016 -0.000400614 0)
(0.100335 -0.000428035 0)
(0.100657 -0.000252321 0)
(0.101 7.53207e-05 0)
(0.101005 0.000428291 0)
(0.100599 0.000477202 0)
(0.100065 0.000283741 0)
(0.0997737 7.56859e-05 0)
(0.0997847 -3.24172e-05 0)
(0.0999481 -3.78065e-05 0)
(0.100062 -4.30266e-06 0)
(0.100109 2.49179e-05 0)
(0.100057 1.26874e-05 0)
(0.0999907 -5.73214e-06 0)
(0.0999789 -1.51499e-05 0)
(0.0999659 -3.03908e-05 0)
(0.0999468 -6.97476e-05 0)
(0.0999206 -0.000136274 0)
(0.0999091 -0.000250636 0)
(0.0999601 -0.000465678 0)
(0.100145 -0.000799959 0)
(0.100536 -0.00132337 0)
(0.101059 -0.00149075 0)
(0.101317 0.000385243 0)
(0.100987 0.00187639 0)
(0.100232 0.00158279 0)
(0.0997125 0.000577918 0)
(0.0996365 -3.07811e-05 0)
(0.0998097 -0.000129929 0)
(0.100005 -1.75637e-05 0)
(0.10008 5.93148e-05 0)
(0.100083 6.61283e-05 0)
(0.100026 2.58705e-05 0)
(0.0999715 -2.31849e-06 0)
(0.100003 -5.05236e-06 0)
(0.0999104 -1.29226e-05 0)
(0.0999812 -2.47742e-05 0)
(0.0997364 -6.17561e-05 0)
(0.0998509 -0.000115978 0)
(0.0992789 -0.000289455 0)
(0.0996758 -0.000558768 0)
(0.0991172 -0.00115312 0)
(0.102 -0.00141398 0)
(0.106273 3.13743e-05 0)
(0.101258 0.00146884 0)
(0.0989993 0.0013094 0)
(0.0982151 0.00051483 0)
(0.0988474 1.92782e-05 0)
(0.0995933 -8.07927e-05 0)
(0.0999155 -1.58947e-05 0)
(0.0999249 2.15272e-05 0)
(0.0998376 1.60652e-05 0)
(0.0998186 -1.78061e-05 0)
(0.0999721 1.25105e-06 0)
(0.100004 1.79033e-06 0)
(0.099911 7.09692e-06 0)
(0.0999817 1.60992e-05 0)
(0.0997367 5.03199e-05 0)
(0.0998509 0.000102152 0)
(0.0992786 0.00027383 0)
(0.0996753 0.000542197 0)
(0.0991164 0.00113653 0)
(0.101998 0.00139672 0)
(0.10627 -5.09314e-05 0)
(0.101256 -0.00149161 0)
(0.0989989 -0.00133811 0)
(0.0982148 -0.000553173 0)
(0.0988457 -6.67202e-05 0)
(0.0995898 2.21965e-05 0)
(0.0999115 -4.88684e-05 0)
(0.0999204 -0.000102649 0)
(0.0998365 -0.000102804 0)
(0.0998139 -8.93826e-05 0)
(0.0999925 4.71264e-06 0)
(0.0999808 1.20333e-05 0)
(0.0999679 2.47589e-05 0)
(0.099949 6.13333e-05 0)
(0.0999227 0.00012518 0)
(0.0999114 0.000236909 0)
(0.0999619 0.000450044 0)
(0.100147 0.00078271 0)
(0.100536 0.00130571 0)
(0.101061 0.00147181 0)
(0.101319 -0.000404471 0)
(0.100987 -0.00189989 0)
(0.100227 -0.00161029 0)
(0.0997053 -0.000615029 0)
(0.0996311 -1.12493e-05 0)
(0.0998059 7.64661e-05 0)
(0.0999953 -4.18331e-05 0)
(0.100064 -0.000132165 0)
(0.100064 -0.000143922 0)
(0.100008 -0.00012661 0)
(0.0999949 9.69244e-06 0)
(0.09999 1.76771e-05 0)
(0.0999871 3.8923e-05 0)
(0.0999879 8.09921e-05 0)
(0.0999891 0.00014944 0)
(0.10001 0.000222969 0)
(0.10005 0.000317477 0)
(0.10016 0.000382642 0)
(0.100334 0.000409777 0)
(0.100653 0.000234435 0)
(0.100995 -9.46538e-05 0)
(0.101 -0.000451547 0)
(0.100594 -0.000503948 0)
(0.100061 -0.000317855 0)
(0.0997675 -0.000116889 0)
(0.0997722 -2.50383e-05 0)
(0.0999315 -2.90286e-05 0)
(0.10004 -7.59482e-05 0)
(0.100082 -0.000105124 0)
(0.100026 -0.000109876 0)
(0.0999983 1.11798e-05 0)
(0.0999986 1.96421e-05 0)
(0.100003 3.78224e-05 0)
(0.100012 8.02385e-05 0)
(0.100027 0.000132601 0)
(0.100055 0.000185155 0)
(0.100109 0.000227657 0)
(0.100205 0.000279701 0)
(0.100351 0.000298513 0)
(0.100518 0.000270546 0)
(0.100628 5.44211e-05 0)
(0.100582 -0.00027329 0)
(0.10037 -0.000511699 0)
(0.100099 -0.000514792 0)
(0.099922 -0.00035064 0)
(0.0998864 -0.000179132 0)
(0.0999487 -9.71922e-05 0)
(0.1 -0.000107594 0)
(0.100036 -0.000140733 0)
(0.0999944 -0.000154665 0)
(0.100001 1.16515e-05 0)
(0.100007 1.71112e-05 0)
(0.100014 3.27128e-05 0)
(0.100026 6.88518e-05 0)
(0.100048 0.000112625 0)
(0.10008 0.000145361 0)
(0.100129 0.00016554 0)
(0.100196 0.000175926 0)
(0.100277 0.000164468 0)
(0.100354 0.000100824 0)
(0.100406 -2.36537e-05 0)
(0.100402 -0.00017683 0)
(0.100322 -0.000277177 0)
(0.100185 -0.000272893 0)
(0.100056 -0.000184469 0)
(0.0999765 -8.94042e-05 0)
(0.0999646 -3.75397e-05 0)
(0.0999736 -4.62643e-05 0)
(0.099995 -7.22865e-05 0)
(0.0999707 -8.83873e-05 0)
(0.100005 1.0612e-05 0)
(0.100014 1.3354e-05 0)
(0.100022 2.50704e-05 0)
(0.100034 5.53598e-05 0)
(0.100056 8.94179e-05 0)
(0.100087 0.000109 0)
(0.100125 0.000111746 0)
(0.100172 0.000107158 0)
(0.100226 9.43204e-05 0)
(0.10028 6.29762e-05 0)
(0.100314 4.87317e-06 0)
(0.100307 -7.63512e-05 0)
(0.100254 -0.000151069 0)
(0.100161 -0.000187131 0)
(0.100063 -0.000173698 0)
(0.0999901 -0.000134877 0)
(0.0999614 -9.77285e-05 0)
(0.099954 -9.56224e-05 0)
(0.0999613 -0.000105608 0)
(0.099946 -0.000114484 0)
(0.100008 8.87868e-06 0)
(0.10002 9.29991e-06 0)
(0.100027 1.75455e-05 0)
(0.100037 4.1189e-05 0)
(0.100058 6.68006e-05 0)
(0.100086 7.811e-05 0)
(0.100117 7.47919e-05 0)
(0.100151 6.72117e-05 0)
(0.100187 5.78505e-05 0)
(0.100218 3.84158e-05 0)
(0.100235 -1.73002e-06 0)
(0.100229 -5.71662e-05 0)
(0.100194 -0.000109745 0)
(0.100134 -0.000137711 0)
(0.100068 -0.000129559 0)
(0.10001 -9.94277e-05 0)
(0.0999777 -6.54857e-05 0)
(0.0999548 -5.76631e-05 0)
(0.0999498 -5.88475e-05 0)
(0.0999258 -6.30544e-05 0)
(0.10001 6.44648e-06 0)
(0.100026 5.10585e-06 0)
(0.100031 1.00661e-05 0)
(0.100038 2.70198e-05 0)
(0.100058 4.46408e-05 0)
(0.100083 4.9971e-05 0)
(0.100108 4.38934e-05 0)
(0.100134 3.52178e-05 0)
(0.10016 2.74328e-05 0)
(0.100182 1.40721e-05 0)
(0.100194 -9.20803e-06 0)
(0.100187 -4.21054e-05 0)
(0.100162 -7.35729e-05 0)
(0.100118 -9.21819e-05 0)
(0.100069 -9.05757e-05 0)
(0.100019 -7.75687e-05 0)
(0.0999845 -6.04931e-05 0)
(0.099953 -6.11299e-05 0)
(0.0999386 -6.39056e-05 0)
(0.0999085 -7.11498e-05 0)
(0.100012 4.64152e-06 0)
(0.100029 4.69112e-06 0)
(0.100033 8.8073e-06 0)
(0.100038 2.03085e-05 0)
(0.100056 3.21592e-05 0)
(0.100079 3.63724e-05 0)
(0.1001 3.34333e-05 0)
(0.10012 2.94165e-05 0)
(0.100139 2.65554e-05 0)
(0.100154 2.14953e-05 0)
(0.100162 9.82128e-06 0)
(0.100158 -7.14689e-06 0)
(0.100138 -2.3973e-05 0)
(0.100101 -3.48493e-05 0)
(0.100059 -3.49757e-05 0)
(0.100014 -2.86022e-05 0)
(0.0999813 -1.81904e-05 0)
(0.0999475 -1.81152e-05 0)
(0.0999284 -1.72811e-05 0)
(0.0998948 -2.17208e-05 0)
(0.100014 3.02169e-07 0)
(0.100033 -2.19732e-06 0)
(0.100036 -3.35414e-06 0)
(0.10004 -2.39426e-06 0)
(0.100057 -9.5922e-07 0)
(0.100079 -1.54768e-06 0)
(0.1001 -4.28571e-06 0)
(0.100117 -7.4103e-06 0)
(0.100134 -9.82673e-06 0)
(0.100147 -1.26859e-05 0)
(0.100154 -1.63572e-05 0)
(0.100148 -2.30983e-05 0)
(0.10013 -3.04597e-05 0)
(0.100096 -3.6017e-05 0)
(0.10006 -3.71549e-05 0)
(0.100017 -3.67579e-05 0)
(0.0999877 -3.33852e-05 0)
(0.0999492 -3.57683e-05 0)
(0.0999308 -3.47735e-05 0)
(0.099884 -4.16622e-05 0)
)
;

boundaryField
{
    sides
    {
        type            calculated;
        value           nonuniform List<vector> 
40
(
(0.100014 0 0)
(0.100033 0 0)
(0.100036 0 0)
(0.10004 0 0)
(0.100057 0 0)
(0.100079 0 0)
(0.1001 0 0)
(0.100117 0 0)
(0.100134 0 0)
(0.100147 0 0)
(0.100154 0 0)
(0.100148 0 0)
(0.10013 0 0)
(0.100096 0 0)
(0.10006 0 0)
(0.100017 0 0)
(0.0999877 0 0)
(0.0999492 0 0)
(0.0999308 0 0)
(0.099884 0 0)
(0.100001 0 0)
(0.100018 0 0)
(0.100021 0 0)
(0.100025 0 0)
(0.100044 0 0)
(0.100067 0 0)
(0.100089 0 0)
(0.100109 0 0)
(0.100128 0 0)
(0.100144 0 0)
(0.100153 0 0)
(0.100153 0 0)
(0.100139 0 0)
(0.100113 0 0)
(0.100081 0 0)
(0.100052 0 0)
(0.100029 0 0)
(0.100016 0 0)
(0.100002 0 0)
(0.100004 0 0)
)
;
    }
    inlet
    {
        type            calculated;
        value           nonuniform List<vector> 
20
(
(0.100002 0 0)
(0.100003 0 0)
(0.100001 0 0)
(0.0999996 0 0)
(0.0999973 0 0)
(0.0999948 0 0)
(0.0999923 0 0)
(0.0999902 0 0)
(0.0999888 0 0)
(0.0999884 0 0)
(0.0999891 0 0)
(0.0999906 0 0)
(0.0999933 0 0)
(0.0999967 0 0)
(0.100001 0 0)
(0.100005 0 0)
(0.100008 0 0)
(0.100012 0 0)
(0.100014 0 0)
(0.100016 0 0)
)
;
    }
    outlet
    {
        type            calculated;
        value           nonuniform List<vector> 
20
(
(0.100004 -2.62715e-05 0)
(0.100001 9.72769e-06 0)
(0.1 -8.87446e-06 0)
(0.100006 3.54791e-06 0)
(0.100013 2.05919e-05 0)
(0.100025 8.56426e-06 0)
(0.100036 5.65804e-05 0)
(0.100055 1.26872e-05 0)
(0.100024 2.58702e-05 0)
(0.0998202 -1.78064e-05 0)
(0.0998152 -8.93837e-05 0)
(0.100007 -0.000126608 0)
(0.100025 -0.000109874 0)
(0.0999929 -0.000154662 0)
(0.0999697 -8.83864e-05 0)
(0.0999455 -0.000114483 0)
(0.0999252 -6.30541e-05 0)
(0.0999078 -7.11493e-05 0)
(0.0998942 -2.17206e-05 0)
(0.0998828 -4.16617e-05 0)
)
;
    }
    frontAndBack
    {
        type            empty;
    }
}


// ************************************************************************* //
