/*--------------------------------*- C++ -*----------------------------------*\
  =========                 |
  \\      /  F ield         | OpenFOAM: The Open Source CFD Toolbox
   \\    /   O peration     | Website:  https://openfoam.org
    \\  /    A nd           | Version:  9
     \\/     M anipulation  |
\*---------------------------------------------------------------------------*/
FoamFile
{
    format      ascii;
    class       volScalarField;
    location    "54";
    object      ddt0(h);
}
// * * * * * * * * * * * * * * * * * * * * * * * * * * * * * * * * * * * * * //

dimensions      [0 1 -1 0 0 0 0];

internalField   nonuniform List<scalar> 
400
(
3.16896e-08
2.64219e-08
4.33061e-08
6.86584e-08
6.43169e-08
3.49497e-08
5.71408e-09
-3.4245e-09
-9.21581e-09
3.38963e-09
-2.91445e-09
1.02407e-08
6.18058e-09
1.29924e-08
2.79566e-08
2.14514e-08
6.7532e-09
-2.57327e-10
-1.1915e-08
-1.00501e-08
2.72283e-08
3.02082e-08
4.51641e-08
5.13377e-08
3.36987e-08
2.23093e-08
1.85545e-08
2.39183e-08
1.07112e-08
1.52462e-08
2.74691e-08
-8.63383e-11
2.471e-08
7.72661e-09
9.66165e-09
1.66005e-08
2.15396e-08
2.32959e-08
1.49483e-08
4.73798e-09
2.14377e-08
3.73645e-08
4.15073e-08
1.46919e-08
2.79351e-09
2.09576e-08
5.99459e-08
2.86026e-08
5.34615e-08
-1.07016e-09
3.19643e-08
1.5319e-09
4.42912e-09
1.67647e-08
-1.71411e-08
-1.13859e-08
2.21847e-08
4.48715e-08
4.62125e-08
2.03261e-08
2.23142e-08
3.29586e-08
1.66778e-08
-1.61375e-08
-3.92635e-09
5.16609e-08
4.89777e-08
3.40823e-08
4.25812e-08
4.12208e-08
-6.08306e-08
5.49482e-08
-1.47622e-08
8.8854e-09
1.21393e-08
-1.17824e-08
3.68334e-09
3.14049e-08
4.29798e-08
2.24653e-08
2.1849e-08
1.25162e-08
-1.4182e-08
-2.64027e-08
2.14058e-08
5.22403e-08
5.92616e-10
6.92113e-08
6.28571e-10
5.19881e-08
3.00109e-08
-7.88914e-08
5.95385e-08
7.59259e-09
1.30534e-08
2.24303e-08
9.53376e-09
1.11505e-08
1.90065e-08
1.07033e-08
8.12891e-09
-1.15313e-08
-3.16408e-08
-1.32268e-08
3.51452e-08
4.3405e-09
1.59644e-08
-3.57128e-09
1.15864e-07
-1.82527e-07
1.53127e-07
-7.27476e-08
-8.49658e-08
6.0738e-08
5.77967e-08
4.35966e-08
2.38536e-08
-5.48106e-10
-1.08347e-08
-6.29825e-09
-1.07435e-08
-3.01099e-08
-2.98607e-08
-1.63206e-09
9.87583e-09
-1.31927e-08
-3.05876e-08
8.4026e-08
-1.23871e-07
1.09449e-07
-1.43184e-07
3.35387e-07
-4.67173e-08
-5.04266e-08
5.41398e-08
6.75662e-08
4.30139e-08
8.82571e-09
-1.2462e-08
-1.0171e-08
-2.66071e-08
-3.39056e-08
-2.1763e-08
-8.83444e-09
-1.84911e-08
-4.55057e-08
1.20109e-08
-5.12908e-09
-5.85265e-08
4.36114e-07
-4.63277e-06
1.33578e-08
1.5378e-07
2.8606e-08
2.81925e-08
6.42037e-08
5.52018e-08
2.69962e-08
2.40095e-09
-6.59722e-09
-3.53289e-08
-3.10267e-08
-1.33509e-08
-2.66289e-08
-4.75584e-08
-2.4878e-08
-1.83446e-08
2.20883e-08
1.10322e-07
-3.60606e-07
4.67678e-06
5.50664e-08
-9.27062e-08
5.86391e-08
4.46826e-08
3.87921e-08
7.78617e-08
4.34135e-08
2.16666e-08
-4.10407e-08
-3.86218e-08
-2.81971e-08
-1.58637e-08
-3.71471e-08
-6.07699e-08
-9.86452e-09
1.97722e-08
-5.68005e-08
1.24071e-07
-6.00371e-09
1.33566e-07
-2.78167e-07
1.22655e-07
7.51456e-08
1.23738e-08
1.16136e-08
8.25346e-09
4.35122e-08
3.50849e-08
6.03733e-08
-3.61522e-08
-3.38588e-08
-2.13548e-08
-3.48876e-08
-5.02317e-08
-7.98811e-09
1.33343e-08
-4.48798e-09
-6.54071e-08
4.20835e-08
1.82277e-07
4.74179e-08
1.31251e-07
7.94619e-09
-1.02971e-08
7.45802e-09
3.02448e-08
3.57444e-08
2.1738e-08
9.23001e-09
-2.83006e-08
-3.93001e-08
-3.10285e-08
-1.55261e-08
-3.35169e-08
-1.70952e-08
2.28678e-09
-1.31067e-09
-2.50653e-08
1.77488e-08
6.94767e-07
2.95854e-07
-7.58786e-08
2.47925e-09
1.98648e-08
2.56872e-08
3.66518e-08
2.46123e-08
-1.71285e-10
-4.87156e-09
-1.75988e-08
-3.69369e-08
-3.55859e-08
-3.34769e-09
-2.33347e-09
-3.88391e-08
7.4344e-09
-5.079e-09
4.3616e-08
-3.00045e-08
-5.86292e-07
-2.45355e-07
1.11246e-07
5.49627e-08
3.94777e-08
5.29816e-08
4.01363e-08
1.02167e-08
-1.56684e-08
-1.23909e-08
-3.70121e-09
-2.50502e-08
-3.50272e-08
1.86579e-09
1.202e-08
-2.06652e-08
-2.55387e-08
3.99603e-08
4.26672e-09
1.59301e-07
-3.34995e-07
1.73715e-07
2.10321e-08
2.89031e-08
6.33257e-08
5.96246e-08
3.05512e-08
3.541e-10
-1.68782e-08
-1.11122e-08
1.05296e-08
-7.69352e-09
-3.01025e-08
-1.00877e-09
2.54249e-08
-6.5631e-09
-1.58518e-08
2.45624e-08
4.55737e-08
7.79436e-09
4.78933e-08
1.01035e-08
3.93961e-08
4.90574e-08
5.48178e-08
4.26903e-08
1.64404e-08
-1.41409e-09
-6.41383e-09
-3.74765e-09
2.23349e-08
1.02102e-08
-1.98095e-08
-7.70727e-09
3.13312e-08
2.71178e-08
-3.29877e-09
2.73053e-08
2.58686e-08
3.45018e-08
6.44114e-08
2.48043e-08
2.42856e-08
2.84781e-08
2.69601e-08
1.36087e-08
-2.2534e-10
-5.78738e-10
8.50061e-09
6.18984e-09
2.9142e-08
2.74455e-08
-3.64318e-09
-1.19745e-08
2.93255e-08
5.71406e-08
3.53912e-08
1.51918e-08
2.014e-08
1.4918e-09
-6.86704e-09
1.8207e-09
2.82402e-10
5.5926e-09
-9.38296e-09
-1.8872e-08
-1.02633e-08
8.72001e-09
2.30668e-08
1.34021e-08
2.89176e-08
3.6909e-08
2.22947e-08
3.6935e-09
2.42959e-08
5.95773e-08
5.95942e-08
2.51779e-08
9.68302e-09
4.94173e-09
8.95262e-09
-5.59445e-09
-1.18166e-08
-1.2689e-08
-2.28311e-08
-2.20945e-08
-2.43737e-09
2.24966e-08
3.50503e-08
1.85045e-08
1.64321e-08
4.00592e-08
5.30095e-08
4.21721e-08
3.18256e-08
3.80465e-08
3.73818e-08
1.54882e-08
1.77771e-09
1.02982e-08
2.40688e-08
7.76659e-09
-4.32278e-09
-7.65592e-10
7.28714e-09
1.10511e-08
1.82433e-08
3.16822e-08
3.92016e-08
1.97514e-08
5.38835e-09
3.73564e-08
7.47784e-08
7.28231e-08
4.64815e-08
1.91011e-08
4.81485e-09
-1.08125e-08
-1.40163e-08
3.16525e-09
2.32969e-08
1.51861e-08
5.00641e-09
1.8128e-08
3.80521e-08
3.9248e-08
2.84755e-08
2.52416e-08
3.01931e-08
1.71492e-08
)
;

boundaryField
{
    sides
    {
        type            calculated;
        value           nonuniform List<scalar> 
40
(
5.38835e-09
3.73564e-08
7.47784e-08
7.28231e-08
4.64815e-08
1.91011e-08
4.81485e-09
-1.08125e-08
-1.40163e-08
3.16525e-09
2.32969e-08
1.51861e-08
5.00641e-09
1.8128e-08
3.80521e-08
3.9248e-08
2.84755e-08
2.52416e-08
3.01931e-08
1.71492e-08
3.16896e-08
2.64219e-08
4.33061e-08
6.86584e-08
6.43169e-08
3.49497e-08
5.71408e-09
-3.4245e-09
-9.21581e-09
3.38963e-09
-2.91445e-09
1.02407e-08
6.18058e-09
1.29924e-08
2.79566e-08
2.14514e-08
6.7532e-09
-2.57327e-10
-1.1915e-08
-1.00501e-08
)
;
    }
    inlet
    {
        type            calculated;
        value           nonuniform List<scalar> 
20
(
3.16896e-08
2.72283e-08
2.14377e-08
2.23142e-08
2.1849e-08
8.12891e-09
-1.07435e-08
-2.66071e-08
-3.53289e-08
-3.86218e-08
-3.61522e-08
-2.83006e-08
-1.75988e-08
-3.70121e-09
1.05296e-08
2.23349e-08
2.9142e-08
2.89176e-08
1.64321e-08
5.38835e-09
)
;
    }
    outlet
    {
        type            calculated;
        value           uniform 0;
    }
    frontAndBack
    {
        type            empty;
    }
}


// ************************************************************************* //
