/*--------------------------------*- C++ -*----------------------------------*\
  =========                 |
  \\      /  F ield         | OpenFOAM: The Open Source CFD Toolbox
   \\    /   O peration     | Website:  https://openfoam.org
    \\  /    A nd           | Version:  9
     \\/     M anipulation  |
\*---------------------------------------------------------------------------*/
FoamFile
{
    format      ascii;
    class       surfaceScalarField;
    location    "54";
    object      ddtCorrDdt0(phi);
}
// * * * * * * * * * * * * * * * * * * * * * * * * * * * * * * * * * * * * * //

dimensions      [0 4 -2 0 0 0 0];

internalField   nonuniform List<scalar> 
760
(
-3.01717e-11
3.46992e-12
-3.34555e-11
7.52086e-12
-4.56923e-11
-1.00839e-11
-2.65566e-11
-1.32762e-11
-1.41467e-12
1.0042e-11
1.637e-11
4.05756e-11
1.05384e-11
4.65486e-11
5.34112e-12
1.6354e-11
1.56567e-11
7.56152e-12
3.74022e-11
-3.29285e-11
3.91064e-11
-2.59118e-11
5.34266e-11
-1.414e-12
2.39227e-11
-1.47563e-11
4.02346e-12
-2.33022e-11
1.32799e-11
-5.10368e-11
2.56812e-11
-6.29566e-11
3.12022e-12
-5.04286e-11
-4.67392e-11
-1.69857e-11
-8.75662e-11
-1.24256e-11
-1.42229e-11
-1.90058e-11
3.73058e-12
-3.84833e-11
3.3698e-12
-4.46189e-11
-1.94867e-11
-1.64346e-11
-1.17011e-11
9.92297e-12
2.55042e-11
1.50926e-11
6.0487e-11
-3.15407e-13
5.20468e-11
1.87995e-11
3.67017e-11
2.40698e-12
-5.06069e-12
4.66746e-11
-1.48639e-11
3.2913e-11
-5.01336e-11
3.84502e-11
3.53373e-11
2.77403e-11
6.98861e-12
-6.18831e-12
-1.78351e-11
4.95401e-12
-3.6578e-11
1.84719e-11
-6.14896e-11
6.43679e-12
-5.38849e-11
-2.31182e-11
-1.85352e-11
-4.33195e-11
-1.95084e-11
-2.29007e-11
-9.00339e-12
-2.33895e-13
-3.80299e-11
-7.75611e-12
-2.70798e-11
-1.49209e-11
4.02155e-12
1.92682e-12
1.39568e-11
2.50193e-11
-5.40214e-12
3.7498e-11
-1.59131e-12
4.07799e-11
1.789e-11
8.6893e-11
7.93823e-12
-6.35566e-13
1.51234e-11
1.29042e-11
6.51347e-11
2.76217e-12
-4.84633e-12
2.64617e-11
2.53583e-11
8.92973e-11
3.43266e-12
9.05525e-12
-2.23269e-11
-2.5119e-11
2.82384e-12
-3.22342e-11
2.6272e-11
-2.09178e-11
5.49849e-12
1.10333e-11
-2.25396e-11
-1.29849e-11
-2.389e-11
-5.49707e-12
-1.72652e-12
-2.34752e-11
-8.33258e-12
4.50517e-12
-3.16062e-13
2.0547e-11
1.94331e-12
3.30154e-12
7.46578e-13
-2.89249e-11
-2.32857e-12
3.98128e-11
1.01682e-10
-3.48287e-11
7.01202e-11
6.06584e-11
8.33602e-11
-2.07298e-11
-6.24487e-11
3.52352e-11
1.25587e-10
3.75887e-11
4.89119e-11
-2.81735e-11
6.52882e-11
2.72814e-11
7.18731e-11
-6.27384e-12
-2.31507e-11
-4.49641e-11
-4.32456e-11
-3.02632e-11
4.15e-12
1.5141e-12
4.67737e-11
1.98377e-11
1.69404e-11
-1.73598e-11
-1.06985e-12
3.93036e-13
8.62593e-12
5.83014e-12
3.15302e-11
3.941e-12
2.44396e-11
-1.51313e-11
-3.0621e-11
-4.20791e-11
2.19997e-11
2.79405e-11
7.78208e-12
8.6816e-11
1.45698e-11
1.06659e-10
-4.73955e-11
2.59696e-11
1.67686e-10
1.05127e-10
-1.04392e-10
-1.46631e-10
1.45558e-11
2.57997e-10
2.99898e-11
9.36575e-11
-1.17227e-11
1.00397e-11
1.01585e-11
-7.02533e-12
-2.56607e-11
-3.82237e-11
-5.28929e-11
1.09979e-11
-3.25341e-11
9.23529e-11
1.11711e-11
6.42339e-11
6.70411e-13
1.53161e-11
1.00242e-11
3.70046e-11
1.67206e-11
4.76084e-11
-2.48271e-12
3.96394e-12
-4.75272e-11
-8.74174e-12
-3.8192e-11
3.47563e-11
2.74962e-11
6.05587e-12
9.31215e-11
-8.85681e-13
8.06135e-11
2.00493e-11
1.21262e-11
-4.07543e-11
2.94959e-10
1.59723e-10
-1.6481e-10
-1.8575e-10
-1.06568e-10
-8.61929e-12
2.69626e-10
5.87896e-11
8.41345e-11
1.85958e-11
-4.97634e-11
-2.87194e-11
-5.7013e-11
-6.27772e-11
2.90893e-12
-4.49963e-11
8.97007e-11
-5.88286e-12
7.69283e-11
1.22202e-11
3.34967e-11
2.47211e-11
5.25549e-11
2.07136e-11
3.93097e-11
-1.9941e-11
9.82852e-12
-5.37598e-11
1.16316e-11
-3.51766e-11
4.53223e-11
4.01748e-11
2.2138e-12
5.84803e-11
-7.8244e-11
4.15157e-11
3.38426e-10
1.95163e-10
-4.3396e-10
-4.28195e-10
2.85354e-10
6.38718e-10
1.35654e-10
-1.31671e-10
-1.89957e-10
-9.64461e-11
-4.91162e-11
6.05198e-11
4.09984e-11
-1.09401e-11
5.27964e-12
-4.69187e-11
-3.65661e-11
3.79524e-12
-3.71422e-11
5.53654e-11
-3.08159e-11
5.87748e-11
1.07523e-11
4.21946e-11
3.14295e-11
4.53869e-11
1.55237e-11
3.31517e-11
-2.43497e-11
2.09666e-11
-4.92351e-11
4.14877e-11
-9.89196e-12
3.22938e-11
9.66197e-12
-2.86506e-11
3.21465e-11
9.69228e-11
6.80179e-11
8.42308e-12
-2.03676e-10
-9.8851e-10
1.38801e-10
-1.44633e-09
4.49897e-08
2.08397e-10
4.47744e-10
6.36863e-11
-4.39052e-11
-4.72214e-11
-6.46278e-11
1.45869e-11
-2.73813e-11
2.08146e-11
-3.14507e-11
-6.02866e-12
-2.95828e-11
-2.55702e-11
1.30737e-11
-3.77238e-11
1.74867e-11
5.08227e-12
3.71289e-11
1.93854e-11
3.28714e-11
4.6258e-12
2.5511e-11
-1.78022e-11
5.20255e-11
-2.52055e-11
4.0134e-11
-1.457e-11
1.41212e-11
7.95288e-12
4.20561e-11
-3.11986e-11
-4.20697e-11
1.18666e-11
3.07088e-11
1.70643e-10
9.37738e-10
-4.73779e-10
1.45517e-09
8.87574e-10
-2.34441e-10
-1.7935e-10
-3.84122e-11
-1.43359e-10
3.731e-11
-2.61661e-12
-8.83619e-12
-2.61251e-13
1.33312e-12
-2.47751e-11
9.80101e-12
-1.59207e-09
2.65143e-12
-1.44394e-11
-3.40929e-11
-6.17494e-12
3.63078e-10
2.91337e-11
-2.92853e-12
2.40914e-11
-7.84877e-12
2.79626e-11
-3.2298e-12
6.43722e-11
-6.15938e-12
5.20233e-11
-1.63013e-11
-2.33858e-11
-2.56832e-11
3.90103e-11
-4.70067e-12
1.02317e-10
-3.66106e-11
-2.67518e-10
-2.38474e-12
4.63524e-10
2.70659e-10
-3.83343e-10
-2.62802e-10
-1.29455e-10
7.86264e-11
1.80764e-10
2.09396e-10
4.38912e-11
4.53086e-11
-6.15474e-11
-1.22038e-11
-5.05899e-11
-1.31183e-11
-3.2043e-12
-1.22905e-11
2.35557e-11
-1.56507e-11
-5.04394e-12
-1.23981e-11
5.92308e-12
2.53645e-11
-1.90898e-11
2.93922e-11
-1.84794e-11
2.86408e-11
6.67436e-12
6.04367e-11
9.19527e-12
4.57513e-11
-2.3806e-11
-1.04503e-11
-3.25958e-11
1.55241e-11
-3.0713e-11
8.25462e-11
1.32465e-11
-1.19478e-11
-1.12117e-10
6.10845e-11
3.25449e-10
1.00057e-11
1.46147e-09
5.02403e-11
1.3679e-10
-1.70104e-14
7.4431e-11
-4.47269e-11
-1.69559e-11
-6.62491e-11
-1.17328e-11
-4.45628e-11
6.77675e-12
1.60769e-12
1.05252e-11
1.76314e-11
-1.37533e-11
-1.74037e-11
-2.1614e-11
4.03048e-12
2.37452e-11
-2.34391e-11
4.3582e-11
-2.26941e-11
3.03572e-11
3.13514e-12
3.4864e-11
2.0903e-11
4.76714e-11
-1.86561e-11
6.70166e-12
-5.10756e-11
3.26582e-11
-2.26674e-11
-2.0245e-11
-6.92517e-11
3.08989e-10
9.33775e-11
3.28202e-10
-5.14449e-10
1.42798e-11
-4.98142e-08
-6.64948e-11
-1.34594e-10
-1.18576e-10
-2.01038e-10
-2.70823e-11
-3.55438e-11
-4.3279e-11
1.17199e-11
-1.88193e-11
1.78441e-11
-7.69472e-12
2.01485e-11
-1.26678e-11
-3.43659e-11
-3.18595e-11
-4.42426e-11
2.28664e-13
2.0608e-11
-2.05625e-11
5.12087e-11
-2.32684e-11
3.62345e-11
4.72237e-13
6.70591e-12
2.20812e-11
3.40479e-11
2.47776e-12
5.00388e-11
-5.65866e-11
3.75632e-12
-7.39546e-11
9.95444e-11
-3.98448e-11
-2.43295e-10
-9.94533e-11
-2.63163e-10
2.75787e-10
-6.38715e-11
1.98484e-10
1.19961e-11
-1.23428e-10
1.02104e-10
8.13994e-12
-1.83452e-12
-6.71714e-11
1.29041e-11
3.63318e-12
4.42268e-12
3.99607e-11
-3.01662e-11
6.44312e-12
-4.91838e-11
-7.45225e-11
-4.2742e-11
-6.95241e-11
-1.93241e-12
1.29903e-11
-1.84021e-11
5.17729e-11
-1.80588e-11
3.74041e-11
-1.53617e-12
-7.01544e-12
2.80069e-11
1.13151e-11
1.33057e-11
6.15257e-11
-4.53622e-11
3.14253e-11
-9.72266e-11
-4.65491e-12
-8.25604e-11
7.26259e-11
-1.39124e-11
-2.00603e-10
-6.10997e-11
-8.03185e-13
8.96569e-11
1.31994e-10
3.84735e-11
-1.65791e-11
-1.14707e-10
1.98436e-11
-4.18412e-11
4.1343e-11
3.09259e-11
4.1569e-13
4.2944e-11
-5.06272e-11
-1.92699e-11
-6.54718e-11
-1.02626e-10
-3.30551e-11
-7.981e-11
4.34445e-13
6.23138e-12
-1.27629e-11
4.16458e-11
-1.34929e-11
4.03533e-11
-3.01038e-12
-1.60643e-11
2.31351e-11
-7.29222e-12
2.86115e-11
4.87676e-11
-3.73867e-11
3.71721e-11
-1.08416e-10
1.81114e-11
-1.04972e-10
-8.12037e-12
-6.99374e-11
4.20548e-12
7.87307e-12
3.91442e-11
1.22683e-10
2.51655e-12
-5.22206e-11
1.95318e-11
-6.92488e-11
4.12812e-11
-3.82055e-11
3.21469e-11
2.25753e-11
-2.26392e-11
2.99631e-11
-6.66854e-11
-3.42478e-11
-6.56858e-11
-1.09004e-10
-1.46703e-11
-7.32954e-11
7.40365e-12
-2.71591e-12
-2.98077e-12
2.45607e-11
-7.21723e-12
3.72843e-11
-9.24201e-12
-7.03437e-12
8.89368e-12
-2.55816e-11
2.20822e-11
2.42408e-11
-1.7399e-11
3.82452e-11
-1.04081e-10
-1.61665e-12
-1.21071e-10
1.7371e-11
-6.439e-11
3.22571e-11
-1.40056e-11
3.58007e-11
-2.30672e-11
3.37794e-11
-5.37609e-11
1.48301e-11
-8.0399e-11
3.18165e-11
-2.89955e-11
7.61144e-12
1.5892e-11
-4.5042e-11
1.6067e-11
-6.99616e-11
-3.07673e-11
-5.40114e-11
-8.33762e-11
4.52229e-12
-4.2755e-11
2.02967e-11
-1.39536e-11
5.03045e-12
-1.70696e-12
1.26057e-12
2.81325e-11
-4.42266e-12
7.49823e-12
-1.31821e-11
-2.10435e-11
-6.89405e-12
-1.11028e-11
-1.82365e-11
2.06716e-11
-6.19236e-11
1.4892e-12
-9.14783e-11
1.65338e-11
-5.14056e-11
2.65387e-11
-2.33959e-11
3.98766e-11
-2.88248e-11
2.12507e-11
-6.99869e-11
1.05027e-11
-7.65137e-11
9.84437e-12
-3.76631e-11
-2.56638e-11
-5.08155e-12
-5.6619e-11
9.03296e-12
-5.30127e-11
-5.01317e-12
-2.85879e-11
-3.11691e-11
1.44428e-11
6.0764e-12
3.60795e-11
-2.34768e-11
5.7205e-12
-2.63788e-11
1.18569e-11
2.66254e-12
5.62587e-12
1.84898e-11
-2.17048e-11
-3.07271e-13
-3.96347e-11
-1.83141e-11
-3.73185e-11
-6.19233e-12
-3.1965e-11
1.94701e-12
-3.07729e-11
7.31048e-12
-6.51003e-12
1.76954e-11
1.25981e-11
5.14704e-11
1.7643e-12
4.61778e-11
-4.70456e-11
2.72131e-11
-5.29262e-11
-9.47519e-12
-2.42903e-11
-3.43938e-11
2.17656e-12
-2.98143e-11
2.16945e-11
-1.29334e-11
2.78983e-11
-5.77118e-12
2.40843e-11
-6.24789e-13
4.89764e-11
4.43341e-11
-2.01883e-11
8.34971e-13
-4.02614e-11
1.29347e-11
-2.59291e-11
8.94061e-12
9.09001e-12
-1.40969e-11
1.55078e-11
-3.63849e-11
-5.52679e-12
-3.77216e-11
-1.56764e-11
-1.86494e-11
-2.86694e-12
-2.2643e-12
1.18944e-11
1.51472e-11
2.6421e-11
2.78866e-11
5.15412e-11
1.50676e-11
5.62944e-11
-4.30783e-12
3.10416e-11
-1.37814e-11
-7.05614e-12
-3.42913e-12
-5.5566e-12
1.12068e-11
2.21228e-11
2.40272e-11
3.22872e-11
3.32932e-11
3.01068e-12
3.72327e-11
-4.09204e-11
4.54366e-11
3.03721e-11
-1.0524e-11
-4.58775e-11
-4.51671e-11
-3.5001e-12
2.02126e-11
8.86175e-12
-1.48712e-11
-6.18806e-12
8.27158e-12
2.83124e-11
3.9778e-11
6.09361e-11
4.66115e-11
8.95967e-12
1.43853e-11
4.77845e-11
5.23563e-11
1.78782e-12
-7.40286e-11
)
;

boundaryField
{
    sides
    {
        type            calculated;
        value           uniform 0;
    }
    inlet
    {
        type            calculated;
        value           uniform 0;
    }
    outlet
    {
        type            calculated;
        value           nonuniform List<scalar> 
20
(
-9.56996e-11
-5.28624e-11
-3.21718e-11
3.19029e-11
3.57576e-11
1.09689e-11
-3.18128e-11
-6.14386e-11
-8.32044e-11
-1.61438e-11
-4.35966e-11
-4.96163e-11
-3.95732e-11
-1.05228e-11
2.20246e-11
4.57612e-11
4.63211e-11
8.03705e-12
-5.80417e-11
-1.06167e-10
)
;
    }
    frontAndBack
    {
        type            empty;
        value           nonuniform List<scalar> 0();
    }
}


// ************************************************************************* //
