/*--------------------------------*- C++ -*----------------------------------*\
  =========                 |
  \\      /  F ield         | OpenFOAM: The Open Source CFD Toolbox
   \\    /   O peration     | Website:  https://openfoam.org
    \\  /    A nd           | Version:  9
     \\/     M anipulation  |
\*---------------------------------------------------------------------------*/
FoamFile
{
    format      ascii;
    class       volScalarField;
    location    "54";
    object      h_0;
}
// * * * * * * * * * * * * * * * * * * * * * * * * * * * * * * * * * * * * * //

dimensions      [0 1 0 0 0 0 0];

internalField   nonuniform List<scalar> 
400
(
0.0100003
0.0100003
0.0100002
0.0100001
0.00999992
0.00999971
0.00999948
0.00999924
0.00999903
0.00999886
0.00999876
0.00999877
0.00999888
0.00999909
0.00999936
0.00999963
0.00999985
0.01
0.0100001
0.01
0.0100003
0.0100002
0.0100002
0.01
0.00999983
0.00999961
0.00999936
0.00999909
0.00999884
0.00999864
0.00999853
0.00999855
0.0099987
0.00999895
0.00999926
0.00999955
0.00999977
0.0099999
0.00999996
0.00999998
0.0100003
0.0100003
0.0100002
0.01
0.00999983
0.00999959
0.0099993
0.009999
0.0099987
0.00999845
0.00999831
0.00999832
0.0099985
0.00999883
0.00999924
0.00999963
0.00999991
0.01
0.0100001
0.01
0.0100004
0.0100003
0.0100002
0.0100001
0.00999986
0.00999958
0.00999925
0.00999885
0.00999844
0.00999807
0.00999785
0.00999787
0.00999817
0.0099987
0.00999928
0.00999972
0.00999994
0.00999998
0.00999996
0.00999996
0.0100005
0.0100004
0.0100003
0.0100002
0.00999996
0.00999965
0.00999923
0.00999871
0.00999812
0.00999755
0.00999714
0.00999717
0.00999766
0.00999855
0.0099995
0.0100001
0.0100004
0.0100002
0.0100001
0.00999999
0.0100006
0.0100006
0.0100005
0.0100004
0.0100002
0.00999982
0.00999929
0.00999857
0.00999771
0.00999687
0.00999629
0.00999623
0.00999703
0.00999839
0.0099997
0.0100004
0.0100005
0.0100002
0.00999993
0.00999992
0.0100008
0.0100007
0.0100007
0.0100007
0.0100005
0.0100002
0.00999962
0.00999862
0.00999712
0.00999531
0.00999414
0.00999449
0.00999664
0.00999945
0.0100013
0.0100015
0.0100008
0.01
0.00999973
0.00999987
0.0100009
0.0100009
0.010001
0.010001
0.010001
0.0100008
0.0100003
0.00999923
0.00999733
0.00999426
0.00999044
0.0099902
0.00999445
0.0100002
0.0100033
0.010003
0.0100012
0.00999983
0.00999948
0.00999982
0.010001
0.0100011
0.0100013
0.0100015
0.0100018
0.0100019
0.0100013
0.00999944
0.00999546
0.00998968
0.00998678
0.00998969
0.00999801
0.0100036
0.0100044
0.0100024
0.0100003
0.00999933
0.00999943
0.00999987
0.010001
0.0100011
0.0100014
0.0100019
0.0100026
0.010004
0.0100058
0.0100078
0.0100048
0.00897845
0.00895235
0.00997582
0.0100088
0.0100178
0.0100104
0.0100023
0.00999884
0.00999889
0.00999977
0.0100001
0.0100009
0.0100011
0.0100013
0.0100018
0.0100025
0.0100039
0.0100058
0.0100077
0.0100048
0.00897839
0.00895235
0.00997576
0.0100087
0.0100177
0.0100104
0.0100023
0.00999883
0.00999887
0.00999974
0.0100001
0.0100008
0.0100009
0.0100011
0.0100013
0.0100016
0.0100017
0.0100012
0.00999925
0.00999527
0.00998947
0.00998652
0.00998952
0.00999787
0.0100035
0.0100043
0.0100023
0.0100002
0.00999931
0.00999945
0.00999988
0.0100006
0.0100006
0.0100007
0.0100007
0.0100007
0.0100005
0.00999998
0.00999894
0.00999706
0.00999403
0.00999024
0.00998996
0.0099942
0.00999991
0.0100031
0.0100029
0.0100011
0.00999976
0.00999946
0.00999982
0.0100003
0.0100003
0.0100003
0.0100002
0.0100001
0.00999975
0.00999918
0.00999818
0.00999668
0.00999491
0.00999373
0.00999412
0.00999631
0.00999915
0.010001
0.0100013
0.0100006
0.00999989
0.00999963
0.00999983
0.00999999
0.00999997
0.0099999
0.00999978
0.00999958
0.00999924
0.00999872
0.00999801
0.00999717
0.00999636
0.00999581
0.0099958
0.00999661
0.00999802
0.00999937
0.0100001
0.0100002
0.00999998
0.00999982
0.00999988
0.00999972
0.00999968
0.00999959
0.00999945
0.00999924
0.00999894
0.00999853
0.00999802
0.00999745
0.00999689
0.00999652
0.00999657
0.0099971
0.00999803
0.00999903
0.00999973
0.01
0.00999998
0.00999991
0.00999993
0.00999948
0.00999944
0.00999935
0.0099992
0.009999
0.00999874
0.00999841
0.00999803
0.00999764
0.00999731
0.00999714
0.00999719
0.00999753
0.00999811
0.00999876
0.0099993
0.00999963
0.00999977
0.00999984
0.00999992
0.00999928
0.00999924
0.00999915
0.00999901
0.00999882
0.00999859
0.00999832
0.00999803
0.00999775
0.00999751
0.0099974
0.00999746
0.0099977
0.0099981
0.00999858
0.00999903
0.00999938
0.00999962
0.00999978
0.00999992
0.00999912
0.00999908
0.009999
0.00999888
0.00999871
0.0099985
0.00999827
0.00999804
0.00999782
0.00999766
0.00999759
0.00999764
0.00999783
0.00999814
0.00999853
0.00999893
0.00999928
0.00999954
0.00999975
0.00999991
0.00999898
0.00999894
0.00999886
0.00999874
0.00999857
0.00999838
0.00999816
0.00999794
0.00999774
0.0099976
0.00999755
0.00999761
0.00999779
0.00999806
0.00999841
0.00999877
0.0099991
0.00999938
0.00999963
0.00999986
)
;

boundaryField
{
    sides
    {
        type            zeroGradient;
    }
    inlet
    {
        type            zeroGradient;
    }
    outlet
    {
        type            fixedValue;
        value           uniform 0.01;
    }
    frontAndBack
    {
        type            empty;
    }
}


// ************************************************************************* //
