/*--------------------------------*- C++ -*----------------------------------*\
  =========                 |
  \\      /  F ield         | OpenFOAM: The Open Source CFD Toolbox
   \\    /   O peration     | Website:  https://openfoam.org
    \\  /    A nd           | Version:  9
     \\/     M anipulation  |
\*---------------------------------------------------------------------------*/
FoamFile
{
    format      ascii;
    class       volVectorField;
    location    "54";
    object      hU_0;
}
// * * * * * * * * * * * * * * * * * * * * * * * * * * * * * * * * * * * * * //

dimensions      [0 2 -1 0 0 0 0];

internalField   nonuniform List<vector> 
400
(
(0.001 -2.4847e-08 0)
(0.00100004 -7.2061e-08 0)
(0.00100012 -1.15092e-07 0)
(0.00100024 -1.53915e-07 0)
(0.00100039 -1.87883e-07 0)
(0.00100058 -2.16512e-07 0)
(0.00100078 -2.36694e-07 0)
(0.00100099 -2.45671e-07 0)
(0.00100118 -2.36758e-07 0)
(0.00100132 -2.10703e-07 0)
(0.0010014 -1.6647e-07 0)
(0.00100139 -1.27268e-07 0)
(0.00100128 -9.87561e-08 0)
(0.0010011 -9.3743e-08 0)
(0.00100086 -1.00332e-07 0)
(0.00100064 -1.35152e-07 0)
(0.00100043 -1.55221e-07 0)
(0.00100032 -2.00134e-07 0)
(0.00100024 -1.88224e-07 0)
(0.00100032 -2.68304e-07 0)
(0.001 -2.81017e-08 0)
(0.00100005 -8.25314e-08 0)
(0.00100013 -1.33112e-07 0)
(0.00100026 -1.78228e-07 0)
(0.00100042 -2.14956e-07 0)
(0.00100062 -2.39669e-07 0)
(0.00100084 -2.45088e-07 0)
(0.00100107 -2.21159e-07 0)
(0.00100129 -1.5558e-07 0)
(0.00100147 -4.71443e-08 0)
(0.00100156 9.65887e-08 0)
(0.00100153 2.50393e-07 0)
(0.0010014 3.89669e-07 0)
(0.00100118 4.74592e-07 0)
(0.00100092 5.03269e-07 0)
(0.00100066 4.53018e-07 0)
(0.00100047 3.82897e-07 0)
(0.00100035 2.60066e-07 0)
(0.00100032 2.04651e-07 0)
(0.00100027 8.06879e-08 0)
(0.001 -5.4472e-08 0)
(0.00100004 -1.64582e-07 0)
(0.00100013 -2.74205e-07 0)
(0.00100026 -3.79588e-07 0)
(0.00100043 -4.75371e-07 0)
(0.00100064 -5.54225e-07 0)
(0.00100089 -6.02949e-07 0)
(0.00100116 -5.99556e-07 0)
(0.00100143 -5.20509e-07 0)
(0.00100164 -3.51702e-07 0)
(0.00100176 -1.07006e-07 0)
(0.00100175 1.66528e-07 0)
(0.00100158 4.01682e-07 0)
(0.0010013 5.16888e-07 0)
(0.00100094 4.97435e-07 0)
(0.00100061 3.55808e-07 0)
(0.00100036 2.08927e-07 0)
(0.00100025 4.96688e-08 0)
(0.0010002 -4.33963e-09 0)
(0.00100028 -1.17925e-07 0)
(0.001 -7.60031e-08 0)
(0.00100004 -2.2968e-07 0)
(0.00100013 -3.84216e-07 0)
(0.00100026 -5.37196e-07 0)
(0.00100045 -6.82136e-07 0)
(0.00100069 -8.08571e-07 0)
(0.00100099 -8.89479e-07 0)
(0.00100134 -8.88947e-07 0)
(0.0010017 -7.60203e-07 0)
(0.00100202 -4.75516e-07 0)
(0.00100221 -1.79155e-08 0)
(0.00100218 4.97257e-07 0)
(0.00100192 9.36759e-07 0)
(0.00100146 1.13567e-06 0)
(0.00100096 1.05237e-06 0)
(0.00100057 7.46245e-07 0)
(0.0010004 4.31444e-07 0)
(0.00100034 1.73839e-07 0)
(0.00100039 9.96189e-08 0)
(0.00100033 -9.40315e-10 0)
(0.001 -9.38283e-08 0)
(0.00100004 -2.86189e-07 0)
(0.00100012 -4.86985e-07 0)
(0.00100025 -7.00838e-07 0)
(0.00100044 -9.22378e-07 0)
(0.00100072 -1.13851e-06 0)
(0.00100109 -1.29984e-06 0)
(0.00100155 -1.34177e-06 0)
(0.00100206 -1.18041e-06 0)
(0.00100256 -7.80238e-07 0)
(0.00100289 -1.65276e-07 0)
(0.00100287 5.84212e-07 0)
(0.00100243 1.23104e-06 0)
(0.00100166 1.508e-06 0)
(0.00100085 1.37298e-06 0)
(0.0010003 9.68068e-07 0)
(0.00100012 5.89764e-07 0)
(0.0010002 3.18228e-07 0)
(0.00100035 2.58623e-07 0)
(0.00100042 1.66058e-07 0)
(0.001 -1.06292e-07 0)
(0.00100003 -3.26549e-07 0)
(0.00100009 -5.71649e-07 0)
(0.00100019 -8.51292e-07 0)
(0.00100038 -1.1749e-06 0)
(0.00100068 -1.52481e-06 0)
(0.00100115 -1.8603e-06 0)
(0.00100178 -2.0588e-06 0)
(0.00100254 -1.91817e-06 0)
(0.00100325 -1.20072e-06 0)
(0.00100376 8.83839e-08 0)
(0.00100377 1.55017e-06 0)
(0.00100309 2.43326e-06 0)
(0.00100191 2.29952e-06 0)
(0.00100081 1.42699e-06 0)
(0.00100018 4.95195e-07 0)
(0.00100016 2.08482e-08 0)
(0.00100036 -8.15298e-08 0)
(0.00100063 5.78246e-08 0)
(0.00100053 4.86581e-08 0)
(0.001 -1.05261e-07 0)
(0.00100001 -3.40503e-07 0)
(0.00100002 -6.10202e-07 0)
(0.00100008 -9.68198e-07 0)
(0.00100021 -1.3949e-06 0)
(0.00100048 -1.94621e-06 0)
(0.001001 -2.48995e-06 0)
(0.00100188 -3.08783e-06 0)
(0.00100321 -3.23854e-06 0)
(0.00100472 -2.87819e-06 0)
(0.00100573 -6.72782e-07 0)
(0.00100535 2.55867e-06 0)
(0.00100349 4.82895e-06 0)
(0.00100112 4.73222e-06 0)
(0.000999601 3.02479e-06 0)
(0.000999361 1.26626e-06 0)
(0.000999994 4.38548e-07 0)
(0.00100055 3.30637e-07 0)
(0.00100091 5.60208e-07 0)
(0.00100064 5.33161e-07 0)
(0.000999997 -9.46058e-08 0)
(0.00099997 -2.9416e-07 0)
(0.000999907 -5.83534e-07 0)
(0.000999874 -9.62151e-07 0)
(0.000999878 -1.57985e-06 0)
(0.0010001 -2.34452e-06 0)
(0.0010005 -3.4026e-06 0)
(0.00100152 -4.12715e-06 0)
(0.00100308 -4.37366e-06 0)
(0.001006 -2.55088e-06 0)
(0.00100909 7.64336e-07 0)
(0.00100915 4.27103e-06 0)
(0.0010055 4.71897e-06 0)
(0.00100073 2.78021e-06 0)
(0.000998141 7.32744e-07 0)
(0.000998262 -2.73474e-07 0)
(0.000999785 -2.80006e-07 0)
(0.00100086 -5.89247e-09 0)
(0.00100132 2.11826e-07 0)
(0.00100084 1.02799e-07 0)
(0.000999996 -5.05571e-08 0)
(0.000999918 -2.07389e-07 0)
(0.000999755 -3.90977e-07 0)
(0.000999529 -7.38768e-07 0)
(0.000999287 -1.34008e-06 0)
(0.000999211 -2.48058e-06 0)
(0.000999708 -4.68701e-06 0)
(0.00100139 -8.06946e-06 0)
(0.00100491 -1.32855e-05 0)
(0.00100958 -1.49144e-05 0)
(0.00101189 3.85083e-06 0)
(0.00100892 1.87315e-05 0)
(0.00100221 1.57804e-05 0)
(0.00099756 5.73889e-06 0)
(0.000996875 -3.18483e-07 0)
(0.000998449 -1.26366e-06 0)
(0.00100026 -9.07997e-08 0)
(0.00100099 6.37469e-07 0)
(0.00100106 6.53071e-07 0)
(0.00100053 2.44932e-07 0)
(0.000999805 -2.03717e-08 0)
(0.00100017 -6.82792e-08 0)
(0.000999215 -1.53457e-07 0)
(0.000999902 -2.50307e-07 0)
(0.00099752 -5.92625e-07 0)
(0.000998844 -1.13041e-06 0)
(0.000993348 -2.88246e-06 0)
(0.000997532 -5.5923e-06 0)
(0.000991664 -1.15429e-05 0)
(0.00091583 -1.27043e-05 0)
(0.000951458 2.6873e-07 0)
(0.00101022 1.4638e-05 0)
(0.000990949 1.30843e-05 0)
(0.000983966 5.13824e-06 0)
(0.000989574 1.91767e-07 0)
(0.000996269 -7.82446e-07 0)
(0.000999225 -1.10581e-07 0)
(0.000999401 2.49506e-07 0)
(0.000998634 1.76366e-07 0)
(0.000998489 -1.82942e-07 0)
(0.000999805 1.33372e-08 0)
(0.00100017 4.64566e-08 0)
(0.000999215 1.18043e-07 0)
(0.0009999 2.00699e-07 0)
(0.000997518 5.29987e-07 0)
(0.000998839 1.05174e-06 0)
(0.00099334 2.78735e-06 0)
(0.000997519 5.47501e-06 0)
(0.000991648 1.13966e-05 0)
(0.000915806 1.25487e-05 0)
(0.000951424 -4.71339e-07 0)
(0.0010102 -1.49061e-05 0)
(0.00099094 -1.34109e-05 0)
(0.000983957 -5.53725e-06 0)
(0.000989556 -6.49727e-07 0)
(0.000996231 2.46934e-07 0)
(0.000999183 -4.73377e-07 0)
(0.000999356 -1.00238e-06 0)
(0.00099862 -9.85498e-07 0)
(0.000998439 -8.86301e-07 0)
(0.000999996 4.36762e-08 0)
(0.000999917 1.86493e-07 0)
(0.000999754 3.56543e-07 0)
(0.000999528 6.90153e-07 0)
(0.000999284 1.27802e-06 0)
(0.000999211 2.40168e-06 0)
(0.000999703 4.59051e-06 0)
(0.00100139 7.94644e-06 0)
(0.0010049 1.31359e-05 0)
(0.00100958 1.47187e-05 0)
(0.00101188 -4.07234e-06 0)
(0.00100889 -1.90116e-05 0)
(0.00100213 -1.60984e-05 0)
(0.000997469 -6.12271e-06 0)
(0.000996804 -8.42084e-08 0)
(0.000998389 7.73515e-07 0)
(0.00100015 -4.30123e-07 0)
(0.00100084 -1.30638e-06 0)
(0.00100086 -1.37545e-06 0)
(0.00100035 -1.24767e-06 0)
(0.000999997 8.79463e-08 0)
(0.000999969 2.74476e-07 0)
(0.000999905 5.50203e-07 0)
(0.000999869 9.14643e-07 0)
(0.000999869 1.51575e-06 0)
(0.00100008 2.26199e-06 0)
(0.00100048 3.29598e-06 0)
(0.00100149 3.99687e-06 0)
(0.00100303 4.2173e-06 0)
(0.00100594 2.36631e-06 0)
(0.00100901 -9.87593e-07 0)
(0.00100906 -4.54682e-06 0)
(0.00100542 -5.02217e-06 0)
(0.00100066 -3.12878e-06 0)
(0.000998047 -1.1309e-06 0)
(0.000998122 -2.54616e-07 0)
(0.000999609 -3.28138e-07 0)
(0.00100063 -7.43308e-07 0)
(0.00100105 -9.61709e-07 0)
(0.00100054 -1.06996e-06 0)
(0.001 9.88784e-08 0)
(0.001 3.21506e-07 0)
(0.00100002 5.78679e-07 0)
(0.00100007 9.22934e-07 0)
(0.0010002 1.33584e-06 0)
(0.00100046 1.87141e-06 0)
(0.00100097 2.40112e-06 0)
(0.00100185 2.98122e-06 0)
(0.00100317 3.11795e-06 0)
(0.00100468 2.73407e-06 0)
(0.00100568 5.06552e-07 0)
(0.00100527 -2.7571e-06 0)
(0.00100338 -5.07945e-06 0)
(0.00100096 -5.06874e-06 0)
(0.0009994 -3.44869e-06 0)
(0.00099911 -1.79812e-06 0)
(0.000999732 -1.02794e-06 0)
(0.00100024 -1.06137e-06 0)
(0.0010006 -1.30047e-06 0)
(0.00100022 -1.51097e-06 0)
(0.001 1.00432e-07 0)
(0.00100003 3.09269e-07 0)
(0.00100008 5.43447e-07 0)
(0.00100018 8.11554e-07 0)
(0.00100036 1.12365e-06 0)
(0.00100066 1.45981e-06 0)
(0.00100112 1.78096e-06 0)
(0.00100174 1.95764e-06 0)
(0.00100247 1.7899e-06 0)
(0.00100317 1.03658e-06 0)
(0.00100365 -2.83286e-07 0)
(0.00100363 -1.78809e-06 0)
(0.00100292 -2.71166e-06 0)
(0.0010017 -2.62928e-06 0)
(0.00100057 -1.77837e-06 0)
(0.000999893 -8.99728e-07 0)
(0.000999847 -4.34493e-07 0)
(0.00099997 -4.50518e-07 0)
(0.00100021 -6.09544e-07 0)
(0.000999994 -8.43799e-07 0)
(0.001 8.86086e-08 0)
(0.00100004 2.71015e-07 0)
(0.00100011 4.62432e-07 0)
(0.00100024 6.6735e-07 0)
(0.00100043 8.79565e-07 0)
(0.0010007 1.08468e-06 0)
(0.00100105 1.23263e-06 0)
(0.0010015 1.2591e-06 0)
(0.00100199 1.07991e-06 0)
(0.00100248 6.57911e-07 0)
(0.00100279 1.25971e-08 0)
(0.00100274 -7.7715e-07 0)
(0.00100227 -1.45257e-06 0)
(0.00100145 -1.77288e-06 0)
(0.00100061 -1.6678e-06 0)
(0.000999996 -1.35268e-06 0)
(0.000999783 -1.03695e-06 0)
(0.000999754 -9.39479e-07 0)
(0.000999874 -9.38466e-07 0)
(0.000999756 -1.1039e-06 0)
(0.001 7.14933e-08 0)
(0.00100004 2.16049e-07 0)
(0.00100012 3.61937e-07 0)
(0.00100025 5.06957e-07 0)
(0.00100043 6.45557e-07 0)
(0.00100066 7.65428e-07 0)
(0.00100095 8.39375e-07 0)
(0.00100128 8.30863e-07 0)
(0.00100163 6.96604e-07 0)
(0.00100191 4.07131e-07 0)
(0.00100206 -5.15599e-08 0)
(0.001002 -5.82216e-07 0)
(0.0010017 -1.03771e-06 0)
(0.00100119 -1.27959e-06 0)
(0.00100064 -1.22895e-06 0)
(0.00100015 -9.98092e-07 0)
(0.000999905 -7.08534e-07 0)
(0.00099973 -5.58871e-07 0)
(0.000999741 -4.81236e-07 0)
(0.000999549 -5.94412e-07 0)
(0.001 5.20723e-08 0)
(0.00100004 1.55096e-07 0)
(0.00100012 2.53675e-07 0)
(0.00100025 3.4381e-07 0)
(0.00100041 4.22644e-07 0)
(0.00100062 4.82251e-07 0)
(0.00100086 5.09238e-07 0)
(0.00100111 4.76914e-07 0)
(0.00100137 3.65537e-07 0)
(0.00100157 1.56577e-07 0)
(0.00100166 -1.20568e-07 0)
(0.0010016 -4.25653e-07 0)
(0.00100139 -6.82545e-07 0)
(0.00100103 -8.40297e-07 0)
(0.00100063 -8.48914e-07 0)
(0.00100021 -7.72857e-07 0)
(0.000999942 -6.42622e-07 0)
(0.000999678 -5.9855e-07 0)
(0.000999616 -5.57314e-07 0)
(0.000999376 -6.81905e-07 0)
(0.001 3.54642e-08 0)
(0.00100004 1.0795e-07 0)
(0.00100011 1.79169e-07 0)
(0.00100023 2.45348e-07 0)
(0.00100038 3.02927e-07 0)
(0.00100056 3.4847e-07 0)
(0.00100076 3.74735e-07 0)
(0.00100097 3.70293e-07 0)
(0.00100116 3.21886e-07 0)
(0.0010013 2.24248e-07 0)
(0.00100136 8.38566e-08 0)
(0.00100131 -7.34919e-08 0)
(0.00100114 -2.06965e-07 0)
(0.00100086 -2.95649e-07 0)
(0.00100053 -3.10657e-07 0)
(0.00100016 -2.82538e-07 0)
(0.000999892 -2.0577e-07 0)
(0.000999601 -1.70374e-07 0)
(0.000999504 -1.16309e-07 0)
(0.000999238 -1.96693e-07 0)
(0.001 -3.8855e-09 0)
(0.00100004 -8.98871e-09 0)
(0.00100012 -1.14469e-08 0)
(0.00100024 -1.3465e-08 0)
(0.00100038 -1.67823e-08 0)
(0.00100056 -2.34418e-08 0)
(0.00100075 -3.43772e-08 0)
(0.00100094 -5.35217e-08 0)
(0.00100111 -8.15693e-08 0)
(0.00100123 -1.22398e-07 0)
(0.00100128 -1.71299e-07 0)
(0.00100121 -2.32425e-07 0)
(0.00100106 -2.90383e-07 0)
(0.0010008 -3.40306e-07 0)
(0.00100053 -3.58836e-07 0)
(0.00100017 -3.68063e-07 0)
(0.000999936 -3.43426e-07 0)
(0.000999596 -3.53536e-07 0)
(0.000999509 -3.27221e-07 0)
(0.000999119 -4.10045e-07 0)
)
;

boundaryField
{
    sides
    {
        type            slip;
    }
    inlet
    {
        type            fixedValue;
        value           uniform (0.001 0 0);
    }
    outlet
    {
        type            zeroGradient;
    }
    frontAndBack
    {
        type            empty;
    }
}


// ************************************************************************* //
