/*--------------------------------*- C++ -*----------------------------------*\
  =========                 |
  \\      /  F ield         | OpenFOAM: The Open Source CFD Toolbox
   \\    /   O peration     | Website:  https://openfoam.org
    \\  /    A nd           | Version:  9
     \\/     M anipulation  |
\*---------------------------------------------------------------------------*/
FoamFile
{
    format      ascii;
    class       surfaceScalarField;
    location    "54";
    object      phi;
}
// * * * * * * * * * * * * * * * * * * * * * * * * * * * * * * * * * * * * * //

dimensions      [0 4 -1 0 0 0 0];

internalField   nonuniform List<scalar> 
760
(
5.00009e-06
-9.70898e-11
5.0004e-06
-3.17364e-10
5.00091e-06
-5.29137e-10
5.00162e-06
-7.19884e-10
5.00249e-06
-8.79052e-10
5.00348e-06
-9.97183e-10
5.00453e-06
-1.05188e-09
5.00555e-06
-1.01286e-09
5.00638e-06
-8.34239e-10
5.00691e-06
-5.23674e-10
5.00702e-06
-1.17732e-10
5.00662e-06
4.06328e-10
5.00576e-06
8.5257e-10
5.00466e-06
1.09206e-09
5.00349e-06
1.15995e-09
5.00253e-06
9.50247e-10
5.0018e-06
7.24393e-10
5.00154e-06
2.51997e-10
5.00143e-06
1.01292e-10
-3.95062e-10
5.00012e-06
-2.21756e-10
5.00044e-06
-6.56282e-10
5.00098e-06
-1.07711e-09
5.00172e-06
-1.46908e-09
5.00265e-06
-1.81186e-09
5.00373e-06
-2.08259e-09
5.00491e-06
-2.23606e-09
5.00609e-06
-2.19377e-09
5.00711e-06
-1.86302e-09
5.00776e-06
-1.17179e-09
5.00772e-06
-7.90364e-11
5.00722e-06
9.02591e-10
5.00623e-06
1.84205e-09
5.00492e-06
2.39761e-09
5.00365e-06
2.4296e-09
5.00274e-06
1.85768e-09
5.00219e-06
1.26154e-09
5.00185e-06
5.90383e-10
5.00158e-06
3.60585e-10
-1.54016e-10
5.0001e-06
-3.33391e-10
5.00042e-06
-9.85749e-10
5.00096e-06
-1.61954e-09
5.00172e-06
-2.23707e-09
5.00272e-06
-2.81169e-09
5.00393e-06
-3.30482e-09
5.0053e-06
-3.61698e-09
5.0067e-06
-3.59797e-09
5.00791e-06
-3.07606e-09
5.0087e-06
-1.96298e-09
5.00891e-06
-2.88211e-10
5.00822e-06
1.59071e-09
5.00683e-06
3.23087e-09
5.00512e-06
4.11449e-09
5.00347e-06
4.07599e-09
5.00227e-06
3.06231e-09
5.00161e-06
1.91855e-09
5.00141e-06
7.8624e-10
5.00138e-06
3.81542e-10
-2.3022e-10
5.0001e-06
-4.35252e-10
5.0004e-06
-1.30119e-09
5.00094e-06
-2.16076e-09
5.00175e-06
-3.04254e-09
5.00286e-06
-3.92016e-09
5.00428e-06
-4.74157e-09
5.006e-06
-5.34438e-09
5.00793e-06
-5.5394e-09
5.00982e-06
-4.9667e-09
5.01105e-06
-3.2024e-09
5.01117e-06
-3.9991e-10
5.00996e-06
2.80175e-09
5.00761e-06
5.57555e-09
5.00511e-06
6.62278e-09
5.00343e-06
5.74779e-09
5.00265e-06
3.83891e-09
5.00243e-06
2.1462e-09
5.00225e-06
9.58425e-10
5.00193e-06
6.98969e-10
3.30884e-10
5.00008e-06
-5.17648e-10
5.00034e-06
-1.56068e-09
5.00084e-06
-2.65469e-09
5.00164e-06
-3.84633e-09
5.00286e-06
-5.14668e-09
5.00457e-06
-6.45956e-09
5.00679e-06
-7.57009e-09
5.0094e-06
-8.15939e-09
5.01236e-06
-7.94204e-09
5.01477e-06
-5.58976e-09
5.01479e-06
-4.45919e-10
5.01281e-06
4.79572e-09
5.00864e-06
9.75467e-09
5.00456e-06
1.06936e-08
5.0022e-06
8.1033e-09
5.00169e-06
4.33672e-09
5.00199e-06
1.84992e-09
5.00219e-06
7.55561e-10
5.00195e-06
9.44325e-10
6.20456e-10
5.00004e-06
-5.57509e-10
5.0002e-06
-1.71311e-09
5.00054e-06
-2.99184e-09
5.00121e-06
-4.51963e-09
5.00241e-06
-6.34787e-09
5.00452e-06
-8.57279e-09
5.00759e-06
-1.06477e-08
5.01166e-06
-1.22312e-08
5.01551e-06
-1.17967e-08
5.01898e-06
-9.05063e-09
5.02019e-06
-1.65214e-09
5.01598e-06
8.97022e-09
5.00947e-06
1.62817e-08
5.00418e-06
1.59946e-08
5.00212e-06
1.01416e-08
5.00244e-06
4.0079e-09
5.00321e-06
1.07017e-09
5.00333e-06
6.30133e-10
5.00273e-06
1.54781e-09
1.42065e-09
4.99998e-06
-5.33942e-10
4.99994e-06
-1.66445e-09
5.00003e-06
-3.07839e-09
5.00036e-06
-4.84662e-09
5.00122e-06
-7.20742e-09
5.00292e-06
-1.02718e-08
5.0068e-06
-1.45286e-08
5.0139e-06
-1.9346e-08
5.02375e-06
-2.16085e-08
5.03088e-06
-1.62689e-08
5.02871e-06
6.50438e-10
5.0167e-06
2.09583e-08
5.00413e-06
2.88084e-08
4.99869e-06
2.1442e-08
5.00053e-06
8.29809e-09
5.00279e-06
1.73153e-09
5.00365e-06
1.95223e-10
5.0036e-06
6.79327e-10
5.00298e-06
2.16748e-09
1.6826e-09
4.99987e-06
-3.9578e-10
4.99956e-06
-1.34216e-09
4.99913e-06
-2.64226e-09
4.99885e-06
-4.5698e-09
4.99933e-06
-7.67731e-09
5.00036e-06
-1.13009e-08
5.00365e-06
-1.78194e-08
5.00982e-06
-2.55117e-08
5.02486e-06
-3.66787e-08
5.05609e-06
-4.74746e-08
5.04991e-06
6.64956e-09
5.02316e-06
4.7828e-08
4.99815e-06
5.3811e-08
4.99345e-06
2.61223e-08
4.99941e-06
2.32716e-09
5.00401e-06
-2.8782e-09
5.00485e-06
-6.5323e-10
5.00366e-06
1.85419e-09
5.00343e-06
2.3859e-09
9.73712e-10
4.99978e-06
-1.61205e-10
4.99916e-06
-7.17966e-10
4.99792e-06
-1.39751e-09
4.99611e-06
-2.7481e-09
4.99402e-06
-5.5825e-09
4.99375e-06
-1.10221e-08
4.99946e-06
-2.35313e-08
5.01713e-06
-4.31997e-08
5.05569e-06
-7.52261e-08
5.06679e-06
-5.8628e-08
5.0498e-06
2.38191e-08
4.99646e-06
1.01029e-07
4.98927e-06
6.09962e-08
4.99586e-06
1.95268e-08
5.00013e-06
-1.95485e-09
5.00287e-06
-5.61985e-09
5.00246e-06
-2.51758e-10
5.00178e-06
2.52711e-09
5.00247e-06
1.68585e-09
7.67456e-11
4.99987e-06
-1.76502e-11
4.99921e-06
-5.52304e-11
4.99791e-06
-9.02723e-11
4.9953e-06
-1.30106e-10
4.9899e-06
-1.68904e-10
4.97909e-06
-2.16706e-10
4.95583e-06
-2.64812e-10
4.91296e-06
-3.31682e-10
4.8381e-06
-4.09049e-10
4.77998e-06
-4.30591e-10
4.80424e-06
-6.05176e-10
4.90601e-06
-7.14426e-10
4.96777e-06
-7.30882e-10
4.98818e-06
-9.04191e-10
4.98739e-06
-1.17407e-09
4.9832e-06
-1.43509e-09
4.9845e-06
-1.56105e-09
4.98884e-06
-1.8278e-09
4.9924e-06
-1.88542e-09
-2.57468e-09
4.99987e-06
1.2675e-10
4.99921e-06
6.07482e-10
4.99791e-06
1.22137e-09
4.99529e-06
2.49274e-09
4.98988e-06
5.25378e-09
4.97906e-06
1.06003e-08
4.95578e-06
2.30164e-08
4.9129e-06
4.25566e-08
4.83802e-06
7.44619e-08
4.77972e-06
5.78626e-08
4.80422e-06
-2.51229e-08
4.90597e-06
-1.02474e-07
4.96773e-06
-6.25238e-08
4.98801e-06
-2.12043e-08
4.98729e-06
-4.57398e-10
4.98287e-06
2.98937e-09
4.98437e-06
-3.06234e-09
4.98883e-06
-6.29078e-09
4.99228e-06
-5.34426e-09
-4.97033e-09
4.99977e-06
3.61927e-10
4.99915e-06
1.23774e-09
4.99792e-06
2.46516e-09
4.9961e-06
4.31675e-09
4.99402e-06
7.34119e-09
4.99374e-06
1.08845e-08
4.99943e-06
1.73215e-08
5.01707e-06
2.49116e-08
5.05563e-06
3.59367e-08
5.06708e-06
4.63392e-08
5.04948e-06
-7.87868e-09
4.99607e-06
-4.91404e-08
4.9888e-06
-5.52922e-08
4.99564e-06
-2.80481e-08
5.00004e-06
-4.86491e-09
5.00225e-06
7.81792e-10
5.00159e-06
-2.41264e-09
5.00084e-06
-5.54625e-09
5.00161e-06
-6.1197e-09
-5.93474e-09
4.99987e-06
5.00571e-10
4.99955e-06
1.5646e-09
4.99911e-06
2.91055e-09
4.99882e-06
4.60559e-09
4.99927e-06
6.89906e-09
5.00027e-06
9.89019e-09
5.00348e-06
1.41079e-08
5.0096e-06
1.8792e-08
5.02457e-06
2.09414e-08
5.05553e-06
1.54344e-08
5.04969e-06
-1.74188e-09
5.0228e-06
-2.22074e-08
4.99785e-06
-3.03239e-08
4.99311e-06
-2.33341e-08
4.99858e-06
-1.03426e-08
5.00339e-06
-4.03352e-09
5.00366e-06
-2.69969e-09
5.00229e-06
-4.18137e-09
5.00209e-06
-5.92403e-09
-6.51632e-09
4.99998e-06
5.25374e-10
4.99993e-06
1.62042e-09
5.00001e-06
2.84035e-09
5.0003e-06
4.30661e-09
5.00113e-06
6.07615e-09
5.0028e-06
8.23075e-09
5.00668e-06
1.02221e-08
5.01377e-06
1.1689e-08
5.02356e-06
1.11552e-08
5.03067e-06
8.2849e-09
5.02837e-06
6.1679e-10
5.01624e-06
-1.00577e-08
5.00347e-06
-1.75759e-08
4.99773e-06
-1.76051e-08
4.99936e-06
-1.19811e-08
5.00155e-06
-6.2342e-09
5.00234e-06
-3.50303e-09
5.00206e-06
-3.91347e-09
5.00113e-06
-4.98486e-09
-5.95569e-09
5.00004e-06
4.8887e-10
5.00018e-06
1.47853e-09
5.00051e-06
2.52209e-09
5.00115e-06
3.66175e-09
5.00231e-06
4.90755e-09
5.00439e-06
6.15746e-09
5.00741e-06
7.1999e-09
5.01139e-06
7.7079e-09
5.01512e-06
7.41227e-09
5.01851e-06
4.88503e-09
5.01954e-06
-4.21933e-10
5.0152e-06
-5.73927e-09
5.00851e-06
-1.089e-08
5.00307e-06
-1.21739e-08
5.00083e-06
-9.74991e-09
5.00095e-06
-6.36936e-09
5.00149e-06
-4.05191e-09
5.00125e-06
-3.67661e-09
5.00029e-06
-4.02104e-09
-4.95483e-09
5.00007e-06
4.10696e-10
5.00032e-06
1.23219e-09
5.0008e-06
2.05069e-09
5.00157e-06
2.88786e-09
5.00274e-06
3.72373e-09
5.0044e-06
4.49746e-09
5.00655e-06
5.05169e-09
5.00908e-06
5.16776e-09
5.01201e-06
4.47312e-09
5.01438e-06
2.5122e-09
5.01413e-06
-1.72574e-10
5.01206e-06
-3.67698e-09
5.00772e-06
-6.55724e-09
5.00345e-06
-7.90826e-09
5.00088e-06
-7.19017e-09
5.00007e-06
-5.57174e-09
5.00004e-06
-4.02253e-09
4.99981e-06
-3.44312e-09
4.99911e-06
-3.31706e-09
-4.15103e-09
5.00009e-06
3.10181e-10
5.00039e-06
9.30946e-10
5.00091e-06
1.53648e-09
5.00168e-06
2.11711e-09
5.00273e-06
2.65695e-09
5.00411e-06
3.10925e-09
5.00577e-06
3.38265e-09
5.00761e-06
3.3237e-09
5.00931e-06
2.77187e-09
5.01025e-06
1.57162e-09
5.01041e-06
-3.25862e-10
5.009e-06
-2.27054e-09
5.00647e-06
-4.02836e-09
5.00364e-06
-5.07848e-09
5.0015e-06
-5.05619e-09
5.00029e-06
-4.36702e-09
4.99965e-06
-3.37222e-09
4.99911e-06
-2.8999e-09
4.99839e-06
-2.59996e-09
-3.19626e-09
5.0001e-06
2.04143e-10
5.0004e-06
6.15797e-10
5.00093e-06
1.01341e-09
5.00166e-06
1.37798e-09
5.00261e-06
1.69695e-09
5.00376e-06
1.94281e-09
5.00507e-06
2.06333e-09
5.00643e-06
1.96475e-09
5.00763e-06
1.57076e-09
5.00837e-06
8.34011e-10
5.0082e-06
-1.46519e-10
5.00731e-06
-1.37949e-09
5.00567e-06
-2.38369e-09
5.00365e-06
-3.05631e-09
5.00175e-06
-3.16077e-09
5.00029e-06
-2.90198e-09
4.99926e-06
-2.34032e-09
4.99846e-06
-2.09724e-09
4.99767e-06
-1.80964e-09
-2.26285e-09
5.00008e-06
1.16572e-10
5.00037e-06
3.1625e-10
5.00086e-06
5.09812e-10
5.00155e-06
6.85749e-10
5.0024e-06
8.33229e-10
5.00339e-06
9.41291e-10
5.00446e-06
9.89968e-10
5.00549e-06
9.37603e-10
5.00632e-06
7.43136e-10
5.00679e-06
3.637e-10
5.00679e-06
-1.46735e-10
5.00605e-06
-6.36492e-10
5.00476e-06
-1.093e-09
5.00312e-06
-1.42123e-09
5.00145e-06
-1.49214e-09
4.99998e-06
-1.43527e-09
4.99883e-06
-1.191e-09
4.99786e-06
-1.13428e-09
4.997e-06
-9.63638e-10
-1.41659e-09
5.00011e-06
5.00041e-06
5.00091e-06
5.00158e-06
5.00241e-06
5.00335e-06
5.00434e-06
5.00528e-06
5.00602e-06
5.00638e-06
5.00623e-06
5.00559e-06
5.0045e-06
5.00307e-06
5.00157e-06
5.00013e-06
4.99893e-06
4.99778e-06
4.9968e-06
)
;

boundaryField
{
    sides
    {
        type            calculated;
        value           uniform 0;
    }
    inlet
    {
        type            calculated;
        value           nonuniform List<scalar> 
20
(
-5e-06
-5e-06
-5e-06
-5e-06
-5e-06
-5e-06
-5e-06
-5e-06
-5e-06
-5e-06
-5e-06
-5e-06
-5e-06
-5e-06
-5e-06
-5e-06
-5e-06
-5e-06
-5e-06
-5e-06
)
;
    }
    outlet
    {
        type            calculated;
        value           nonuniform List<scalar> 
20
(
5.00183e-06
5.00134e-06
5.00145e-06
5.00137e-06
5.00166e-06
5.00194e-06
5.00272e-06
5.00414e-06
5.00336e-06
4.99506e-06
4.99467e-06
5.00257e-06
5.00268e-06
5.00057e-06
4.99929e-06
4.99831e-06
4.99744e-06
4.99673e-06
4.99615e-06
4.99538e-06
)
;
    }
    frontAndBack
    {
        type            empty;
        value           nonuniform List<scalar> 0();
    }
}


// ************************************************************************* //
