/*--------------------------------*- C++ -*----------------------------------*\
  =========                 |
  \\      /  F ield         | OpenFOAM: The Open Source CFD Toolbox
   \\    /   O peration     | Website:  https://openfoam.org
    \\  /    A nd           | Version:  9
     \\/     M anipulation  |
\*---------------------------------------------------------------------------*/
FoamFile
{
    format      ascii;
    class       volVectorField;
    location    "54";
    object      U;
}
// * * * * * * * * * * * * * * * * * * * * * * * * * * * * * * * * * * * * * //

dimensions      [0 1 -1 0 0 0 0];

internalField   nonuniform List<vector> 
400
(
(0.0999967 -2.47827e-06 0)
(0.100001 -7.20006e-06 0)
(0.10001 -1.15199e-05 0)
(0.100023 -1.54024e-05 0)
(0.10004 -1.87767e-05 0)
(0.100061 -2.16139e-05 0)
(0.100083 -2.36274e-05 0)
(0.100106 -2.45448e-05 0)
(0.100127 -2.36728e-05 0)
(0.100144 -2.10983e-05 0)
(0.100152 -1.66771e-05 0)
(0.100151 -1.27249e-05 0)
(0.100139 -9.88916e-06 0)
(0.100119 -9.39404e-06 0)
(0.100093 -1.00728e-05 0)
(0.100068 -1.35705e-05 0)
(0.100044 -1.55751e-05 0)
(0.100032 -2.00572e-05 0)
(0.100024 -1.88633e-05 0)
(0.100031 -2.68502e-05 0)
(0.0999973 -2.79822e-06 0)
(0.100002 -8.24456e-06 0)
(0.100011 -1.33312e-05 0)
(0.100025 -1.78276e-05 0)
(0.100044 -2.14519e-05 0)
(0.100066 -2.38794e-05 0)
(0.10009 -2.44277e-05 0)
(0.100116 -2.20536e-05 0)
(0.100141 -1.55633e-05 0)
(0.100161 -4.75531e-06 0)
(0.100171 9.597e-06 0)
(0.100168 2.50554e-05 0)
(0.100153 3.89802e-05 0)
(0.100129 4.7432e-05 0)
(0.100099 5.02641e-05 0)
(0.10007 4.51922e-05 0)
(0.10005 3.81848e-05 0)
(0.100036 2.59686e-05 0)
(0.100032 2.04263e-05 0)
(0.100027 8.02791e-06 0)
(0.0999972 -5.44058e-06 0)
(0.100002 -1.64562e-05 0)
(0.100011 -2.74317e-05 0)
(0.100025 -3.79444e-05 0)
(0.100045 -4.74873e-05 0)
(0.100069 -5.53491e-05 0)
(0.100096 -6.02038e-05 0)
(0.100126 -5.98445e-05 0)
(0.100156 -5.20504e-05 0)
(0.100179 -3.52034e-05 0)
(0.100193 -1.07089e-05 0)
(0.100192 1.66862e-05 0)
(0.100174 4.02785e-05 0)
(0.100141 5.17047e-05 0)
(0.100102 4.96882e-05 0)
(0.100065 3.54883e-05 0)
(0.100037 2.08118e-05 0)
(0.100024 4.94932e-06 0)
(0.10002 -4.65138e-07 0)
(0.100028 -1.18417e-05 0)
(0.0999966 -7.59811e-06 0)
(0.100001 -2.29631e-05 0)
(0.100011 -3.84119e-05 0)
(0.100025 -5.371e-05 0)
(0.100046 -6.8209e-05 0)
(0.100073 -8.08281e-05 0)
(0.100107 -8.8797e-05 0)
(0.100145 -8.87573e-05 0)
(0.100186 -7.59346e-05 0)
(0.100222 -4.76047e-05 0)
(0.100243 -1.71734e-06 0)
(0.10024 4.98669e-05 0)
(0.10021 9.38346e-05 0)
(0.100159 0.000113667 0)
(0.100104 0.000105192 0)
(0.10006 7.45288e-05 0)
(0.100041 4.31122e-05 0)
(0.100034 1.74395e-05 0)
(0.100039 9.96899e-06 0)
(0.100034 -1.4091e-07 0)
(0.0999956 -9.37303e-06 0)
(0.0999997 -2.85952e-05 0)
(0.100008 -4.86755e-05 0)
(0.100023 -7.0104e-05 0)
(0.100045 -9.22919e-05 0)
(0.100076 -0.000113813 0)
(0.100117 -0.000129807 0)
(0.100168 -0.000134005 0)
(0.100225 -0.000117968 0)
(0.100281 -7.7934e-05 0)
(0.100318 -1.65558e-05 0)
(0.100316 5.86843e-05 0)
(0.100267 0.000123336 0)
(0.100181 0.000150916 0)
(0.10009 0.000137275 0)
(0.100029 9.67084e-05 0)
(0.100009 5.89687e-05 0)
(0.100018 3.19677e-05 0)
(0.100034 2.59668e-05 0)
(0.100042 1.65983e-05 0)
(0.0999942 -1.06015e-05 0)
(0.0999971 -3.26108e-05 0)
(0.100004 -5.71544e-05 0)
(0.100016 -8.51949e-05 0)
(0.100036 -0.000117559 0)
(0.10007 -0.000152418 0)
(0.100122 -0.000185861 0)
(0.100193 -0.000205725 0)
(0.100277 -0.000191743 0)
(0.100357 -0.000119893 0)
(0.100414 8.87857e-06 0)
(0.100415 0.000155172 0)
(0.100339 0.000243758 0)
(0.100207 0.000230137 0)
(0.100084 0.000142656 0)
(0.100014 4.94097e-05 0)
(0.100011 2.06974e-06 0)
(0.100034 -8.00331e-06 0)
(0.100063 5.92553e-06 0)
(0.100054 4.89011e-06 0)
(0.0999926 -1.04776e-05 0)
(0.0999932 -3.39987e-05 0)
(0.0999952 -6.10351e-05 0)
(0.100001 -9.69067e-05 0)
(0.100016 -0.000139539 0)
(0.100047 -0.000194549 0)
(0.100104 -0.00024886 0)
(0.100202 -0.00030868 0)
(0.10035 -0.000323758 0)
(0.100519 -0.000288116 0)
(0.100632 -6.62331e-05 0)
(0.10059 0.000256003 0)
(0.100382 0.000483146 0)
(0.100117 0.000473379 0)
(0.0999472 0.000302393 0)
(0.099921 0.000126476 0)
(0.0999916 4.38184e-05 0)
(0.100055 3.32054e-05 0)
(0.100094 5.6156e-05 0)
(0.100066 5.33408e-05 0)
(0.0999907 -9.39949e-06 0)
(0.0999878 -2.93708e-05 0)
(0.0999809 -5.8384e-05 0)
(0.0999771 -9.62881e-05 0)
(0.0999778 -0.000158001 0)
(0.100002 -0.000234392 0)
(0.100048 -0.000340166 0)
(0.10016 -0.000412598 0)
(0.100335 -0.000437472 0)
(0.100659 -0.000255266 0)
(0.101006 7.54322e-05 0)
(0.101013 0.000427595 0)
(0.100606 0.000472122 0)
(0.100071 0.000277983 0)
(0.0997812 7.32264e-05 0)
(0.0997959 -2.74365e-05 0)
(0.0999661 -2.80573e-05 0)
(0.100088 -5.28847e-07 0)
(0.100137 2.12507e-05 0)
(0.100085 1.02945e-05 0)
(0.0999897 -5.00591e-06 0)
(0.099981 -2.07123e-05 0)
(0.0999631 -3.91257e-05 0)
(0.0999379 -7.39228e-05 0)
(0.099911 -0.000134001 0)
(0.0999024 -0.000248008 0)
(0.0999573 -0.000468624 0)
(0.100145 -0.000806907 0)
(0.100537 -0.00132917 0)
(0.101061 -0.00149301 0)
(0.101323 0.000384616 0)
(0.100997 0.00187517 0)
(0.100241 0.00157831 0)
(0.0997196 0.000573663 0)
(0.0996437 -3.18179e-05 0)
(0.0998209 -0.000126379 0)
(0.100023 -9.15122e-06 0)
(0.100106 6.37397e-05 0)
(0.100112 6.53164e-05 0)
(0.100054 2.44803e-05 0)
(0.0999705 -2.02187e-06 0)
(0.100006 -6.8257e-06 0)
(0.099908 -1.5359e-05 0)
(0.0999718 -2.50543e-05 0)
(0.0997262 -5.92762e-05 0)
(0.0998446 -0.00011302 0)
(0.0992771 -0.000288114 0)
(0.0996757 -0.000558816 0)
(0.0991183 -0.00115361 0)
(0.102003 -0.00141505 0)
(0.10628 3.10745e-05 0)
(0.101267 0.0014674 0)
(0.0990076 0.00130732 0)
(0.0982221 0.000513017 0)
(0.0988545 1.91895e-05 0)
(0.099604 -7.82482e-05 0)
(0.099934 -1.11034e-05 0)
(0.0999512 2.49258e-05 0)
(0.0998657 1.7619e-05 0)
(0.0998474 -1.83023e-05 0)
(0.0999712 1.31045e-06 0)
(0.100007 4.6242e-06 0)
(0.0999086 1.18073e-05 0)
(0.0999723 2.0061e-05 0)
(0.0997266 5.29417e-05 0)
(0.0998447 0.000105082 0)
(0.0992769 0.000278541 0)
(0.099675 0.000547032 0)
(0.0991174 0.00113912 0)
(0.102001 0.00139799 0)
(0.106276 -5.27685e-05 0)
(0.101265 -0.00149418 0)
(0.0990076 -0.00133966 0)
(0.0982217 -0.000552684 0)
(0.0988529 -6.4907e-05 0)
(0.0996004 2.46772e-05 0)
(0.0999299 -4.73438e-05 0)
(0.0999468 -0.000100274 0)
(0.0998646 -9.85797e-05 0)
(0.0998426 -8.86105e-05 0)
(0.0999917 4.32149e-06 0)
(0.099983 1.8606e-05 0)
(0.099965 3.56578e-05 0)
(0.0999398 6.90204e-05 0)
(0.0999127 0.000127734 0)
(0.0999043 0.000240059 0)
(0.0999587 0.000458939 0)
(0.100147 0.000794644 0)
(0.100538 0.00131415 0)
(0.101064 0.0014733 0)
(0.101325 -0.00040758 0)
(0.100995 -0.0019032 0)
(0.100234 -0.00161032 0)
(0.0997115 -0.00061214 0)
(0.0996377 -8.4455e-06 0)
(0.0998162 7.73664e-05 0)
(0.100013 -4.297e-05 0)
(0.100091 -0.000130676 0)
(0.100092 -0.000137606 0)
(0.100036 -0.000124759 0)
(0.0999941 8.74324e-06 0)
(0.0999911 2.73915e-05 0)
(0.0999841 5.50153e-05 0)
(0.0999799 9.14884e-05 0)
(0.0999801 0.00015154 0)
(0.100003 0.000226093 0)
(0.100048 0.0003295 0)
(0.100159 0.000399614 0)
(0.100332 0.000421787 0)
(0.100654 0.000236554 0)
(0.100999 -9.87116e-05 0)
(0.101007 -0.000455369 0)
(0.100601 -0.000502744 0)
(0.100067 -0.000313005 0)
(0.0997743 -0.000113083 0)
(0.0997836 -2.53885e-05 0)
(0.0999498 -3.27789e-05 0)
(0.100065 -7.44301e-05 0)
(0.10011 -9.62849e-05 0)
(0.100055 -0.000106998 0)
(0.0999973 9.83931e-06 0)
(0.0999977 3.20932e-05 0)
(0.0999994 5.78586e-05 0)
(0.100005 9.23369e-05 0)
(0.100019 0.000133592 0)
(0.100049 0.000187046 0)
(0.100105 0.000239975 0)
(0.100203 0.000298026 0)
(0.100351 0.000311794 0)
(0.100519 0.000273642 0)
(0.100631 5.04602e-05 0)
(0.100586 -0.000275977 0)
(0.100375 -0.00050823 0)
(0.100104 -0.000507025 0)
(0.0999296 -0.000344813 0)
(0.0998979 -0.000179704 0)
(0.099967 -0.000102789 0)
(0.100025 -0.000106306 0)
(0.100064 -0.000130209 0)
(0.100024 -0.000151108 0)
(0.1 1.00029e-05 0)
(0.100003 3.08768e-05 0)
(0.100009 5.43312e-05 0)
(0.100021 8.12075e-05 0)
(0.100041 0.000112405 0)
(0.100074 0.000145902 0)
(0.100124 0.000177915 0)
(0.100194 0.000195611 0)
(0.100276 0.000178936 0)
(0.100353 0.000103722 0)
(0.100407 -2.83981e-05 0)
(0.100405 -0.000178914 0)
(0.100326 -0.000271424 0)
(0.10019 -0.000263068 0)
(0.100063 -0.000177796 0)
(0.0999881 -8.98822e-05 0)
(0.0999824 -4.34684e-05 0)
(0.0999971 -4.52437e-05 0)
(0.100022 -6.11243e-05 0)
(0.100001 -8.4387e-05 0)
(0.100003 8.83703e-06 0)
(0.100007 2.70633e-05 0)
(0.100015 4.62213e-05 0)
(0.100029 6.67731e-05 0)
(0.10005 8.80082e-05 0)
(0.10008 0.000108407 0)
(0.10012 0.000123064 0)
(0.10017 0.000125714 0)
(0.100225 0.000107891 0)
(0.100279 6.57964e-05 0)
(0.100314 1.27708e-06 0)
(0.100308 -7.78337e-05 0)
(0.100256 -0.000145437 0)
(0.100165 -0.000177391 0)
(0.100071 -0.000166747 0)
(0.100002 -0.000135197 0)
(0.0999782 -0.000103731 0)
(0.0999755 -9.41368e-05 0)
(0.0999882 -9.39865e-05 0)
(0.0999763 -0.000110377 0)
(0.100005 7.1461e-06 0)
(0.10001 2.15857e-05 0)
(0.100019 3.61655e-05 0)
(0.100033 5.06937e-05 0)
(0.100053 6.45784e-05 0)
(0.100079 7.65027e-05 0)
(0.100111 8.3771e-05 0)
(0.100148 8.28983e-05 0)
(0.100186 6.95627e-05 0)
(0.100218 4.06975e-05 0)
(0.100234 -5.19267e-06 0)
(0.100228 -5.83449e-05 0)
(0.100195 -0.000103944 0)
(0.100138 -0.00012805 0)
(0.100076 -0.00012288 0)
(0.100022 -9.97684e-05 0)
(0.0999942 -7.08822e-05 0)
(0.0999752 -5.60159e-05 0)
(0.0999757 -4.81877e-05 0)
(0.0999558 -5.93981e-05 0)
(0.100007 5.21905e-06 0)
(0.100012 1.55144e-05 0)
(0.100021 2.53508e-05 0)
(0.100035 3.43435e-05 0)
(0.100053 4.22332e-05 0)
(0.100076 4.81807e-05 0)
(0.100102 5.08267e-05 0)
(0.100131 4.75741e-05 0)
(0.100159 3.65074e-05 0)
(0.100182 1.56624e-05 0)
(0.100193 -1.20937e-05 0)
(0.100186 -4.26866e-05 0)
(0.100162 -6.83987e-05 0)
(0.100122 -8.41073e-05 0)
(0.100077 -8.49058e-05 0)
(0.100031 -7.7265e-05 0)
(0.1 -6.42479e-05 0)
(0.0999716 -5.98773e-05 0)
(0.0999637 -5.57011e-05 0)
(0.0999384 -6.81221e-05 0)
(0.100009 3.55971e-06 0)
(0.100013 1.08127e-05 0)
(0.100021 1.79124e-05 0)
(0.100034 2.44884e-05 0)
(0.100051 3.0228e-05 0)
(0.100071 3.47929e-05 0)
(0.100093 3.74317e-05 0)
(0.100116 3.69986e-05 0)
(0.100138 3.22039e-05 0)
(0.100153 2.2474e-05 0)
(0.10016 8.42244e-06 0)
(0.100154 -7.38232e-06 0)
(0.100136 -2.07645e-05 0)
(0.100104 -2.96092e-05 0)
(0.100068 -3.10721e-05 0)
(0.100027 -2.82223e-05 0)
(0.0999964 -2.0525e-05 0)
(0.0999646 -1.69904e-05 0)
(0.0999529 -1.15537e-05 0)
(0.0999246 -1.96014e-05 0)
(0.10001 -3.83761e-07 0)
(0.100015 -8.90199e-07 0)
(0.100023 -1.1479e-06 0)
(0.100036 -1.37152e-06 0)
(0.100053 -1.7153e-06 0)
(0.100072 -2.37332e-06 0)
(0.100093 -3.45081e-06 0)
(0.100114 -5.35463e-06 0)
(0.100134 -8.14655e-06 0)
(0.100147 -1.22167e-05 0)
(0.100152 -1.71079e-05 0)
(0.100145 -2.32566e-05 0)
(0.100128 -2.90637e-05 0)
(0.1001 -3.40437e-05 0)
(0.100069 -3.58823e-05 0)
(0.10003 -3.6791e-05 0)
(0.100003 -3.43155e-05 0)
(0.0999658 -3.53246e-05 0)
(0.0999544 -3.2684e-05 0)
(0.0999132 -4.0977e-05 0)
)
;

boundaryField
{
    sides
    {
        type            calculated;
        value           nonuniform List<vector> 
40
(
(0.10001 0 0)
(0.100015 0 0)
(0.100023 0 0)
(0.100036 0 0)
(0.100053 0 0)
(0.100072 0 0)
(0.100093 0 0)
(0.100114 0 0)
(0.100134 0 0)
(0.100147 0 0)
(0.100152 0 0)
(0.100145 0 0)
(0.100128 0 0)
(0.1001 0 0)
(0.100069 0 0)
(0.10003 0 0)
(0.100003 0 0)
(0.0999658 0 0)
(0.0999544 0 0)
(0.0999132 0 0)
(0.0999967 0 0)
(0.100001 0 0)
(0.10001 0 0)
(0.100023 0 0)
(0.10004 0 0)
(0.100061 0 0)
(0.100083 0 0)
(0.100106 0 0)
(0.100127 0 0)
(0.100144 0 0)
(0.100152 0 0)
(0.100151 0 0)
(0.100139 0 0)
(0.100119 0 0)
(0.100093 0 0)
(0.100068 0 0)
(0.100044 0 0)
(0.100032 0 0)
(0.100024 0 0)
(0.100031 0 0)
)
;
    }
    inlet
    {
        type            calculated;
        value           nonuniform List<vector> 
20
(
(0.0999966 0 0)
(0.0999971 0 0)
(0.099997 0 0)
(0.0999964 0 0)
(0.0999953 0 0)
(0.099994 0 0)
(0.0999925 0 0)
(0.099991 0 0)
(0.0999901 0 0)
(0.09999 0 0)
(0.0999907 0 0)
(0.0999921 0 0)
(0.0999944 0 0)
(0.0999972 0 0)
(0.1 0 0)
(0.100003 0 0)
(0.100005 0 0)
(0.100007 0 0)
(0.100009 0 0)
(0.10001 0 0)
)
;
    }
    outlet
    {
        type            calculated;
        value           nonuniform List<vector> 
20
(
(0.100032 -2.68503e-05 0)
(0.100027 8.0279e-06 0)
(0.100028 -1.18417e-05 0)
(0.100033 -1.40909e-07 0)
(0.100042 1.65983e-05 0)
(0.100053 4.89007e-06 0)
(0.100064 5.33401e-05 0)
(0.100083 1.02944e-05 0)
(0.100053 2.448e-05 0)
(0.0998489 -1.83026e-05 0)
(0.0998439 -8.86116e-05 0)
(0.100035 -0.000124757 0)
(0.100054 -0.000106997 0)
(0.100022 -0.000151106 0)
(0.0999993 -8.4386e-05 0)
(0.0999756 -0.000110376 0)
(0.099955 -5.93977e-05 0)
(0.0999376 -6.81215e-05 0)
(0.0999237 -1.96013e-05 0)
(0.0999118 -4.09764e-05 0)
)
;
    }
    frontAndBack
    {
        type            empty;
    }
}


// ************************************************************************* //
