2.80937e-05    50.5115
8.78022e-05    301.747
0.000154994    771.016
0.000230608    906.835
0.000315699    795.146
0.000411455    646.737
0.000519212    520.788
0.000640475    422.796
0.000776937    347.352
0.000930502    288.584
0.00110331    242.003
0.00129779     204.43
0.00151663    173.644
0.00176291    148.081
0.00204005    126.623
0.00235193    108.456
 0.0027029     92.976
0.00309785    79.7226
0.00354231    68.3392
0.00404248    58.5423
0.00460533    50.1017
0.00523873    42.8266
0.00595151    36.5565
0.00675364    31.1543
 0.0076563     26.502
0.00867209    22.4967
 0.0098152    19.0492
 0.0111016    16.0812
 0.0125492    13.5248
 0.0141782    11.3205
 0.0160115    9.41673
 0.0180745    7.76917
  0.020396    6.33991
 0.0230086    5.09751
 0.0259485    4.01739
  0.029257    3.08332
 0.0329801    2.29033
 0.0371699    1.64843
 0.0418848    1.18332
 0.0471906   0.929507
 0.0528094   0.933617
 0.0581152    1.19516
 0.0628301    1.66659
 0.0670199    2.31309
  0.070743    3.10931
 0.0740515    4.04576
 0.0769914    5.12781
  0.079604    6.37192
 0.0819255    7.80271
 0.0839885    9.45164
 0.0858218    11.3565
 0.0874508    13.5617
 0.0888984    16.1185
 0.0901848    19.0862
 0.0913279    22.5327
 0.0923437    26.5358
 0.0932464    31.1848
 0.0940485    36.5819
 0.0947613     42.845
 0.0953947    50.1108
 0.0959575    58.5393
 0.0964577    68.3208
 0.0969021     79.685
 0.0972971    92.9147
 0.0976481    108.366
   0.09796    126.499
 0.0982371    147.916
 0.0984834     173.43
 0.0987022    204.157
 0.0988967    241.659
 0.0990695    288.153
 0.0992231    346.814
 0.0993595    422.123
 0.0994808    519.938
 0.0995885    645.648
 0.0996843    793.725
 0.0997694    904.984
  0.099845    768.982
 0.0999122    300.846
 0.0999719    50.3693
