2.80937e-05    21710.3
8.78022e-05    19242.4
0.000154994    13889.5
0.000230608    8791.42
0.000315699    5712.86
0.000411455    3960.05
0.000519212    2906.95
0.000640475    2235.38
0.000776937    1780.77
0.000930502    1456.31
0.00110331    1214.24
0.00129779    1026.96
0.00151663    877.777
0.00176291     756.15
0.00204005    655.159
0.00235193    570.103
 0.0027029    497.681
0.00309785    435.501
0.00354231    381.784
0.00404248    335.164
0.00460533    294.569
0.00523873    259.135
0.00595151    228.152
0.00675364    201.027
 0.0076563    177.253
0.00867209    156.397
 0.0098152    138.081
 0.0111016    121.973
 0.0125492    107.778
 0.0141782    95.2306
 0.0160115    84.0899
 0.0180745    74.1276
  0.020396    65.1205
 0.0230086    56.8349
 0.0259485    49.0064
  0.029257    41.3136
 0.0329801    33.3648
 0.0371699    24.7651
 0.0418848    15.3258
 0.0471906    5.10824
 0.0528094    5.45799
 0.0581152    15.6457
 0.0628301    25.0272
 0.0670199    33.5613
  0.070743    41.4555
 0.0740515     49.109
 0.0769914    56.9101
  0.079604    65.1758
 0.0819255    74.1675
 0.0839885    84.1167
 0.0858218    95.2453
 0.0874508     107.78
 0.0888984    121.962
 0.0901848    138.055
 0.0913279    156.353
 0.0923437    177.188
 0.0932464    200.938
 0.0940485    228.035
 0.0947613    258.984
 0.0953947    294.378
 0.0959575    334.927
 0.0964577    381.493
 0.0969021    435.148
 0.0972971    497.256
 0.0976481    569.596
   0.09796    654.558
 0.0982371    755.442
 0.0984834    876.947
 0.0987022    1025.99
 0.0988967    1213.12
 0.0990695    1455.01
 0.0992231    1779.26
 0.0993595    2233.65
 0.0994808    2904.95
 0.0995885    3957.72
 0.0996843    5710.03
 0.0997694     8787.5
  0.099845    13881.5
 0.0999122    19225.8
 0.0999719    21687.4
