2.80937e-05 0.00754814
8.78022e-05   0.144577
0.000154994   0.452896
0.000230608   0.637675
0.000315699   0.709859
0.000411455    0.73534
0.000519212   0.741943
0.000640475   0.740626
0.000776937   0.735679
0.000930502   0.728808
0.00110331   0.720682
0.00129779   0.711546
0.00151663   0.701474
0.00176291   0.690478
0.00204005   0.678561
0.00235193   0.665732
 0.0027029   0.652017
0.00309785   0.637455
0.00354231   0.622097
0.00404248      0.606
0.00460533   0.589219
0.00523873   0.571802
0.00595151   0.553785
0.00675364   0.535186
 0.0076563   0.516001
0.00867209   0.496205
 0.0098152   0.475741
 0.0111016   0.454531
 0.0125492   0.432463
 0.0141782   0.409401
 0.0160115   0.385186
 0.0180745   0.359644
  0.020396   0.332601
 0.0230086   0.303928
 0.0259485   0.273611
  0.029257   0.241919
 0.0329801   0.209712
 0.0371699   0.178955
 0.0418848   0.153235
 0.0471906   0.137632
 0.0528094   0.137975
 0.0581152   0.154169
 0.0628301    0.18028
 0.0670199   0.211243
  0.070743   0.243528
 0.0740515   0.275227
 0.0769914   0.305513
  0.079604   0.334137
 0.0819255   0.361119
 0.0839885   0.386595
 0.0858218   0.410738
 0.0874508   0.433725
 0.0888984   0.455715
 0.0901848   0.476844
 0.0913279   0.497223
 0.0923437   0.516933
 0.0932464   0.536027
 0.0940485   0.554533
 0.0947613   0.572454
 0.0953947   0.589774
 0.0959575   0.606455
 0.0964577   0.622452
 0.0969021   0.637708
 0.0972971    0.65217
 0.0976481   0.665786
   0.09796   0.678518
 0.0982371   0.690341
 0.0984834   0.701246
 0.0987022   0.711233
 0.0988967   0.720289
 0.0990695    0.72834
 0.0992231   0.735141
 0.0993595   0.740023
 0.0994808    0.74128
 0.0995885    0.73462
 0.0996843   0.709085
 0.0997694   0.636857
  0.099845   0.452108
 0.0999122   0.144242
 0.0999719 0.00753042
