2.80937e-05 -7.46858e-05
8.78022e-05 -0.0087086
0.000154994 -0.0781229
0.000230608    -0.1379
0.000315699  -0.168185
0.000411455  -0.185096
0.000519212  -0.194755
0.000640475  -0.200629
0.000776937  -0.204319
0.000930502   -0.20657
0.00110331  -0.207728
0.00129779  -0.207966
0.00151663  -0.207383
0.00176291  -0.206048
0.00204005  -0.204023
0.00235193  -0.201369
 0.0027029  -0.198149
0.00309785  -0.194431
0.00354231  -0.190278
0.00404248   -0.18575
0.00460533  -0.180902
0.00523873   -0.17578
0.00595151  -0.170417
0.00675364  -0.164838
 0.0076563  -0.159053
0.00867209  -0.153058
 0.0098152  -0.146837
 0.0111016  -0.140359
 0.0125492  -0.133579
 0.0141782  -0.126438
 0.0160115  -0.118859
 0.0180745  -0.110748
  0.020396  -0.101995
 0.0230086 -0.0924646
 0.0259485 -0.0819992
  0.029257 -0.0704178
 0.0329801 -0.0575345
 0.0371699 -0.0432084
 0.0418848 -0.0273141
 0.0471906 -0.00935092
 0.0528094 0.00999684
 0.0581152  0.0279458
 0.0628301  0.0438331
 0.0670199  0.0581447
  0.070743  0.0710059
 0.0740515  0.0825632
 0.0769914  0.0930045
  0.079604   0.102511
 0.0819255   0.111241
 0.0839885   0.119328
 0.0858218   0.126884
 0.0874508   0.134001
 0.0888984   0.140756
 0.0901848   0.147208
 0.0913279   0.153403
 0.0923437   0.159371
 0.0932464   0.165128
 0.0940485   0.170678
 0.0947613    0.17601
 0.0953947   0.181101
 0.0959575   0.185917
 0.0964577   0.190412
 0.0969021   0.194532
 0.0972971   0.198217
 0.0976481   0.201403
   0.09796   0.204025
 0.0982371   0.206019
 0.0984834   0.207325
 0.0987022   0.207881
 0.0988967   0.207618
 0.0990695   0.206439
 0.0992231    0.20417
 0.0993595   0.200463
 0.0994808   0.194577
 0.0995885   0.184907
 0.0996843   0.167987
 0.0997694   0.137702
  0.099845  0.0779459
 0.0999122 0.00867766
 0.0999719 7.44645e-05
