2.80937e-05  0.0050321
8.78022e-05  0.0963845
0.000154994   0.301931
0.000230608   0.425117
0.000315699   0.473239
0.000411455   0.490226
0.000519212   0.494629
0.000640475   0.493751
0.000776937   0.490453
0.000930502   0.485872
0.00110331   0.480455
0.00129779   0.474364
0.00151663   0.467649
0.00176291   0.460319
0.00204005   0.452374
0.00235193   0.443822
 0.0027029   0.434678
0.00309785    0.42497
0.00354231   0.414732
0.00404248      0.404
0.00460533   0.392813
0.00523873   0.381201
0.00595151    0.36919
0.00675364    0.35679
 0.0076563   0.344001
0.00867209   0.330803
 0.0098152   0.317161
 0.0111016    0.30302
 0.0125492   0.288308
 0.0141782   0.272934
 0.0160115   0.256791
 0.0180745   0.239762
  0.020396   0.221734
 0.0230086   0.202618
 0.0259485   0.182407
  0.029257   0.161279
 0.0329801   0.139808
 0.0371699   0.119303
 0.0418848   0.102157
 0.0471906  0.0917548
 0.0528094  0.0919835
 0.0581152   0.102779
 0.0628301   0.120187
 0.0670199   0.140828
  0.070743   0.162352
 0.0740515   0.183484
 0.0769914   0.203675
  0.079604   0.222758
 0.0819255   0.240746
 0.0839885    0.25773
 0.0858218   0.273826
 0.0874508    0.28915
 0.0888984    0.30381
 0.0901848   0.317896
 0.0913279   0.331482
 0.0923437   0.344622
 0.0932464   0.357351
 0.0940485   0.369689
 0.0947613   0.381636
 0.0953947   0.393182
 0.0959575   0.404303
 0.0964577   0.414968
 0.0969021   0.425139
 0.0972971    0.43478
 0.0976481   0.443857
   0.09796   0.452345
 0.0982371   0.460227
 0.0984834   0.467497
 0.0987022   0.474155
 0.0988967   0.480193
 0.0990695    0.48556
 0.0992231   0.490094
 0.0993595   0.493349
 0.0994808   0.494187
 0.0995885   0.489747
 0.0996843   0.472723
 0.0997694   0.424571
  0.099845   0.301405
 0.0999122  0.0961614
 0.0999719 0.00502028
