2.80937e-05  0.0709373
8.78022e-05   0.310458
0.000154994   0.549482
0.000230608    0.65201
0.000315699   0.687924
0.000411455   0.700162
0.000519212   0.703299
0.000640475   0.702674
0.000776937   0.700323
0.000930502   0.697045
0.00110331   0.693148
0.00129779   0.688741
0.00151663   0.683849
0.00176291   0.678468
0.00204005   0.672588
0.00235193   0.666199
 0.0027029   0.659301
0.00309785   0.651897
0.00354231   0.643997
0.00404248    0.63561
0.00460533   0.626748
0.00523873   0.617415
0.00595151    0.60761
0.00675364   0.597319
 0.0076563   0.586516
0.00867209   0.575155
 0.0098152    0.56317
 0.0111016   0.550473
 0.0125492   0.536944
 0.0141782   0.522431
 0.0160115   0.506745
 0.0180745   0.489655
  0.020396   0.470887
 0.0230086   0.450132
 0.0259485   0.427092
  0.029257   0.401596
 0.0329801   0.373909
 0.0371699   0.345403
 0.0418848    0.31962
 0.0471906   0.302911
 0.0528094   0.303288
 0.0581152   0.320592
 0.0628301    0.34668
 0.0670199   0.375271
  0.070743   0.402929
 0.0740515   0.428351
 0.0769914   0.451304
  0.079604   0.471972
 0.0819255   0.490659
 0.0839885   0.507671
 0.0858218   0.523283
 0.0874508   0.537727
 0.0888984    0.55119
 0.0901848   0.563823
 0.0913279   0.575745
 0.0923437   0.587045
 0.0932464   0.597788
 0.0940485    0.60802
 0.0947613   0.617767
 0.0953947   0.627043
 0.0959575   0.635849
 0.0964577    0.64418
 0.0969021   0.652027
 0.0972971   0.659378
 0.0976481   0.666226
   0.09796   0.672566
 0.0982371     0.6784
 0.0984834   0.683738
 0.0987022   0.688589
 0.0988967   0.692959
 0.0990695   0.696821
 0.0992231   0.700067
 0.0993595   0.702388
 0.0994808   0.702984
 0.0995885   0.699819
 0.0996843   0.687549
 0.0997694   0.651591
  0.099845   0.549004
 0.0999122   0.310099
 0.0999719  0.0708539
