/*--------------------------------*- C++ -*----------------------------------*\
  =========                 |
  \\      /  F ield         | OpenFOAM: The Open Source CFD Toolbox
   \\    /   O peration     | Website:  https://openfoam.org
    \\  /    A nd           | Version:  9
     \\/     M anipulation  |
\*---------------------------------------------------------------------------*/
FoamFile
{
    format      ascii;
    class       volScalarField;
    location    "32";
    object      ddt0(h);
}
// * * * * * * * * * * * * * * * * * * * * * * * * * * * * * * * * * * * * * //

dimensions      [0 1 -1 0 0 0 0];

internalField   nonuniform List<scalar> 
400
(
-2.33934e-07
-2.08603e-07
-2.03111e-07
-2.13638e-07
-2.01991e-07
-1.61205e-07
-1.29197e-07
-1.61541e-07
-3.28487e-07
-5.41849e-07
-7.00102e-07
-7.18418e-07
-5.44043e-07
-3.06481e-07
-1.38733e-08
2.6255e-07
4.02396e-07
4.13694e-07
3.0238e-07
1.08194e-07
-2.39439e-07
-2.19109e-07
-2.04129e-07
-1.86965e-07
-1.61756e-07
-1.23762e-07
-7.77858e-08
-1.46554e-07
-2.67897e-07
-4.82985e-07
-6.22537e-07
-6.44317e-07
-5.33243e-07
-2.85832e-07
-3.30541e-08
1.99477e-07
3.52407e-07
3.67794e-07
2.6565e-07
9.14202e-08
-2.39501e-07
-2.20276e-07
-1.82645e-07
-1.31391e-07
-9.84965e-08
-4.04222e-08
-3.6987e-08
-8.44464e-08
-2.1711e-07
-3.37026e-07
-5.22961e-07
-4.71302e-07
-4.46817e-07
-2.63379e-07
-1.72562e-08
1.60051e-07
3.07907e-07
3.28076e-07
2.35246e-07
9.08215e-08
-2.49045e-07
-2.07278e-07
-1.40739e-07
-8.3909e-08
-2.61477e-08
1.82916e-08
-8.77272e-09
-1.98871e-08
-1.79446e-07
-2.17516e-07
-3.00398e-07
-3.83991e-07
-2.49714e-07
-1.9763e-07
-2.69771e-08
1.31082e-07
2.13069e-07
2.25524e-07
1.75382e-07
6.16896e-08
-2.55803e-07
-1.81673e-07
-1.01562e-07
-4.57347e-08
1.8402e-08
3.07722e-08
6.19504e-08
-7.34765e-08
1.0989e-08
-2.18745e-07
-2.51907e-08
-2.13379e-07
-1.46504e-07
4.21061e-09
4.13217e-08
1.07045e-07
1.73285e-07
1.9056e-07
1.5642e-07
6.23737e-08
-2.42693e-07
-1.57346e-07
-8.28384e-08
-3.69547e-08
1.17536e-08
7.17061e-08
7.79569e-09
2.85589e-08
-5.28425e-09
-1.46341e-09
-6.68619e-08
1.93918e-07
-2.20244e-09
6.11395e-08
1.29603e-07
1.10174e-07
1.15466e-07
1.2232e-07
1.1267e-07
5.02375e-08
-2.10596e-07
-1.40774e-07
-9.58844e-08
-6.66815e-08
1.21783e-08
3.70635e-08
1.88271e-08
3.03055e-08
-6.25946e-08
2.67041e-07
-4.15981e-07
8.18515e-08
3.3431e-07
2.21561e-07
1.75722e-07
1.34532e-07
1.16979e-07
8.81185e-08
8.11995e-08
3.63004e-08
-1.72881e-07
-1.41703e-07
-1.26046e-07
-9.62879e-08
-2.70083e-08
2.31537e-08
-2.21923e-08
-5.81017e-09
1.07319e-07
-2.57657e-07
5.95216e-07
-2.61229e-07
2.79538e-07
3.54857e-07
2.74576e-07
1.83131e-07
5.19906e-08
4.6543e-08
3.78925e-08
2.11795e-08
-1.47714e-07
-1.50292e-07
-1.53359e-07
-1.1539e-07
-5.20555e-08
-4.19654e-08
-2.84341e-08
-6.94521e-08
-1.2821e-07
4.75086e-07
-1.27547e-07
9.96328e-07
5.72903e-07
4.22233e-07
3.14607e-07
1.98074e-07
-2.92686e-08
9.73769e-09
-8.72634e-09
5.1717e-10
-1.40089e-07
-1.59384e-07
-1.57165e-07
-1.17857e-07
-8.3037e-08
-6.98356e-08
-7.66054e-08
-1.08021e-07
3.84085e-08
-4.81064e-08
8.10156e-07
5.74478e-07
4.49727e-07
5.21946e-07
3.77669e-07
2.1326e-07
2.0094e-07
1.11186e-08
-2.37238e-08
-1.72551e-08
-1.54024e-07
-1.59285e-07
-1.45015e-07
-1.05328e-07
-8.41642e-08
-9.82576e-08
-7.174e-08
-1.10555e-07
5.65982e-08
5.72549e-08
9.84985e-07
2.97659e-07
6.22957e-07
5.30244e-07
3.82324e-07
2.39502e-07
1.11939e-07
2.32649e-08
-1.8893e-08
-1.3605e-08
-1.85307e-07
-1.58414e-07
-1.23683e-07
-8.70157e-08
-5.74093e-08
-6.89017e-08
-9.65033e-08
-2.15888e-08
-4.15246e-08
3.81202e-07
-5.55693e-07
1.09523e-06
4.85017e-07
4.17196e-07
3.50716e-07
2.45344e-07
1.05085e-07
3.01431e-08
3.72267e-09
-1.35141e-09
-2.19529e-07
-1.5782e-07
-1.06989e-07
-6.54848e-08
-2.69482e-08
-1.43029e-08
-3.5559e-08
-1.45639e-08
3.05095e-08
-2.78472e-08
9.52171e-07
-3.07582e-07
3.30749e-07
3.217e-07
2.62283e-07
1.63837e-07
1.01435e-07
4.81791e-08
2.77725e-08
1.10359e-08
-2.55014e-07
-1.65971e-07
-9.56058e-08
-6.00379e-08
2.0211e-09
2.0495e-08
2.98296e-08
-1.6921e-08
-5.64158e-08
7.72267e-08
-4.91085e-07
2.46043e-07
1.53912e-07
1.76995e-07
1.49584e-07
1.21482e-07
9.37225e-08
6.93841e-08
5.27084e-08
2.38611e-08
-2.85362e-07
-1.86573e-07
-9.64157e-08
-6.64256e-08
-6.59019e-09
5.30102e-08
2.3987e-08
2.1546e-08
-5.44038e-08
-1.2218e-07
-4.27483e-08
-8.07108e-08
-4.17066e-09
2.41827e-08
7.15659e-08
1.07127e-07
1.18779e-07
1.1101e-07
8.92637e-08
3.90355e-08
-3.06759e-07
-2.18803e-07
-1.1864e-07
-7.71521e-08
-4.82107e-08
2.1884e-08
9.39374e-09
-3.31003e-08
-8.76063e-08
-1.80831e-07
-1.91325e-07
-2.18188e-07
-1.90339e-07
-6.82108e-08
5.14467e-08
1.21264e-07
1.74062e-07
1.80833e-07
1.35862e-07
5.30286e-08
-3.18711e-07
-2.55048e-07
-1.63457e-07
-1.09337e-07
-9.35605e-08
-6.39979e-08
-2.97686e-08
-9.99253e-08
-1.58463e-07
-2.90842e-07
-3.51935e-07
-3.7717e-07
-2.93682e-07
-1.31126e-07
5.97397e-09
1.42453e-07
2.43688e-07
2.48965e-07
1.72835e-07
6.15039e-08
-3.17977e-07
-2.8413e-07
-2.32571e-07
-1.75517e-07
-1.45089e-07
-1.36423e-07
-1.1591e-07
-1.40274e-07
-2.6006e-07
-4.06548e-07
-5.21426e-07
-5.38236e-07
-4.15537e-07
-2.32234e-07
-1.11713e-08
1.90594e-07
3.10061e-07
3.08386e-07
2.07526e-07
6.99214e-08
-2.96443e-07
-2.94967e-07
-2.95591e-07
-2.63205e-07
-2.07906e-07
-1.68397e-07
-1.54209e-07
-1.8516e-07
-3.13174e-07
-4.9461e-07
-6.43157e-07
-6.52584e-07
-5.21622e-07
-3.00814e-07
-3.87908e-08
1.91009e-07
3.34062e-07
3.5364e-07
2.47738e-07
8.37821e-08
-2.81333e-07
-3.03146e-07
-3.41715e-07
-3.33134e-07
-2.69138e-07
-1.85915e-07
-1.56473e-07
-2.0911e-07
-3.39381e-07
-5.48554e-07
-7.1739e-07
-7.32584e-07
-5.89608e-07
-3.5272e-07
-8.35919e-08
1.65886e-07
3.36669e-07
3.84383e-07
2.82351e-07
9.633e-08
)
;

boundaryField
{
    sides
    {
        type            calculated;
        value           nonuniform List<scalar> 
40
(
-2.81333e-07
-3.03146e-07
-3.41715e-07
-3.33134e-07
-2.69138e-07
-1.85915e-07
-1.56473e-07
-2.0911e-07
-3.39381e-07
-5.48554e-07
-7.1739e-07
-7.32584e-07
-5.89608e-07
-3.5272e-07
-8.35919e-08
1.65886e-07
3.36669e-07
3.84383e-07
2.82351e-07
9.633e-08
-2.33934e-07
-2.08603e-07
-2.03111e-07
-2.13638e-07
-2.01991e-07
-1.61205e-07
-1.29197e-07
-1.61541e-07
-3.28487e-07
-5.41849e-07
-7.00102e-07
-7.18418e-07
-5.44043e-07
-3.06481e-07
-1.38733e-08
2.6255e-07
4.02396e-07
4.13694e-07
3.0238e-07
1.08194e-07
)
;
    }
    inlet
    {
        type            calculated;
        value           nonuniform List<scalar> 
20
(
-2.33934e-07
-2.39439e-07
-2.39501e-07
-2.49045e-07
-2.55803e-07
-2.42693e-07
-2.10596e-07
-1.72881e-07
-1.47714e-07
-1.40089e-07
-1.54024e-07
-1.85307e-07
-2.19529e-07
-2.55014e-07
-2.85362e-07
-3.06759e-07
-3.18711e-07
-3.17977e-07
-2.96443e-07
-2.81333e-07
)
;
    }
    outlet
    {
        type            calculated;
        value           uniform 0;
    }
    frontAndBack
    {
        type            empty;
    }
}


// ************************************************************************* //
