/*--------------------------------*- C++ -*----------------------------------*\
  =========                 |
  \\      /  F ield         | OpenFOAM: The Open Source CFD Toolbox
   \\    /   O peration     | Website:  https://openfoam.org
    \\  /    A nd           | Version:  9
     \\/     M anipulation  |
\*---------------------------------------------------------------------------*/
FoamFile
{
    format      ascii;
    class       surfaceScalarField;
    location    "32";
    object      ddtCorrDdt0(phi);
}
// * * * * * * * * * * * * * * * * * * * * * * * * * * * * * * * * * * * * * //

dimensions      [0 4 -2 0 0 0 0];

internalField   nonuniform List<scalar> 
760
(
-3.89633e-11
3.92747e-11
-1.44697e-10
1.16036e-10
-3.12577e-10
2.05775e-10
-5.01309e-10
2.20772e-10
-5.84389e-10
9.20504e-11
-5.18325e-10
-3.69552e-11
-4.47841e-10
-2.17262e-11
-3.88285e-10
1.6187e-10
-3.01067e-10
2.09855e-10
4.17848e-12
8.4296e-11
3.45364e-10
-1.4577e-10
6.06858e-10
-2.09331e-10
5.79308e-10
-1.01277e-10
3.78986e-10
-1.19186e-12
2.05372e-10
-3.84358e-11
2.08779e-10
-1.65529e-10
3.865e-10
-2.73137e-10
5.24833e-10
-1.53062e-10
4.67562e-10
9.36167e-11
5.98609e-11
-4.75807e-11
5.82977e-11
-1.38041e-10
2.01395e-10
-3.07138e-10
3.636e-10
-4.8983e-10
3.89637e-10
-5.56849e-10
1.62084e-10
-5.14508e-10
-1.00161e-10
-4.31053e-10
-4.6405e-11
-3.89942e-10
3.13207e-10
-2.87809e-10
4.35187e-10
-6.09366e-11
1.66381e-10
3.02025e-10
-3.5546e-10
5.30031e-10
-4.25296e-10
5.64499e-10
-1.48901e-10
4.17821e-10
1.6623e-11
2.54611e-10
-8.40175e-11
2.30407e-10
-2.93648e-10
3.62303e-10
-4.65959e-10
4.47936e-10
-2.5587e-10
4.57223e-10
1.12424e-10
1.05212e-10
-4.26345e-11
6.06323e-11
-1.26155e-10
2.40183e-10
-2.90984e-10
4.46209e-10
-4.46805e-10
4.91481e-10
-5.15315e-10
2.06267e-10
-5.1983e-10
-1.54894e-10
-4.22991e-10
-1.88877e-11
-4.11894e-10
3.96932e-10
-2.54524e-10
6.74441e-10
-9.7919e-11
2.22068e-10
2.75952e-10
-2.01869e-10
5.19946e-10
-4.64513e-10
4.90753e-10
-1.78967e-10
3.89477e-10
9.25891e-11
2.9435e-10
-8.06708e-11
2.82416e-10
-4.42755e-10
4.30751e-10
-6.82647e-10
5.59534e-10
-3.85774e-10
5.02557e-10
1.98388e-10
1.17829e-10
-3.75069e-11
2.75236e-11
-1.23583e-10
2.18308e-10
-2.72961e-10
4.68119e-10
-3.95327e-10
5.39473e-10
-4.87489e-10
2.0061e-10
-4.56602e-10
-1.57822e-10
-4.42856e-10
-4.87354e-11
-3.39385e-10
5.32328e-10
-3.2231e-10
7.7979e-10
9.08122e-12
3.6822e-10
8.89341e-11
-4.1921e-10
4.0266e-10
-3.66436e-10
4.81047e-10
-1.68275e-10
3.53562e-10
9.62829e-11
3.41158e-10
-3.08309e-11
3.81719e-10
-4.54402e-10
4.1076e-10
-7.62611e-10
4.54962e-10
-4.30941e-10
4.98785e-10
1.55615e-10
1.18301e-10
-4.56009e-11
-3.57667e-11
-1.32609e-10
1.48252e-10
-2.33129e-10
4.4132e-10
-3.36451e-10
5.27033e-10
-4.10772e-10
2.15498e-10
-4.50249e-10
-1.77161e-10
-4.22498e-10
-3.34943e-11
-3.07637e-10
6.07998e-10
-2.90631e-10
7.37883e-10
-1.36544e-10
5.60006e-10
2.13508e-10
-3.02854e-10
1.46132e-10
-4.76089e-10
4.13493e-10
6.49043e-11
4.13648e-10
1.91327e-10
3.35455e-10
-5.72065e-11
4.26994e-10
-4.51935e-10
5.45976e-10
-8.22281e-10
6.14115e-10
-4.72438e-10
5.68146e-10
1.94508e-10
1.31856e-10
-6.23821e-11
-1.03308e-10
-1.3273e-10
6.86984e-11
-1.95969e-10
3.76928e-10
-2.54e-10
4.94716e-10
-3.49607e-10
1.90416e-10
-4.22971e-10
-1.724e-10
-3.44954e-10
1.78091e-11
-4.41103e-10
4.78523e-10
-3.43067e-11
9.32985e-10
-2.81236e-10
1.40961e-10
8.84033e-11
2.41366e-10
1.04718e-10
-4.53752e-10
1.19519e-10
-7.19093e-11
4.17954e-10
2.87657e-10
5.36174e-10
4.57529e-11
5.30653e-10
-3.69446e-10
5.30639e-10
-7.22796e-10
5.41261e-10
-4.56986e-10
6.11761e-10
1.29658e-10
9.26302e-11
-7.6644e-11
-1.44986e-10
-1.29986e-10
1.05934e-11
-1.41993e-10
3.09019e-10
-1.81357e-10
4.0573e-10
-2.96041e-10
1.57423e-10
-3.50877e-10
-1.38499e-10
-4.09318e-10
-2.90942e-11
-2.56693e-10
5.07674e-10
-2.90899e-10
6.2992e-10
1.8702e-10
4.9087e-10
-6.50376e-10
1.30026e-09
1.26207e-10
2.46036e-10
1.63097e-10
1.07035e-10
2.73038e-10
2.66929e-10
5.31501e-10
6.67212e-11
6.05465e-10
-2.74124e-10
5.56175e-10
-2.38161e-09
5.7759e-10
-3.9992e-10
6.53907e-10
9.20173e-11
5.61059e-11
-8.38582e-11
-1.36051e-10
-1.10962e-10
-5.22594e-12
-1.03156e-10
2.35151e-10
-1.24745e-10
3.05573e-10
-2.32205e-10
9.24768e-11
-3.42036e-10
-9.3162e-11
-3.78524e-10
1.0875e-13
-3.20656e-10
2.80082e-10
-3.37332e-10
6.33546e-10
2.10961e-09
6.07309e-10
-2.02591e-09
-6.33533e-08
-6.45831e-10
-8.27568e-10
-3.15579e-12
2.16827e-10
3.25232e-10
3.16399e-10
5.19376e-10
1.48132e-10
6.27872e-10
-1.55565e-10
6.43765e-10
-3.56624e-10
6.33569e-10
-2.62423e-10
7.42946e-10
7.73501e-11
2.71359e-11
-8.10089e-11
-7.07679e-11
-9.80387e-11
2.17792e-11
-7.01749e-11
1.5698e-10
-9.37926e-11
1.79122e-10
-1.73375e-10
6.25732e-11
-3.00913e-10
-7.17062e-11
-3.80468e-10
-2.03745e-11
-2.38864e-10
2.22047e-10
4.6761e-11
1.72987e-10
-2.33714e-09
2.29719e-10
1.62237e-09
1.40623e-09
2.0883e-10
3.85869e-10
-1.11206e-10
6.18775e-11
2.27194e-10
1.18332e-10
4.96642e-10
1.44657e-10
6.54237e-10
-5.65827e-11
6.25177e-10
1.56912e-09
6.14952e-10
-9.74295e-11
7.5391e-10
1.19127e-11
1.1206e-10
-7.15447e-11
2.48031e-11
-8.87359e-11
6.82127e-11
-7.63441e-11
7.73854e-11
-7.27377e-11
5.50659e-11
-1.27492e-10
1.54073e-11
-3.06616e-10
-8.4037e-12
-3.5182e-10
-1.02059e-11
-2.80955e-10
-8.3439e-11
-3.82382e-11
4.38636e-11
-3.23462e-10
-2.87046e-10
2.65018e-10
1.75063e-10
-4.05346e-10
-1.69739e-10
-1.46239e-10
-1.00329e-10
2.24208e-10
5.36999e-11
5.64518e-10
7.65096e-11
7.3614e-10
9.13749e-11
7.21072e-10
7.43351e-11
6.24959e-10
6.05128e-11
7.2886e-10
-4.91504e-11
-1.01015e-10
-6.58715e-11
1.10104e-10
-9.51592e-11
1.03237e-10
-8.89861e-11
-2.64026e-12
-8.64801e-11
-6.40651e-11
-1.2543e-10
-3.75993e-13
-2.79882e-10
4.5399e-11
-3.96118e-10
-4.31975e-11
-1.73866e-10
-2.59197e-10
-3.03788e-10
-4.82693e-10
7.89887e-11
1.01779e-11
-4.80558e-11
-1.80611e-09
-3.52774e-10
-2.12454e-10
9.27429e-12
1.61422e-10
2.27042e-10
-1.66272e-11
5.79053e-10
5.60107e-11
7.51269e-10
2.3589e-10
6.80291e-10
3.14173e-10
6.21072e-10
1.76702e-10
7.2148e-10
-1.26445e-10
-1.68866e-10
-7.09119e-11
1.58667e-10
-1.1141e-10
1.01098e-10
-1.09519e-10
-9.65931e-11
-1.1226e-10
-1.71344e-10
-1.62554e-10
-2.28173e-11
-2.53365e-10
1.06802e-10
-3.24681e-10
-9.66548e-11
-3.0673e-10
-4.34528e-10
7.60228e-12
-5.61949e-10
-2.69215e-09
-5.98718e-10
1.75336e-09
6.01814e-08
1.76331e-10
6.68728e-10
-1.35856e-10
-5.27389e-11
2.40032e-10
-1.17095e-10
5.73538e-10
7.86994e-11
7.84342e-10
5.15185e-10
6.75066e-10
5.32747e-10
6.2081e-10
2.81884e-10
7.21885e-10
-2.11282e-10
-2.29255e-10
-7.08485e-11
1.57487e-10
-1.25578e-10
6.18837e-11
-1.41358e-10
-1.96513e-10
-1.55726e-10
-2.79633e-10
-2.11137e-10
-5.20209e-11
-3.29798e-10
1.69558e-10
-4.00233e-10
-4.08765e-11
-3.29328e-10
-6.05953e-10
-2.69866e-10
-8.50598e-10
2.52146e-09
-2.93583e-10
-2.29625e-09
-2.47259e-09
-5.45963e-10
7.79594e-11
-3.2628e-11
5.45838e-11
3.07845e-10
-1.42026e-10
5.75896e-10
7.22446e-11
6.35675e-10
3.99282e-10
6.80785e-10
6.30115e-10
6.23794e-10
3.94529e-10
6.84382e-10
-2.61348e-10
-2.64174e-10
-6.57497e-11
1.1949e-10
-1.45071e-10
-7.96167e-12
-1.72706e-10
-2.88993e-10
-2.00654e-10
-3.8621e-10
-2.74184e-10
-8.60489e-11
-3.62134e-10
1.95694e-10
-4.06248e-10
-2.04223e-11
-3.31753e-10
-6.17239e-10
-8.96965e-11
-8.75445e-10
-3.21609e-10
-5.61686e-10
-2.241e-10
1.64607e-10
-3.93787e-11
3.46722e-10
3.89485e-11
2.40935e-11
2.79506e-10
-1.45992e-10
4.94956e-10
6.63993e-11
5.97515e-10
4.93708e-10
5.87587e-10
7.80055e-10
6.03292e-10
4.52206e-10
6.51168e-10
-2.91773e-10
-2.8551e-10
-5.40667e-11
6.07591e-11
-1.54001e-10
-9.14469e-11
-2.19984e-10
-3.58359e-10
-2.46456e-10
-4.50666e-10
-3.41495e-10
-1.45548e-10
-3.97378e-10
2.21221e-10
-4.37153e-10
3.46771e-12
-3.61376e-10
-5.53795e-10
-2.26511e-10
-8.71378e-10
-1.21236e-10
-4.23897e-10
-3.3205e-11
3.22411e-10
3.58094e-12
4.257e-10
1.54145e-10
1.25847e-10
3.15991e-10
-1.37165e-10
4.79385e-10
1.19606e-10
5.32649e-10
5.77074e-10
5.5716e-10
8.57777e-10
6.01151e-10
4.90566e-10
6.06172e-10
-2.84618e-10
-2.83369e-10
-3.87839e-11
9.04888e-13
-1.50189e-10
-1.64811e-10
-2.67801e-10
-3.91794e-10
-3.18486e-10
-4.51739e-10
-3.82129e-10
-1.63001e-10
-4.5612e-10
1.91518e-10
-4.01293e-10
5.37163e-11
-4.02945e-10
-5.32607e-10
-2.50719e-10
-7.2023e-10
-1.17742e-10
-3.2451e-10
-7.64722e-13
3.21432e-10
1.58238e-10
4.98302e-10
2.86816e-10
1.65209e-10
3.86642e-10
-2.03438e-11
4.04899e-10
1.80337e-10
4.46003e-10
5.6647e-10
5.5061e-10
8.28957e-10
6.15789e-10
4.85862e-10
5.56699e-10
-2.59042e-10
-2.65427e-10
-2.91013e-11
-4.17544e-11
-1.38771e-10
-2.07059e-10
-2.9605e-10
-3.82558e-10
-3.93194e-10
-3.88666e-10
-4.32965e-10
-1.22972e-10
-4.63281e-10
1.58908e-10
-4.36746e-10
4.83037e-11
-3.81857e-10
-4.19704e-10
-2.96305e-10
-6.21196e-10
-1.18338e-10
-2.3395e-10
1.56081e-10
3.10854e-10
3.09079e-10
4.92976e-10
3.86494e-10
2.47991e-10
3.42423e-10
2.5129e-11
3.3123e-10
1.5837e-10
3.99056e-10
5.12259e-10
4.99199e-10
7.41454e-10
5.5972e-10
4.01995e-10
4.96046e-10
-2.60767e-10
-2.41571e-10
-2.93119e-11
-5.79374e-11
-1.25812e-10
-1.9477e-10
-2.99245e-10
-3.10767e-10
-4.59898e-10
-2.84324e-10
-4.98904e-10
-5.89234e-11
-4.59223e-10
1.32472e-10
-4.30436e-10
1.61711e-11
-3.99597e-10
-3.01947e-10
-3.45835e-10
-4.47524e-10
-1.19746e-10
-1.6261e-10
1.44042e-10
2.61063e-10
3.99997e-10
3.66599e-10
4.77332e-10
1.67065e-10
3.8341e-10
2.10554e-11
3.07143e-10
1.61853e-10
3.30759e-10
4.10857e-10
4.39626e-10
5.33837e-10
5.18941e-10
2.4671e-10
4.70285e-10
-2.39668e-10
-1.93595e-10
-4.64591e-11
-3.75838e-11
-1.2354e-10
-1.19763e-10
-2.81766e-10
-1.77762e-10
-4.7293e-10
-1.55273e-10
-5.51799e-10
-1.07583e-11
-5.02358e-10
9.75839e-11
-4.38534e-10
1.35417e-11
-4.2428e-10
-1.73114e-10
-3.40354e-10
-2.44765e-10
-9.46591e-11
-9.89787e-11
2.619e-10
1.08518e-10
5.02682e-10
1.967e-10
4.92435e-10
9.88892e-11
3.38762e-10
3.15741e-11
2.21003e-10
9.19871e-11
2.41129e-10
2.02359e-10
3.80983e-10
2.55306e-10
4.90018e-10
1.09239e-10
4.67999e-10
-1.34616e-10
-1.05532e-10
-6.36752e-11
-1.24506e-10
-2.75935e-10
-4.75282e-10
-5.79128e-10
-5.23703e-10
-4.24849e-10
-4.11847e-10
-3.61932e-10
-1.18695e-10
2.53547e-10
5.04756e-10
5.26805e-10
3.68502e-10
2.02594e-10
1.81442e-10
3.14421e-10
4.59453e-10
4.8795e-10
)
;

boundaryField
{
    sides
    {
        type            calculated;
        value           uniform 0;
    }
    inlet
    {
        type            calculated;
        value           uniform 0;
    }
    outlet
    {
        type            calculated;
        value           nonuniform List<scalar> 
20
(
4.54139e-10
4.38382e-10
4.90357e-10
4.76247e-10
5.40643e-10
6.57333e-10
7.0882e-10
8.18667e-10
8.32278e-10
8.22107e-10
7.98971e-10
7.82778e-10
7.21994e-10
6.75038e-10
5.89718e-10
4.95513e-10
4.29181e-10
4.19477e-10
4.42266e-10
4.83257e-10
)
;
    }
    frontAndBack
    {
        type            empty;
        value           nonuniform List<scalar> 0();
    }
}


// ************************************************************************* //
