/*--------------------------------*- C++ -*----------------------------------*\
  =========                 |
  \\      /  F ield         | OpenFOAM: The Open Source CFD Toolbox
   \\    /   O peration     | Website:  https://openfoam.org
    \\  /    A nd           | Version:  9
     \\/     M anipulation  |
\*---------------------------------------------------------------------------*/
FoamFile
{
    format      ascii;
    class       volVectorField;
    location    "32";
    object      ddtCorrDdt0(hU);
}
// * * * * * * * * * * * * * * * * * * * * * * * * * * * * * * * * * * * * * //

dimensions      [0 2 -2 0 0 0 0];

internalField   nonuniform List<vector> 
400
(
(-4.70481e-09 6.95679e-09 0)
(-2.63353e-08 1.56042e-08 0)
(-4.22858e-08 2.57073e-08 0)
(-7.81363e-08 2.6535e-08 0)
(-1.16443e-07 1.0554e-08 0)
(-1.15132e-07 -4.32746e-09 0)
(-8.54523e-08 3.86485e-10 0)
(-6.73228e-08 2.19526e-08 0)
(-6.98701e-08 2.83769e-08 0)
(-4.5945e-08 9.19406e-09 0)
(2.12653e-08 -1.99728e-08 0)
(9.47835e-08 -2.31428e-08 0)
(1.26884e-07 -1.4701e-08 0)
(9.54615e-08 -3.76888e-09 0)
(5.57694e-08 -5.86817e-09 0)
(4.00755e-08 -1.83214e-08 0)
(6.06808e-08 -2.28842e-08 0)
(1.10883e-07 -1.21918e-08 0)
(1.07301e-07 -2.68707e-09 0)
(7.17752e-08 9.91005e-10 0)
(-4.29064e-09 1.2898e-08 0)
(-2.79702e-08 3.49365e-08 0)
(-4.21537e-08 6.06377e-08 0)
(-7.5417e-08 6.58278e-08 0)
(-1.11209e-07 2.93791e-08 0)
(-1.12112e-07 -1.15513e-08 0)
(-8.31065e-08 -3.88129e-09 0)
(-6.8636e-08 5.09475e-08 0)
(-6.7882e-08 6.91122e-08 0)
(-5.08312e-08 2.56611e-08 0)
(1.43287e-08 -4.86589e-08 0)
(8.31054e-08 -6.43969e-08 0)
(1.11189e-07 -2.4768e-08 0)
(1.00574e-07 1.28912e-09 0)
(6.65267e-08 -1.36125e-08 0)
(4.75437e-08 -4.78722e-08 0)
(6.35062e-08 -7.94881e-08 0)
(9.38717e-08 -4.26876e-08 0)
(9.3931e-08 2.89571e-08 0)
(7.62787e-08 1.95263e-08 0)
(-2.35698e-09 1.16066e-08 0)
(-2.85878e-08 4.344e-08 0)
(-4.0822e-08 8.09666e-08 0)
(-6.72872e-08 8.97409e-08 0)
(-1.00635e-07 3.8936e-08 0)
(-1.06432e-07 -2.41101e-08 0)
(-8.69449e-08 -6.07663e-09 0)
(-7.24541e-08 7.23617e-08 0)
(-6.83183e-08 1.10917e-07 0)
(-4.32972e-08 3.91906e-08 0)
(3.93971e-09 -5.07767e-08 0)
(8.31117e-08 -8.81873e-08 0)
(1.03523e-07 -2.88793e-08 0)
(8.7015e-08 1.52265e-08 0)
(6.9805e-08 -1.58499e-08 0)
(5.33943e-08 -7.49593e-08 0)
(7.10321e-08 -1.156e-07 0)
(1.16842e-07 -6.64933e-08 0)
(1.1402e-07 2.5564e-08 0)
(8.15527e-08 2.12423e-08 0)
(-1.46987e-09 8.16568e-09 0)
(-2.9158e-08 4.59e-08 0)
(-3.91686e-08 9.31865e-08 0)
(-5.99601e-08 1.05286e-07 0)
(-8.99118e-08 4.09128e-08 0)
(-9.63171e-08 -3.26262e-08 0)
(-8.55332e-08 -6.42266e-09 0)
(-6.81684e-08 9.56805e-08 0)
(-7.16436e-08 1.50783e-07 0)
(-3.74828e-08 6.08566e-08 0)
(6.63156e-09 -6.46464e-08 0)
(4.44723e-08 -8.28245e-08 0)
(9.39551e-08 -3.133e-08 0)
(8.10061e-08 2.32183e-08 0)
(6.82699e-08 -8.11434e-09 0)
(7.55555e-08 -9.36862e-08 0)
(8.40911e-08 -1.53064e-07 0)
(8.86333e-08 -8.52298e-08 0)
(9.61622e-08 3.45316e-08 0)
(9.27831e-08 2.54186e-08 0)
(-1.18719e-09 -1.32671e-09 0)
(-3.20061e-08 3.65751e-08 0)
(-3.76684e-08 9.20264e-08 0)
(-4.85885e-08 1.08667e-07 0)
(-7.26833e-08 4.22314e-08 0)
(-8.91307e-08 -3.46609e-08 0)
(-8.22075e-08 -7.75438e-09 0)
(-7.50008e-08 1.16831e-07 0)
(-5.23653e-08 1.54293e-07 0)
(-6.02349e-08 9.18546e-08 0)
(1.73677e-08 -6.21688e-08 0)
(3.32071e-08 -8.24604e-08 0)
(5.18384e-08 -1.59003e-08 0)
(8.62069e-08 1.97348e-08 0)
(7.63796e-08 -1.0951e-08 0)
(7.31417e-08 -9.13529e-08 0)
(9.56333e-08 -1.65731e-07 0)
(1.26585e-07 -9.61992e-08 0)
(1.22361e-07 4.31263e-08 0)
(1.01647e-07 3.02836e-08 0)
(1.61996e-10 -1.43601e-08 0)
(-3.47684e-08 2.16334e-08 0)
(-3.61723e-08 8.32881e-08 0)
(-3.4828e-08 1.03695e-07 0)
(-5.73806e-08 4.04051e-08 0)
(-7.6312e-08 -3.69066e-08 0)
(-7.92919e-08 -2.39531e-09 0)
(-7.84847e-08 1.14847e-07 0)
(-5.11262e-08 1.7268e-07 0)
(-2.60016e-08 8.03838e-08 0)
(-2.64554e-08 -4.03172e-09 0)
(2.83206e-08 -9.01843e-08 0)
(1.26104e-08 1.22453e-08 0)
(5.35761e-08 5.71043e-08 0)
(1.01324e-07 2.32796e-09 0)
(1.09754e-07 -7.98653e-08 0)
(1.07229e-07 -1.45621e-07 0)
(1.01046e-07 -9.14213e-08 0)
(1.15974e-07 2.12351e-08 0)
(1.28282e-07 1.8412e-08 0)
(3.62855e-09 -2.52135e-08 0)
(-3.67252e-08 7.31926e-09 0)
(-3.39672e-08 6.97682e-08 0)
(-2.16841e-08 9.1393e-08 0)
(-4.01246e-08 3.35454e-08 0)
(-6.57503e-08 -3.34281e-08 0)
(-7.97442e-08 -2.04365e-09 0)
(-6.63418e-08 9.82674e-08 0)
(-6.5958e-08 1.58932e-07 0)
(1.46706e-08 5.67619e-08 0)
(-7.28529e-08 1.86573e-07 0)
(-4.49126e-08 -2.62473e-08 0)
(3.8947e-08 -8.45472e-11 0)
(3.77156e-08 5.93416e-08 0)
(7.9692e-08 1.65696e-08 0)
(1.18284e-07 -7.73326e-08 0)
(1.19459e-07 -1.55332e-07 0)
(1.05327e-07 -9.53024e-08 0)
(1.21261e-07 2.77376e-08 0)
(1.40528e-07 1.87579e-08 0)
(8.25065e-09 -2.8679e-08 0)
(-3.68469e-08 -1.20391e-09 0)
(-3.15206e-08 5.32583e-08 0)
(-1.05068e-08 7.12346e-08 0)
(-2.71278e-08 2.4609e-08 0)
(-5.59023e-08 -2.62887e-08 0)
(-7.87927e-08 -3.48405e-09 0)
(-7.79191e-08 8.38142e-08 0)
(-5.78948e-08 1.24744e-07 0)
(1.51121e-07 1.03532e-07 0)
(7.39988e-08 -2.39661e-07 0)
(-3.20743e-07 -4.52112e-08 0)
(-6.40598e-08 2.59868e-08 0)
(4.35818e-08 4.64977e-08 0)
(9.10795e-08 1.80158e-08 0)
(1.17749e-07 -5.59814e-08 0)
(1.23206e-07 -1.19839e-07 0)
(1.1995e-07 -7.49423e-08 0)
(1.35136e-07 1.25879e-08 0)
(1.62758e-07 8.87953e-09 0)
(1.24243e-08 -2.15063e-08 0)
(-3.65894e-08 3.54364e-10 0)
(-3.02246e-08 3.81081e-08 0)
(-1.42814e-09 4.74636e-08 0)
(-1.57477e-08 1.509e-08 0)
(-4.97204e-08 -1.70586e-08 0)
(-7.19268e-08 -2.38931e-09 0)
(-7.01628e-08 5.28903e-08 0)
(-3.5688e-08 8.3615e-08 0)
(-1.86e-07 7.933e-08 0)
(-1.23543e-07 -2.28783e-07 0)
(2.34432e-07 -2.49508e-08 0)
(-1.66816e-09 3.7934e-08 0)
(1.34766e-10 5.10415e-08 0)
(7.88374e-08 2.01528e-08 0)
(1.2557e-07 -2.02304e-08 0)
(1.23151e-07 -5.34351e-08 0)
(1.11065e-07 -3.21036e-08 0)
(1.31823e-07 7.42525e-09 0)
(1.70059e-07 -1.8756e-09 0)
(1.52156e-08 -5.10146e-09 0)
(-3.56901e-08 8.87755e-09 0)
(-3.12637e-08 2.39529e-08 0)
(1.01949e-09 2.34845e-08 0)
(-8.07038e-09 7.21235e-09 0)
(-4.37941e-08 -7.93414e-09 0)
(-7.46916e-08 -3.20154e-09 0)
(-7.35181e-08 9.02971e-09 0)
(-2.76574e-08 1.87062e-08 0)
(-5.17364e-08 -1.76152e-08 0)
(3.53899e-08 1.72003e-07 0)
(-2.15047e-08 1.87973e-08 0)
(-6.84941e-08 -7.61289e-09 0)
(1.43489e-08 2.31157e-08 0)
(8.1638e-08 1.38505e-08 0)
(1.31082e-07 5.24476e-09 0)
(1.53193e-07 -6.26852e-09 0)
(1.17625e-07 -2.053e-09 0)
(1.28463e-07 -2.51337e-09 0)
(1.67058e-07 -1.44599e-08 0)
(1.47445e-08 1.42681e-08 0)
(-3.61023e-08 1.70772e-08 0)
(-3.27408e-08 7.25813e-09 0)
(-7.31568e-10 -5.38397e-10 0)
(-8.70504e-09 2.05616e-09 0)
(-4.27784e-08 3.81414e-09 0)
(-7.54679e-08 -5.87397e-09 0)
(-6.88997e-08 -2.63241e-08 0)
(-4.522e-08 -3.30197e-08 0)
(-3.78712e-08 -2.08346e-08 0)
(5.94651e-08 -1.89235e-07 0)
(-7.20349e-08 -3.43306e-08 0)
(-3.05943e-08 4.92922e-09 0)
(2.50656e-08 -4.9092e-09 0)
(8.17305e-08 1.29774e-08 0)
(1.3851e-07 2.94406e-08 0)
(1.45791e-07 3.42749e-08 0)
(1.13996e-07 2.09798e-08 0)
(1.27621e-07 -2.19754e-08 0)
(1.64426e-07 -2.85806e-08 0)
(1.11086e-08 2.79558e-08 0)
(-3.82383e-08 2.14748e-08 0)
(-3.40806e-08 -9.1186e-09 0)
(-5.51557e-09 -2.28273e-08 0)
(-1.68581e-08 -2.19105e-09 0)
(-4.42466e-08 1.68435e-08 0)
(-6.56889e-08 -1.32258e-08 0)
(-6.78328e-08 -7.40473e-08 0)
(-4.08795e-08 -1.13299e-07 0)
(-2.22383e-07 -6.80451e-08 0)
(-1.66676e-07 2.40915e-07 0)
(2.61833e-07 4.26059e-08 0)
(-1.77064e-08 -4.58322e-09 0)
(3.41253e-09 -2.43581e-08 0)
(8.91324e-08 1.04429e-08 0)
(1.41866e-07 5.73436e-08 0)
(1.47679e-07 7.23216e-08 0)
(1.16259e-07 4.69893e-08 0)
(1.28136e-07 -3.10907e-08 0)
(1.6065e-07 -3.96806e-08 0)
(7.22722e-09 3.2036e-08 0)
(-3.8808e-08 1.79086e-08 0)
(-3.61508e-08 -2.85136e-08 0)
(-1.47956e-08 -4.54123e-08 0)
(-2.7637e-08 -6.95332e-09 0)
(-5.43982e-08 3.03337e-08 0)
(-7.90896e-08 -1.4417e-08 0)
(-7.96198e-08 -1.14073e-07 0)
(-6.13367e-08 -1.52107e-07 0)
(2.0251e-07 -9.40817e-08 0)
(1.00952e-07 2.37636e-07 0)
(-3.4903e-07 7.04375e-08 0)
(-4.93684e-08 -3.57029e-10 0)
(3.26752e-08 -1.9652e-08 0)
(9.25052e-08 1.43334e-08 0)
(1.24524e-07 8.51673e-08 0)
(1.34009e-07 1.24084e-07 0)
(1.21461e-07 6.95927e-08 0)
(1.2622e-07 -4.8909e-08 0)
(1.47277e-07 -5.08107e-08 0)
(3.51188e-09 2.8125e-08 0)
(-3.94703e-08 6.12692e-09 0)
(-3.82095e-08 -4.9712e-08 0)
(-2.41407e-08 -6.81102e-08 0)
(-3.98262e-08 -1.32273e-08 0)
(-6.65192e-08 3.87659e-08 0)
(-7.8362e-08 -5.60535e-09 0)
(-7.53144e-08 -1.21156e-07 0)
(-4.73219e-08 -1.71283e-07 0)
(-2.25637e-08 -8.30774e-08 0)
(-8.61719e-08 -2.11235e-07 0)
(-3.94067e-09 4.39396e-08 0)
(-5.05797e-09 1.21386e-08 0)
(3.025e-08 -3.20455e-08 0)
(7.89692e-08 1.01694e-08 0)
(1.14875e-07 9.68662e-08 0)
(1.20146e-07 1.54745e-07 0)
(1.10203e-07 8.53543e-08 0)
(1.25873e-07 -5.78918e-08 0)
(1.35933e-07 -5.65518e-08 0)
(6.84661e-10 1.84249e-08 0)
(-3.85896e-08 -9.84981e-09 0)
(-4.03042e-08 -6.59202e-08 0)
(-3.53439e-08 -8.508e-08 0)
(-5.50866e-08 -2.34984e-08 0)
(-7.42529e-08 4.31176e-08 0)
(-8.41745e-08 -1.3473e-09 0)
(-7.80274e-08 -1.22805e-07 0)
(-6.14297e-08 -1.83541e-07 0)
(-3.95281e-08 -1.03221e-07 0)
(-9.52126e-09 4.24788e-08 0)
(-4.80345e-09 7.28249e-08 0)
(1.22761e-08 4.15035e-11 0)
(4.45646e-08 -3.63807e-08 0)
(8.34817e-08 1.72664e-08 0)
(1.05459e-07 1.0687e-07 0)
(1.09096e-07 1.63301e-07 0)
(1.13285e-07 9.81938e-08 0)
(1.2353e-07 -5.41128e-08 0)
(1.17623e-07 -5.69976e-08 0)
(-9.50184e-10 6.64139e-09 0)
(-3.60506e-08 -2.57978e-08 0)
(-4.23581e-08 -7.65721e-08 0)
(-4.77342e-08 -9.20525e-08 0)
(-6.9932e-08 -3.06327e-08 0)
(-8.53076e-08 4.24027e-08 0)
(-8.30694e-08 4.20099e-09 0)
(-7.63891e-08 -1.13659e-07 0)
(-6.5491e-08 -1.62565e-07 0)
(-4.11243e-08 -7.49392e-08 0)
(-1.484e-08 5.73929e-08 0)
(1.03645e-08 9.79091e-08 0)
(4.43673e-08 3.53329e-08 0)
(7.17704e-08 -9.71889e-09 0)
(7.95227e-08 2.90304e-08 0)
(8.35947e-08 1.13104e-07 0)
(1.02417e-07 1.73542e-07 0)
(1.21921e-07 1.01797e-07 0)
(1.20648e-07 -5.67555e-08 0)
(9.76715e-08 -5.64802e-08 0)
(-1.80363e-09 -3.5502e-09 0)
(-3.32215e-08 -3.71213e-08 0)
(-4.31251e-08 -7.81506e-08 0)
(-5.83651e-08 -8.57707e-08 0)
(-8.39444e-08 -2.96386e-08 0)
(-9.41844e-08 3.5107e-08 0)
(-8.33066e-08 1.01733e-08 0)
(-7.44103e-08 -9.62161e-08 0)
(-6.72702e-08 -1.37333e-07 0)
(-5.39348e-08 -5.82909e-08 0)
(-1.28971e-09 6.52385e-08 0)
(4.93161e-08 1.01194e-07 0)
(6.98308e-08 4.0081e-08 0)
(7.11047e-08 -4.217e-09 0)
(6.63548e-08 3.08709e-08 0)
(7.52325e-08 1.11345e-07 0)
(9.29764e-08 1.63283e-07 0)
(1.12832e-07 8.98812e-08 0)
(1.10899e-07 -5.6332e-08 0)
(8.14998e-08 -5.25308e-08 0)
(-2.43035e-09 -1.01021e-08 0)
(-3.00181e-08 -4.23897e-08 0)
(-4.22166e-08 -7.32726e-08 0)
(-6.74108e-08 -7.12275e-08 0)
(-9.85034e-08 -1.9297e-08 0)
(-1.01276e-07 3.02652e-08 0)
(-8.07409e-08 5.17064e-09 0)
(-7.02074e-08 -7.80448e-08 0)
(-7.58347e-08 -1.13407e-07 0)
(-5.74999e-08 -4.29375e-08 0)
(-7.83816e-09 5.99419e-08 0)
(5.0245e-08 8.48534e-08 0)
(9.20903e-08 3.69128e-08 0)
(8.92315e-08 2.73683e-09 0)
(6.81572e-08 3.37196e-08 0)
(6.22047e-08 9.27222e-08 0)
(7.92371e-08 1.26182e-07 0)
(1.08815e-07 6.61967e-08 0)
(1.06419e-07 -4.76032e-08 0)
(7.31481e-08 -4.28702e-08 0)
(-2.486e-09 -9.02255e-09 0)
(-2.99217e-08 -3.16582e-08 0)
(-4.10035e-08 -5.04222e-08 0)
(-6.93334e-08 -4.64685e-08 0)
(-1.05914e-07 -8.81364e-09 0)
(-1.09664e-07 2.32176e-08 0)
(-8.52707e-08 3.82963e-09 0)
(-7.17324e-08 -4.85411e-08 0)
(-7.66784e-08 -7.00157e-08 0)
(-5.92929e-08 -2.63084e-08 0)
(4.31874e-09 3.64523e-08 0)
(7.85705e-08 6.09632e-08 0)
(1.04378e-07 3.1618e-08 0)
(8.17754e-08 6.81612e-09 0)
(5.33614e-08 2.426e-08 0)
(4.50798e-08 6.1115e-08 0)
(6.56382e-08 8.15881e-08 0)
(1.04932e-07 3.88503e-08 0)
(1.03773e-07 -3.68091e-08 0)
(7.12208e-08 -3.0301e-08 0)
(-2.59148e-09 -2.86038e-09 0)
(-3.07092e-08 -9.78867e-09 0)
(-4.07166e-08 -1.50926e-08 0)
(-7.07067e-08 -1.47556e-08 0)
(-1.10921e-07 -3.10911e-09 0)
(-1.14073e-07 8.15514e-09 0)
(-8.3638e-08 3.71056e-09 0)
(-6.82026e-08 -1.11754e-08 0)
(-7.71709e-08 -1.88582e-08 0)
(-6.39248e-08 -7.89441e-09 0)
(-5.14268e-10 1.24407e-08 0)
(7.46981e-08 1.62992e-08 0)
(1.08471e-07 3.19548e-09 0)
(9.10052e-08 -1.78267e-09 0)
(5.49607e-08 7.66411e-09 0)
(3.63522e-08 2.13064e-08 0)
(5.217e-08 2.82394e-08 0)
(9.55782e-08 1.2021e-08 0)
(1.04441e-07 -1.48009e-08 0)
(7.60849e-08 -1.09778e-08 0)
)
;

boundaryField
{
    sides
    {
        type            calculated;
        value           nonuniform List<vector> 
40
(
(-2.59148e-09 0 0)
(-3.07092e-08 0 0)
(-4.07166e-08 0 0)
(-7.07067e-08 0 0)
(-1.10921e-07 0 0)
(-1.14073e-07 0 0)
(-8.3638e-08 0 0)
(-6.82026e-08 0 0)
(-7.71709e-08 0 0)
(-6.39248e-08 0 0)
(-5.14268e-10 0 0)
(7.46981e-08 0 0)
(1.08471e-07 0 0)
(9.10052e-08 0 0)
(5.49607e-08 0 0)
(3.63522e-08 0 0)
(5.217e-08 0 0)
(9.55782e-08 0 0)
(1.04441e-07 0 0)
(7.60849e-08 0 0)
(-4.70481e-09 0 0)
(-2.63353e-08 0 0)
(-4.22858e-08 0 0)
(-7.81363e-08 0 0)
(-1.16443e-07 0 0)
(-1.15132e-07 0 0)
(-8.54523e-08 0 0)
(-6.73228e-08 0 0)
(-6.98701e-08 0 0)
(-4.5945e-08 0 0)
(2.12653e-08 0 0)
(9.47835e-08 0 0)
(1.26884e-07 0 0)
(9.54615e-08 0 0)
(5.57694e-08 0 0)
(4.00755e-08 0 0)
(6.06808e-08 0 0)
(1.10883e-07 0 0)
(1.07301e-07 0 0)
(7.17752e-08 0 0)
)
;
    }
    inlet
    {
        type            calculated;
        value           uniform (0 0 0);
    }
    outlet
    {
        type            calculated;
        value           nonuniform List<vector> 
20
(
(7.17752e-08 9.91005e-10 0)
(7.62787e-08 1.95263e-08 0)
(8.15527e-08 2.12423e-08 0)
(9.27831e-08 2.54186e-08 0)
(1.01647e-07 3.02836e-08 0)
(1.28282e-07 1.8412e-08 0)
(1.40528e-07 1.87579e-08 0)
(1.62758e-07 8.87953e-09 0)
(1.70059e-07 -1.8756e-09 0)
(1.67058e-07 -1.44599e-08 0)
(1.64426e-07 -2.85806e-08 0)
(1.6065e-07 -3.96806e-08 0)
(1.47277e-07 -5.08107e-08 0)
(1.35933e-07 -5.65518e-08 0)
(1.17623e-07 -5.69976e-08 0)
(9.76715e-08 -5.64802e-08 0)
(8.14998e-08 -5.25308e-08 0)
(7.31481e-08 -4.28702e-08 0)
(7.12208e-08 -3.0301e-08 0)
(7.60849e-08 -1.09778e-08 0)
)
;
    }
    frontAndBack
    {
        type            empty;
    }
}


// ************************************************************************* //
