/*--------------------------------*- C++ -*----------------------------------*\
  =========                 |
  \\      /  F ield         | OpenFOAM: The Open Source CFD Toolbox
   \\    /   O peration     | Website:  https://openfoam.org
    \\  /    A nd           | Version:  9
     \\/     M anipulation  |
\*---------------------------------------------------------------------------*/
FoamFile
{
    format      ascii;
    class       volScalarField;
    location    "32";
    object      h;
}
// * * * * * * * * * * * * * * * * * * * * * * * * * * * * * * * * * * * * * //

dimensions      [0 1 0 0 0 0 0];

internalField   nonuniform List<scalar> 
400
(
0.0100006
0.0100006
0.0100005
0.0100003
0.0100002
0.01
0.00999986
0.00999967
0.00999947
0.00999927
0.00999911
0.00999903
0.00999906
0.00999921
0.00999945
0.00999973
0.00999996
0.0100001
0.0100001
0.0100001
0.0100006
0.0100005
0.0100004
0.0100003
0.0100001
0.00999993
0.00999973
0.00999951
0.00999928
0.00999905
0.00999888
0.00999883
0.0099989
0.00999909
0.00999937
0.00999965
0.00999988
0.01
0.01
0.01
0.0100005
0.0100005
0.0100004
0.0100003
0.0100001
0.0099999
0.00999966
0.0099994
0.00999912
0.00999887
0.00999868
0.00999862
0.00999873
0.00999901
0.00999938
0.00999975
0.01
0.0100002
0.0100002
0.0100001
0.0100006
0.0100005
0.0100004
0.0100003
0.0100001
0.00999988
0.00999958
0.00999923
0.00999884
0.00999847
0.00999822
0.0099982
0.00999845
0.00999892
0.00999947
0.00999989
0.0100001
0.0100001
0.01
0.00999999
0.0100006
0.0100006
0.0100005
0.0100004
0.0100002
0.00999992
0.00999954
0.00999905
0.0099985
0.00999793
0.00999754
0.00999752
0.00999798
0.00999884
0.00999975
0.0100004
0.0100005
0.0100004
0.0100002
0.01
0.0100008
0.0100007
0.0100006
0.0100005
0.0100004
0.0100001
0.00999958
0.00999889
0.00999805
0.00999724
0.00999666
0.00999663
0.00999739
0.00999873
0.01
0.0100007
0.0100007
0.0100003
0.01
0.00999995
0.0100009
0.0100009
0.0100009
0.0100008
0.0100007
0.0100004
0.00999987
0.0099989
0.00999741
0.00999567
0.00999445
0.00999486
0.00999705
0.00999983
0.0100016
0.0100018
0.010001
0.0100002
0.00999985
0.00999991
0.010001
0.0100011
0.0100011
0.0100012
0.0100012
0.010001
0.0100005
0.00999948
0.00999762
0.00999453
0.00999089
0.00999053
0.00999485
0.0100006
0.0100037
0.0100034
0.0100015
0.0100001
0.00999962
0.00999987
0.0100011
0.0100012
0.0100014
0.0100016
0.0100019
0.0100021
0.0100015
0.00999965
0.00999568
0.00998998
0.00998697
0.00999011
0.00999843
0.0100041
0.0100048
0.0100028
0.0100006
0.00999956
0.00999957
0.00999992
0.0100012
0.0100013
0.0100015
0.010002
0.0100027
0.0100042
0.010006
0.010008
0.0100051
0.00897867
0.0089527
0.00997618
0.0100092
0.0100182
0.0100109
0.0100027
0.00999916
0.00999912
0.00999991
0.0100002
0.0100011
0.0100012
0.0100014
0.0100019
0.0100027
0.0100041
0.0100059
0.0100079
0.010005
0.00897865
0.0089527
0.00997614
0.0100092
0.0100182
0.0100108
0.0100027
0.00999915
0.00999911
0.00999988
0.0100002
0.0100009
0.010001
0.0100012
0.0100014
0.0100017
0.0100019
0.0100013
0.00999945
0.0099955
0.0099898
0.00998678
0.00998995
0.00999831
0.010004
0.0100047
0.0100026
0.0100005
0.00999953
0.00999958
0.00999993
0.0100007
0.0100007
0.0100008
0.0100008
0.0100008
0.0100007
0.0100002
0.00999918
0.00999733
0.00999428
0.00999065
0.00999029
0.00999459
0.0100003
0.0100034
0.0100032
0.0100014
0.00999997
0.00999959
0.00999986
0.0100004
0.0100004
0.0100004
0.0100003
0.0100002
0.00999995
0.00999942
0.00999846
0.00999697
0.00999523
0.00999402
0.00999447
0.00999668
0.00999952
0.0100014
0.0100016
0.0100009
0.0100001
0.00999974
0.00999987
0.0100001
0.0100001
0.01
0.00999993
0.00999976
0.00999947
0.00999899
0.00999832
0.0099975
0.00999671
0.00999616
0.00999615
0.00999696
0.00999834
0.00999966
0.0100004
0.0100004
0.0100001
0.00999991
0.00999992
0.00999989
0.00999983
0.00999974
0.00999962
0.00999944
0.00999918
0.00999882
0.00999835
0.00999782
0.00999726
0.00999687
0.0099969
0.0099974
0.0099983
0.00999927
0.00999994
0.0100002
0.0100001
0.00999999
0.00999996
0.00999968
0.00999961
0.00999951
0.00999939
0.00999922
0.009999
0.00999872
0.00999838
0.00999802
0.00999768
0.00999748
0.00999749
0.00999778
0.00999832
0.00999894
0.00999946
0.00999977
0.00999988
0.00999991
0.00999995
0.0099995
0.00999943
0.00999933
0.00999921
0.00999906
0.00999886
0.00999864
0.00999839
0.00999813
0.00999789
0.00999772
0.00999772
0.00999791
0.00999826
0.00999871
0.00999915
0.0099995
0.00999972
0.00999986
0.00999994
0.00999937
0.00999931
0.0099992
0.00999909
0.00999895
0.00999878
0.0099986
0.00999841
0.00999822
0.00999804
0.00999791
0.00999788
0.00999799
0.00999825
0.00999862
0.00999901
0.00999937
0.00999964
0.00999983
0.00999994
0.00999925
0.00999918
0.00999907
0.00999894
0.00999881
0.00999865
0.00999849
0.00999832
0.00999815
0.00999798
0.00999786
0.00999784
0.00999794
0.00999816
0.00999847
0.00999883
0.00999918
0.00999948
0.00999972
0.0099999
)
;

boundaryField
{
    sides
    {
        type            zeroGradient;
    }
    inlet
    {
        type            zeroGradient;
    }
    outlet
    {
        type            fixedValue;
        value           uniform 0.01;
    }
    frontAndBack
    {
        type            empty;
    }
}


// ************************************************************************* //
