/*--------------------------------*- C++ -*----------------------------------*\
  =========                 |
  \\      /  F ield         | OpenFOAM: The Open Source CFD Toolbox
   \\    /   O peration     | Website:  https://openfoam.org
    \\  /    A nd           | Version:  9
     \\/     M anipulation  |
\*---------------------------------------------------------------------------*/
FoamFile
{
    format      ascii;
    class       volScalarField;
    location    "32";
    object      h_0;
}
// * * * * * * * * * * * * * * * * * * * * * * * * * * * * * * * * * * * * * //

dimensions      [0 1 0 0 0 0 0];

internalField   nonuniform List<scalar> 
400
(
0.0100006
0.0100006
0.0100005
0.0100004
0.0100002
0.0100001
0.00999987
0.00999969
0.00999951
0.00999933
0.00999918
0.0099991
0.00999911
0.00999924
0.00999945
0.0099997
0.00999992
0.0100001
0.0100001
0.0100001
0.0100006
0.0100005
0.0100004
0.0100003
0.0100001
0.00999994
0.00999974
0.00999953
0.00999931
0.00999911
0.00999895
0.00999889
0.00999895
0.00999912
0.00999937
0.00999963
0.00999985
0.00999997
0.01
0.01
0.0100006
0.0100005
0.0100004
0.0100003
0.0100001
0.0099999
0.00999967
0.00999941
0.00999915
0.00999891
0.00999873
0.00999867
0.00999877
0.00999903
0.00999938
0.00999974
0.01
0.0100001
0.0100001
0.0100001
0.0100006
0.0100005
0.0100004
0.0100003
0.0100001
0.00999988
0.00999958
0.00999924
0.00999886
0.0099985
0.00999825
0.00999824
0.00999848
0.00999894
0.00999947
0.00999988
0.0100001
0.0100001
0.01
0.00999999
0.0100007
0.0100006
0.0100005
0.0100004
0.0100002
0.00999991
0.00999954
0.00999906
0.00999851
0.00999795
0.00999755
0.00999753
0.009998
0.00999884
0.00999975
0.0100004
0.0100005
0.0100004
0.0100002
0.01
0.0100008
0.0100007
0.0100007
0.0100005
0.0100004
0.0100001
0.00999958
0.00999888
0.00999806
0.00999723
0.00999667
0.00999662
0.00999738
0.00999873
0.01
0.0100007
0.0100007
0.0100003
0.01
0.00999995
0.0100009
0.0100009
0.0100009
0.0100008
0.0100007
0.0100004
0.00999987
0.0099989
0.00999741
0.00999567
0.00999444
0.00999487
0.00999703
0.00999981
0.0100016
0.0100018
0.010001
0.0100002
0.00999984
0.00999991
0.0100011
0.0100011
0.0100011
0.0100012
0.0100012
0.010001
0.0100005
0.00999947
0.00999761
0.00999457
0.00999055
0.00999052
0.00999483
0.0100006
0.0100037
0.0100034
0.0100015
0.0100001
0.00999962
0.00999987
0.0100012
0.0100012
0.0100014
0.0100016
0.0100019
0.0100021
0.0100015
0.00999966
0.00999568
0.00998992
0.00998726
0.00999005
0.00999837
0.010004
0.0100048
0.0100028
0.0100006
0.00999956
0.00999957
0.00999992
0.0100012
0.0100013
0.0100015
0.010002
0.0100028
0.0100042
0.010006
0.010008
0.0100051
0.00897865
0.00895266
0.00997611
0.0100092
0.0100182
0.0100108
0.0100027
0.00999916
0.00999912
0.00999991
0.0100002
0.0100011
0.0100012
0.0100014
0.0100019
0.0100027
0.0100041
0.0100059
0.0100079
0.010005
0.00897864
0.00895263
0.00997609
0.0100091
0.0100181
0.0100108
0.0100026
0.00999915
0.0099991
0.00999988
0.0100002
0.010001
0.010001
0.0100012
0.0100014
0.0100017
0.0100019
0.0100013
0.00999945
0.0099955
0.00998974
0.00998708
0.00998989
0.00999826
0.0100039
0.0100047
0.0100026
0.0100005
0.00999953
0.00999958
0.00999993
0.0100007
0.0100007
0.0100008
0.0100008
0.0100008
0.0100007
0.0100002
0.00999918
0.00999733
0.0099943
0.00999029
0.00999028
0.00999457
0.0100003
0.0100034
0.0100032
0.0100014
0.00999996
0.00999959
0.00999986
0.0100004
0.0100004
0.0100004
0.0100003
0.0100002
0.00999995
0.00999942
0.00999846
0.00999698
0.00999522
0.00999405
0.00999446
0.00999667
0.00999951
0.0100014
0.0100016
0.0100009
0.0100001
0.00999974
0.00999987
0.0100002
0.0100001
0.01
0.00999993
0.00999976
0.00999946
0.00999899
0.00999832
0.00999751
0.00999672
0.00999617
0.00999616
0.00999696
0.00999834
0.00999966
0.0100004
0.0100004
0.0100001
0.0099999
0.00999991
0.00999992
0.00999985
0.00999975
0.00999963
0.00999945
0.00999918
0.00999882
0.00999836
0.00999783
0.00999728
0.0099969
0.00999692
0.00999742
0.00999831
0.00999927
0.00999993
0.0100002
0.0100001
0.00999998
0.00999995
0.00999971
0.00999963
0.00999952
0.0099994
0.00999923
0.009999
0.00999872
0.00999839
0.00999804
0.00999771
0.00999752
0.00999753
0.00999782
0.00999833
0.00999894
0.00999945
0.00999975
0.00999986
0.00999989
0.00999994
0.00999954
0.00999946
0.00999935
0.00999923
0.00999907
0.00999888
0.00999865
0.00999841
0.00999816
0.00999793
0.00999778
0.00999778
0.00999795
0.00999828
0.00999871
0.00999913
0.00999947
0.00999969
0.00999984
0.00999994
0.0099994
0.00999933
0.00999923
0.00999911
0.00999897
0.0099988
0.00999862
0.00999844
0.00999826
0.00999809
0.00999797
0.00999794
0.00999804
0.00999828
0.00999862
0.00999899
0.00999934
0.00999961
0.00999981
0.00999994
0.00999928
0.00999921
0.0099991
0.00999898
0.00999883
0.00999867
0.00999851
0.00999834
0.00999819
0.00999804
0.00999794
0.00999791
0.009998
0.00999819
0.00999848
0.00999881
0.00999915
0.00999945
0.0099997
0.00999989
)
;

boundaryField
{
    sides
    {
        type            zeroGradient;
    }
    inlet
    {
        type            zeroGradient;
    }
    outlet
    {
        type            fixedValue;
        value           uniform 0.01;
    }
    frontAndBack
    {
        type            empty;
    }
}


// ************************************************************************* //
