/*--------------------------------*- C++ -*----------------------------------*\
  =========                 |
  \\      /  F ield         | OpenFOAM: The Open Source CFD Toolbox
   \\    /   O peration     | Website:  https://openfoam.org
    \\  /    A nd           | Version:  9
     \\/     M anipulation  |
\*---------------------------------------------------------------------------*/
FoamFile
{
    format      ascii;
    class       volScalarField;
    location    "9";
    object      ddt0(h);
}
// * * * * * * * * * * * * * * * * * * * * * * * * * * * * * * * * * * * * * //

dimensions      [0 1 -1 0 0 0 0];

internalField   nonuniform List<scalar> 
400
(
-7.91148e-06
-1.39374e-06
9.01193e-06
1.54709e-05
3.8457e-06
-1.34329e-05
-2.07487e-05
-1.53652e-05
-3.21531e-06
2.63819e-06
5.36539e-06
4.87062e-06
-3.58413e-06
-1.10888e-05
-1.08856e-05
-2.83312e-06
1.51968e-06
5.04346e-06
7.2052e-06
3.50282e-06
-9.88793e-06
-3.7757e-06
8.15644e-06
1.44943e-05
4.13653e-06
-1.08637e-05
-1.81088e-05
-1.22019e-05
-1.73566e-06
3.0647e-06
3.89819e-06
3.02384e-06
-3.02934e-06
-8.57382e-06
-7.91691e-06
-3.39407e-06
2.91837e-07
3.40131e-06
6.9988e-06
3.38413e-06
-1.45704e-05
-6.73204e-06
5.48508e-06
1.22247e-05
4.86233e-06
-8.95519e-06
-1.4994e-05
-7.30695e-06
1.82825e-06
4.03297e-06
1.74959e-06
-1.52582e-07
-2.70318e-06
-5.48349e-06
-3.64374e-06
-1.30446e-06
-9.15114e-07
1.76853e-06
4.83002e-06
2.97518e-06
-1.79814e-05
-1.04012e-05
2.48061e-06
9.5112e-06
4.88324e-06
-5.01071e-06
-7.84345e-06
-1.38684e-06
4.7718e-06
4.29279e-06
-7.36736e-07
-2.93863e-06
-1.34448e-06
-5.87277e-07
-1.33091e-06
-2.46204e-06
-2.95967e-06
1.09535e-07
2.68948e-06
2.06832e-06
-1.99265e-05
-1.14819e-05
-5.63145e-07
6.02637e-06
5.40729e-06
-6.02024e-07
-1.26041e-06
3.79334e-06
6.93431e-06
3.42893e-06
-2.19871e-06
-3.37776e-06
-5.59723e-08
2.00804e-06
1.43389e-06
-1.09276e-06
-2.91935e-06
-2.22681e-06
-6.73432e-08
6.73914e-07
-1.8312e-05
-1.1543e-05
-2.10957e-06
3.54509e-06
5.15789e-06
4.28495e-06
4.28662e-06
7.19617e-06
6.85183e-06
1.63717e-06
-2.11725e-06
-2.69166e-06
9.71388e-07
3.61469e-06
1.89937e-06
-6.51995e-07
-1.08743e-06
-1.37587e-06
-3.9118e-07
1.98464e-07
-1.46505e-05
-1.02252e-05
-2.44588e-06
1.74292e-06
5.35561e-06
8.65074e-06
9.12704e-06
8.66919e-06
4.99953e-06
1.00736e-07
-1.68581e-06
-1.00982e-06
1.18177e-06
2.76072e-06
1.00972e-06
-1.82809e-06
-1.2598e-06
-5.81276e-07
-4.18748e-07
-2.97285e-07
-9.74082e-06
-7.42685e-06
-1.9318e-06
1.52667e-06
6.36178e-06
1.19131e-05
1.28231e-05
8.66728e-06
1.44694e-06
-2.8112e-06
1.40054e-06
1.36358e-06
9.17721e-07
5.55659e-07
-4.99055e-08
2.07655e-07
3.56238e-07
9.27405e-07
5.17865e-07
-1.77922e-07
-4.85872e-06
-4.23375e-06
-1.52952e-06
1.79717e-06
7.33719e-06
1.43716e-05
1.56974e-05
8.45773e-06
-2.0011e-06
-4.34642e-06
-3.59968e-07
3.69611e-06
7.24057e-07
-1.89752e-06
-2.03857e-06
-1.65952e-06
-3.60745e-07
1.01499e-06
1.60039e-06
4.60059e-07
-1.59929e-06
-2.2957e-06
-9.36454e-07
1.86234e-06
8.08036e-06
1.53718e-05
1.63722e-05
7.17315e-06
-4.14783e-06
-6.75496e-06
8.58345e-07
4.29286e-06
3.08254e-07
-2.93712e-06
-1.7594e-06
-1.88748e-06
-1.85705e-06
1.03172e-06
1.78192e-06
6.14505e-07
-1.40468e-06
-2.16872e-06
-6.05224e-07
1.70116e-06
7.77737e-06
1.52116e-05
1.61613e-05
7.03728e-06
-3.9981e-06
-6.57449e-06
6.89025e-07
4.36188e-06
4.67571e-07
-2.73065e-06
-1.84142e-06
-1.69773e-06
-1.84844e-06
1.28325e-06
1.40453e-06
1.72388e-07
-4.5282e-06
-3.9349e-06
-1.40265e-06
1.42617e-06
6.90371e-06
1.39259e-05
1.52036e-05
8.19e-06
-1.68575e-06
-4.23301e-06
-1.46165e-06
3.71319e-06
1.13768e-06
-1.03544e-06
-5.32651e-07
-1.47098e-06
-4.28204e-07
1.05558e-06
1.18232e-06
1.54942e-08
-9.76666e-06
-7.37618e-06
-1.89626e-06
1.16611e-06
6.04076e-06
1.1498e-05
1.21902e-05
8.1567e-06
1.33352e-06
-2.81096e-06
2.49259e-06
1.57069e-06
1.49902e-06
2.87264e-07
-1.19201e-06
-3.05661e-07
-1.95816e-06
-1.72257e-07
7.84924e-08
-2.10069e-07
-1.50959e-05
-1.06401e-05
-2.64061e-06
1.52896e-06
5.43512e-06
8.26021e-06
8.43283e-06
8.06942e-06
4.77478e-06
-9.75474e-08
-1.38861e-06
-9.7304e-07
1.52882e-06
2.84733e-06
1.27019e-06
-8.15227e-07
5.3463e-07
-3.04129e-07
-4.87738e-07
-2.89623e-07
-1.88062e-05
-1.17199e-05
-2.38441e-06
3.10905e-06
5.16445e-06
4.29298e-06
4.26229e-06
7.09678e-06
6.56439e-06
1.514e-06
-1.93654e-06
-2.76439e-06
8.38329e-07
3.95252e-06
2.1315e-06
-2.08069e-07
-1.05017e-06
-8.38347e-07
-2.44042e-07
1.97086e-07
-2.03629e-05
-1.15574e-05
-8.42857e-07
5.90305e-06
4.8459e-06
-1.58141e-07
-5.58484e-07
3.52184e-06
6.47323e-06
3.3864e-06
-2.25992e-06
-3.63557e-06
-3.24889e-07
2.39959e-06
1.44057e-06
-1.00569e-06
-3.02453e-06
-1.66054e-06
6.75455e-07
1.18436e-06
-1.816e-05
-1.06419e-05
2.10667e-06
9.11743e-06
5.29957e-06
-4.05504e-06
-8.21635e-06
-1.0451e-06
4.94971e-06
3.81975e-06
-1.07179e-06
-2.72035e-06
-1.49059e-06
-4.89902e-07
-1.00367e-06
-3.16107e-06
-2.8243e-06
-2.02243e-07
2.64839e-06
1.79617e-06
-1.48992e-05
-7.01754e-06
5.27808e-06
1.23853e-05
4.41417e-06
-7.71718e-06
-1.3279e-05
-6.75146e-06
1.75088e-06
4.00045e-06
1.30548e-06
2.47154e-07
-2.41781e-06
-5.87207e-06
-5.35546e-06
-2.88414e-06
-1.71036e-06
1.52858e-06
4.82304e-06
2.68013e-06
-1.09351e-05
-4.19014e-06
7.7517e-06
1.42106e-05
4.51339e-06
-1.23975e-05
-1.86044e-05
-1.2312e-05
-6.91849e-07
3.54106e-06
4.08243e-06
2.50892e-06
-3.45915e-06
-9.8766e-06
-7.97613e-06
-2.15831e-06
8.26489e-07
3.217e-06
6.54641e-06
3.25916e-06
-7.69344e-06
-1.80422e-06
9.54401e-06
1.59094e-05
3.93679e-06
-1.32845e-05
-2.08936e-05
-1.50614e-05
-3.18249e-06
3.23966e-06
6.2164e-06
4.76554e-06
-3.86643e-06
-1.10041e-05
-1.05395e-05
-3.45161e-06
1.71089e-06
4.71063e-06
7.02165e-06
3.75407e-06
)
;

boundaryField
{
    sides
    {
        type            calculated;
        value           nonuniform List<scalar> 
40
(
-7.69344e-06
-1.80422e-06
9.54401e-06
1.59094e-05
3.93679e-06
-1.32845e-05
-2.08936e-05
-1.50614e-05
-3.18249e-06
3.23966e-06
6.2164e-06
4.76554e-06
-3.86643e-06
-1.10041e-05
-1.05395e-05
-3.45161e-06
1.71089e-06
4.71063e-06
7.02165e-06
3.75407e-06
-7.91148e-06
-1.39374e-06
9.01193e-06
1.54709e-05
3.8457e-06
-1.34329e-05
-2.07487e-05
-1.53652e-05
-3.21531e-06
2.63819e-06
5.36539e-06
4.87062e-06
-3.58413e-06
-1.10888e-05
-1.08856e-05
-2.83312e-06
1.51968e-06
5.04346e-06
7.2052e-06
3.50282e-06
)
;
    }
    inlet
    {
        type            calculated;
        value           nonuniform List<scalar> 
20
(
-7.91148e-06
-9.88793e-06
-1.45704e-05
-1.79814e-05
-1.99265e-05
-1.8312e-05
-1.46505e-05
-9.74082e-06
-4.85872e-06
-1.59929e-06
-1.40468e-06
-4.5282e-06
-9.76666e-06
-1.50959e-05
-1.88062e-05
-2.03629e-05
-1.816e-05
-1.48992e-05
-1.09351e-05
-7.69344e-06
)
;
    }
    outlet
    {
        type            calculated;
        value           uniform 0;
    }
    frontAndBack
    {
        type            empty;
    }
}


// ************************************************************************* //
