/*--------------------------------*- C++ -*----------------------------------*\
  =========                 |
  \\      /  F ield         | OpenFOAM: The Open Source CFD Toolbox
   \\    /   O peration     | Website:  https://openfoam.org
    \\  /    A nd           | Version:  9
     \\/     M anipulation  |
\*---------------------------------------------------------------------------*/
FoamFile
{
    format      ascii;
    class       surfaceScalarField;
    location    "9";
    object      ddtCorrDdt0(phi);
}
// * * * * * * * * * * * * * * * * * * * * * * * * * * * * * * * * * * * * * //

dimensions      [0 4 -2 0 0 0 0];

internalField   nonuniform List<scalar> 
760
(
-7.28112e-09
1.58166e-09
-1.39708e-08
8.17172e-10
-2.29723e-08
4.72275e-09
-1.88303e-08
5.24505e-09
-1.20916e-09
2.30918e-09
8.39558e-09
6.45564e-10
5.47792e-09
1.98542e-09
-5.21179e-09
4.09374e-09
-1.23202e-08
5.45352e-10
-1.21347e-08
6.90799e-10
-1.45418e-08
1.69594e-09
-1.4183e-08
4.5464e-09
-3.89543e-09
8.01918e-09
7.82092e-09
6.76371e-09
1.39694e-08
2.30582e-09
1.6755e-08
3.95289e-10
1.38272e-08
-6.54681e-10
3.04472e-09
-8.92855e-10
-8.20163e-09
-1.32459e-09
-2.27908e-10
-6.32268e-09
2.33132e-09
-1.32978e-08
1.66718e-09
-2.31116e-08
8.2939e-09
-1.86266e-08
1.03435e-08
-1.6285e-09
4.6272e-09
9.18484e-09
5.2078e-12
6.85077e-09
2.02577e-09
-4.91702e-09
2.44507e-09
-1.15525e-08
1.36092e-09
-1.07669e-08
1.49404e-10
-1.30317e-08
2.41176e-09
-1.19344e-08
8.61532e-09
-4.91032e-09
1.30917e-08
4.49028e-09
1.22327e-08
1.25033e-08
6.8999e-09
1.5808e-08
8.60647e-11
1.34636e-08
-2.67651e-09
2.81941e-09
-1.67136e-09
-7.28292e-09
-3.14596e-09
-1.27186e-09
-4.22967e-09
1.5656e-10
-1.26782e-08
-5.56332e-11
-2.22822e-08
1.00802e-08
-1.89275e-08
1.30127e-08
-3.65366e-09
6.68659e-09
8.30927e-09
2.64075e-09
5.31435e-09
2.66036e-09
-3.04264e-09
4.17025e-09
-8.04348e-09
1.24542e-09
-6.85697e-09
-4.7677e-10
-8.47421e-09
2.14809e-09
-1.00962e-08
9.43701e-09
-6.58969e-09
1.53673e-08
6.34525e-10
1.37684e-08
7.99159e-09
7.39772e-09
1.32213e-08
3.50568e-09
1.14266e-08
-2.36299e-10
4.00746e-09
-1.38703e-09
-6.63041e-09
-2.77372e-09
-1.84281e-09
-2.07746e-09
-2.8723e-09
-1.07932e-08
-7.13866e-10
-2.0661e-08
9.68325e-09
-1.82674e-08
1.31308e-08
-4.44925e-09
7.44404e-09
6.08967e-09
2.0539e-10
5.2897e-09
2.05836e-09
-2.61034e-09
2.43914e-09
-4.61293e-09
3.11166e-10
-2.2222e-09
-1.57692e-09
-3.27904e-09
1.5966e-10
-7.09171e-09
7.47228e-09
-8.56604e-09
1.39964e-08
-5.05843e-09
1.55515e-08
4.54891e-09
1.32161e-08
1.02399e-08
6.37703e-09
1.03976e-08
1.88256e-09
2.45284e-09
-2.38725e-10
-5.71274e-09
-1.56819e-09
-1.10871e-09
7.42144e-10
-5.45969e-09
-8.95722e-09
-2.27249e-09
-1.81154e-08
7.81281e-09
-1.56641e-08
1.1456e-08
-6.37028e-09
6.01593e-09
2.65666e-09
-4.48953e-12
2.75637e-09
-3.4364e-10
-1.34426e-09
1.66358e-09
-3.98652e-10
-5.92132e-10
2.17112e-09
-2.78616e-09
2.08891e-09
-2.39454e-09
-3.55124e-09
3.76337e-09
-8.17624e-09
1.09653e-08
-5.92298e-09
1.52027e-08
3.31317e-10
1.55507e-08
6.58926e-09
1.19001e-08
6.77831e-09
6.92921e-09
1.11196e-09
1.89828e-09
-6.09966e-09
-8.05665e-10
-7.044e-10
2.62438e-09
-7.57988e-09
-7.53837e-09
-4.68244e-09
-1.43732e-08
4.7107e-09
-1.2346e-08
7.66011e-09
-7.71527e-09
2.50436e-09
-7.61714e-10
-9.17833e-10
-8.0376e-10
-9.79073e-10
-1.43447e-09
-3.58742e-10
3.10815e-09
-2.06739e-09
6.65908e-09
-4.15075e-09
5.99005e-09
-3.90902e-09
-5.80963e-11
-6.62894e-10
-6.39313e-09
6.91322e-09
-6.13129e-09
1.43479e-08
-2.00993e-09
1.61151e-08
5.3101e-09
1.49914e-08
4.41043e-09
9.79471e-09
-8.64075e-10
4.25295e-09
-5.99871e-09
8.99676e-11
-1.37684e-09
2.134e-09
-8.73756e-09
-6.15959e-09
-6.16569e-09
-1.04707e-08
1.46276e-09
-8.72667e-09
3.3372e-09
-7.26941e-09
-3.2402e-10
-5.24161e-09
-2.46749e-09
-4.51473e-09
-2.53975e-09
-1.5395e-09
-1.7484e-09
5.9038e-09
-2.60382e-09
1.00583e-08
-4.74234e-09
8.47185e-09
-8.09175e-09
4.65373e-09
-3.17194e-09
-1.39716e-09
3.68844e-09
-4.67803e-09
1.21114e-08
-2.13649e-09
1.49781e-08
-1.47705e-09
1.68668e-08
-6.8964e-11
1.09557e-08
-3.28823e-09
5.20134e-09
-6.1685e-09
5.16491e-10
-1.26883e-09
3.03506e-10
-7.61891e-09
-5.00578e-09
-5.46706e-09
-7.06773e-09
-4.16715e-10
-4.61703e-09
5.90513e-10
-5.9604e-09
-1.8505e-09
-9.20294e-09
-3.09646e-09
-8.84099e-09
-3.02736e-09
-1.70216e-09
-2.81358e-09
8.32494e-09
-2.79455e-09
1.11135e-08
-4.71191e-09
1.0539e-08
3.81418e-08
8.08286e-09
-4.23752e-09
4.72285e-09
2.03762e-09
-8.66929e-10
9.13342e-09
-3.71453e-09
7.46504e-09
-8.99392e-10
1.10196e-08
-3.58388e-09
1.02099e-08
-6.73528e-09
5.35412e-09
-7.23614e-09
4.08888e-10
-1.47095e-09
-1.6707e-09
-4.3576e-09
-4.99584e-09
-3.26419e-09
-4.20865e-09
-2.61366e-10
-1.42637e-09
-3.04578e-10
-4.70477e-09
-1.186e-09
-1.11504e-08
-1.69638e-09
-1.20345e-08
-1.85196e-09
-2.55594e-09
-1.90829e-09
1.03737e-08
-2.40478e-09
1.19429e-08
-2.72805e-09
1.02548e-08
-6.79733e-09
1.13982e-08
-1.18556e-09
8.92324e-09
2.11342e-09
3.71313e-09
4.26604e-09
-3.67961e-09
6.9017e-09
-4.39285e-09
6.1389e-09
-6.70977e-09
5.81516e-09
-1.03738e-08
4.44935e-09
-8.17826e-09
-8.16731e-10
-1.7861e-09
-3.33619e-09
3.25153e-14
-4.64363e-09
4.11543e-10
-3.01743e-09
3.80713e-10
2.39174e-10
6.64457e-10
-4.49836e-09
7.16854e-10
-1.26556e-08
5.46126e-10
-1.38551e-08
2.47131e-10
-3.53434e-09
1.70325e-10
9.60012e-09
-4.87984e-11
1.24737e-08
-2.77005e-10
9.49062e-09
-6.29952e-12
1.22057e-08
1.36681e-10
1.40681e-08
3.06407e-10
5.69735e-09
3.40944e-10
-4.25608e-09
7.43415e-10
-6.85237e-09
8.87596e-10
-7.77065e-09
-1.36471e-10
-8.55143e-09
4.02456e-10
-9.32917e-09
2.73961e-10
-8.35899e-11
-3.21219e-09
4.31424e-09
-4.76143e-09
3.49398e-09
-3.021e-09
1.561e-09
1.63979e-10
1.87463e-09
-4.61535e-09
3.07223e-09
-1.28569e-08
3.08129e-09
-1.378e-08
2.52398e-09
-3.55769e-09
2.21005e-09
9.55477e-09
2.36407e-09
1.26972e-08
2.48223e-09
9.50287e-09
6.31915e-09
1.22568e-08
1.5762e-09
1.39264e-08
-1.42846e-09
5.48526e-09
-3.83563e-09
-3.80704e-09
-4.59293e-09
-7.7521e-09
-4.91674e-09
-6.93337e-09
-8.77408e-09
-8.54129e-09
-6.37942e-09
-9.7084e-09
1.0342e-09
1.82372e-09
-1.67567e-09
7.40777e-09
-4.90294e-09
6.08744e-09
-4.50754e-09
1.7198e-09
-1.41955e-09
1.58424e-09
-5.03669e-09
3.74312e-09
-1.14786e-08
4.44121e-09
-1.16541e-08
4.02942e-09
-2.31194e-09
3.31558e-09
1.03108e-08
3.12911e-09
1.21814e-08
4.9247e-09
9.96725e-09
-2.24064e-08
1.14038e-08
4.01253e-09
8.92581e-09
-2.0154e-09
2.20408e-09
-8.15812e-09
-8.73563e-10
-1.18083e-08
-3.36937e-09
-8.64709e-09
-7.95177e-09
-1.31405e-08
-1.10327e-08
-8.2113e-09
-9.10462e-09
-1.06365e-09
1.35021e-09
6.00229e-10
8.87544e-09
-5.04487e-09
6.6047e-09
-6.81943e-09
1.50624e-11
-4.83184e-09
-1.40504e-09
-6.42428e-09
2.38916e-09
-9.49152e-09
4.2226e-09
-8.7478e-09
3.90345e-09
-1.56372e-09
2.29358e-09
8.38263e-09
2.7282e-09
1.13437e-08
4.55925e-09
1.09127e-08
6.63434e-09
7.97714e-09
2.69255e-09
3.73684e-09
-3.66505e-09
-9.34428e-11
-1.14985e-08
-4.49363e-09
-1.59446e-08
-2.5267e-09
-1.26859e-08
-5.19587e-09
-9.56486e-09
-6.82096e-09
-5.67466e-09
-7.3307e-09
-8.2529e-10
1.09655e-09
2.13057e-09
8.15653e-09
-5.95094e-09
5.45903e-09
-1.00886e-08
-3.51601e-09
-8.64267e-09
-6.13111e-09
-7.57668e-09
-1.10025e-09
-5.56207e-09
2.22793e-09
-4.49927e-09
1.6893e-09
-1.4531e-09
3.94618e-10
5.88794e-09
1.47211e-09
9.48163e-09
3.41493e-09
8.20478e-09
3.01657e-09
4.24333e-09
-6.7862e-11
-2.03894e-09
-7.00163e-09
-4.70294e-09
-1.37263e-08
-4.27733e-09
-1.5908e-08
2.44213e-10
-1.2598e-08
3.6318e-10
-8.49219e-09
-2.6699e-09
-3.63512e-09
-5.6977e-09
4.53621e-11
8.74748e-10
2.42301e-09
5.84452e-09
-7.39763e-09
3.0743e-09
-1.40955e-08
-6.86066e-09
-1.23901e-08
-1.02902e-08
-7.68362e-09
-4.58193e-09
-9.96012e-10
9.77454e-10
-8.18291e-10
-1.49601e-09
-1.53172e-09
-2.06654e-09
3.16193e-09
-2.15585e-10
6.06267e-09
1.52e-09
5.41281e-09
-4.88548e-11
-3.11615e-10
-4.4588e-09
-6.69646e-09
-1.10207e-08
-6.8255e-09
-1.49061e-08
-1.55003e-09
-1.46598e-08
3.4736e-09
-1.12655e-08
4.49768e-09
-4.55902e-09
-4.38317e-10
-3.82079e-10
-5.54376e-09
1.54617e-09
1.14304e-09
4.01644e-10
3.26568e-09
-8.98528e-09
1.49072e-09
-1.78358e-08
-8.81994e-09
-1.55657e-08
-1.24316e-08
-6.49179e-09
-6.3676e-09
2.13278e-09
-2.81949e-09
2.94668e-09
-2.32925e-09
-1.73333e-09
-1.46718e-10
-7.43668e-10
-1.32934e-09
1.96423e-09
4.47226e-10
1.19532e-09
-1.75253e-09
-3.72734e-09
-7.67101e-09
-8.77613e-09
-1.4455e-08
-6.59265e-09
-1.57984e-08
1.45191e-10
-1.23864e-08
7.43648e-09
-6.06276e-09
7.37165e-09
-7.20262e-10
8.60383e-10
1.78714e-09
-6.01889e-09
2.42512e-09
1.43017e-09
-2.54505e-09
-6.78871e-11
-1.11677e-08
1.18745e-09
-2.0772e-08
-8.86037e-09
-1.7579e-08
-1.23085e-08
-5.56648e-09
-6.48416e-09
5.99792e-09
-3.47148e-10
4.42644e-09
-1.79578e-09
-2.07369e-09
-3.04138e-09
-4.71357e-09
-1.00566e-09
-2.46652e-09
5.9492e-10
-3.57052e-09
-2.7308e-09
-7.75347e-09
-9.68893e-09
-9.14293e-09
-1.58111e-08
-4.49779e-09
-1.4507e-08
3.69285e-09
-7.90334e-09
1.10774e-08
-2.14536e-09
1.02507e-08
9.09986e-10
2.10955e-09
2.29493e-09
-6.79104e-09
1.85487e-09
9.63636e-10
-4.31859e-09
-1.66363e-09
-1.29627e-08
-7.02464e-10
-2.30007e-08
-7.44365e-09
-1.91035e-08
-9.55793e-09
-2.97746e-09
-4.39211e-09
8.36345e-09
-5.5076e-10
6.04882e-09
-1.65086e-09
-3.48296e-09
-3.03132e-09
-8.69118e-09
-7.12132e-10
-7.34996e-09
-3.92918e-10
-8.89092e-09
-1.9852e-09
-1.12373e-08
-8.23383e-09
-7.49136e-09
-1.22682e-08
5.66922e-11
-9.70885e-09
7.90519e-09
-4.58141e-09
1.34754e-08
-1.60504e-10
1.19484e-08
1.07971e-09
2.3543e-09
1.36516e-09
-7.12029e-09
1.41046e-09
9.16702e-10
-6.2573e-09
-1.45401e-09
-1.40446e-08
-6.82017e-10
-2.39269e-08
-4.54195e-09
-1.92643e-08
-5.37854e-09
-1.9103e-09
-2.42808e-09
8.47875e-09
3.86521e-11
5.99876e-09
-5.94673e-10
-4.85179e-09
-1.02719e-09
-1.12796e-08
-1.59852e-09
-1.08401e-08
-1.64473e-10
-1.29838e-08
-2.0617e-09
-1.31361e-08
-5.20525e-09
-4.83551e-09
-6.97306e-09
3.98721e-09
-6.95456e-09
1.13353e-08
-2.86271e-09
1.46176e-08
5.96814e-10
1.29743e-08
2.4483e-09
2.99017e-09
1.88465e-09
-7.32972e-09
1.47736e-09
6.36415e-10
-7.35505e-09
-1.43796e-08
-2.3985e-08
-1.92327e-08
-7.94255e-10
9.12271e-09
6.40464e-09
-5.46069e-09
-1.33384e-08
-1.31175e-08
-1.56061e-08
-1.36393e-08
-4.24727e-09
7.25356e-09
1.36091e-08
1.61295e-08
1.32665e-08
2.92905e-09
-7.89153e-09
)
;

boundaryField
{
    sides
    {
        type            calculated;
        value           uniform 0;
    }
    inlet
    {
        type            calculated;
        value           uniform 0;
    }
    outlet
    {
        type            calculated;
        value           nonuniform List<scalar> 
20
(
-1.10485e-08
-1.11392e-08
-1.05127e-08
-8.8982e-09
-9.43325e-09
-9.49411e-09
-8.72054e-09
-7.65308e-09
-6.59562e-09
-8.9373e-09
-9.26193e-09
-7.27379e-09
-8.43761e-09
-9.36975e-09
-9.14816e-09
-9.283e-09
-1.01175e-08
-1.00644e-08
-1.05579e-08
-1.09791e-08
)
;
    }
    frontAndBack
    {
        type            empty;
        value           nonuniform List<scalar> 0();
    }
}


// ************************************************************************* //
