/*--------------------------------*- C++ -*----------------------------------*\
  =========                 |
  \\      /  F ield         | OpenFOAM: The Open Source CFD Toolbox
   \\    /   O peration     | Website:  https://openfoam.org
    \\  /    A nd           | Version:  9
     \\/     M anipulation  |
\*---------------------------------------------------------------------------*/
FoamFile
{
    format      ascii;
    class       volVectorField;
    location    "9";
    object      ddtCorrDdt0(hU);
}
// * * * * * * * * * * * * * * * * * * * * * * * * * * * * * * * * * * * * * //

dimensions      [0 2 -2 0 0 0 0];

internalField   nonuniform List<vector> 
400
(
(-1.17534e-06 1.53865e-07 0)
(-2.49721e-06 6.67576e-08 0)
(-3.10349e-06 4.4806e-07 0)
(-3.51226e-06 5.07121e-07 0)
(-1.97859e-06 2.45444e-07 0)
(2.56105e-07 2.46366e-08 0)
(8.79471e-07 1.81638e-07 0)
(-1.47714e-07 3.78681e-07 0)
(-1.49658e-06 2.61356e-07 0)
(-2.32157e-06 1.03475e-07 0)
(-2.50359e-06 1.55526e-07 0)
(-2.54146e-06 4.1612e-07 0)
(-1.84641e-06 7.71255e-07 0)
(3.20191e-08 6.78357e-07 0)
(1.85693e-06 2.405e-07 0)
(3.16242e-06 -5.56617e-10 0)
(3.10159e-06 -1.21088e-07 0)
(1.82246e-06 -1.32848e-07 0)
(-2.94068e-07 -1.28072e-07 0)
(-2.17208e-06 -3.47674e-08 0)
(-1.20627e-06 3.89663e-07 0)
(-2.3783e-06 2.18271e-07 0)
(-3.01844e-06 1.25226e-06 0)
(-3.55858e-06 1.54426e-06 0)
(-2.00693e-06 7.3068e-07 0)
(3.62779e-07 3.76762e-08 0)
(1.09237e-06 3.84136e-07 0)
(9.32434e-08 6.30027e-07 0)
(-1.40405e-06 4.21681e-07 0)
(-2.1051e-06 1.67846e-07 0)
(-2.28131e-06 4.34124e-07 0)
(-2.26262e-06 1.31406e-06 0)
(-1.70243e-06 2.09912e-06 0)
(-3.26556e-07 1.9128e-06 0)
(1.50468e-06 9.57436e-07 0)
(2.83878e-06 7.27472e-08 0)
(2.93616e-06 -4.14648e-07 0)
(1.70958e-06 -6.00825e-07 0)
(-1.86413e-07 -4.09303e-07 0)
(-2.07366e-06 -1.54332e-07 0)
(-1.34901e-06 2.63649e-07 0)
(-2.0671e-06 1.48878e-07 0)
(-2.90473e-06 1.78674e-06 0)
(-3.57394e-06 2.32368e-06 0)
(-2.14707e-06 1.1194e-06 0)
(7.74501e-08 2.00103e-07 0)
(8.35406e-07 4.71929e-07 0)
(2.16336e-07 7.40028e-07 0)
(-8.10544e-07 3.48986e-07 0)
(-1.34745e-06 1.00839e-08 0)
(-1.5433e-06 4.66223e-07 0)
(-1.79681e-06 1.83561e-06 0)
(-1.65683e-06 2.87512e-06 0)
(-7.76303e-07 2.65542e-06 0)
(8.02444e-07 1.43943e-06 0)
(2.14935e-06 3.13565e-07 0)
(2.36381e-06 -4.19779e-07 0)
(1.60055e-06 -6.88296e-07 0)
(-6.40382e-08 -6.05655e-07 0)
(-1.86173e-06 -3.2616e-07 0)
(-1.36294e-06 -2.47309e-07 0)
(-1.68598e-06 -9.57904e-08 0)
(-2.59362e-06 1.95242e-06 0)
(-3.42062e-06 2.59549e-06 0)
(-2.15248e-06 1.36753e-06 0)
(-1.72578e-07 3.18885e-07 0)
(7.5141e-07 4.69749e-07 0)
(3.28208e-07 7.6299e-07 0)
(-4.50056e-07 2.50378e-07 0)
(-5.71756e-07 -1.8251e-07 0)
(-6.63318e-07 2.14059e-07 0)
(-1.1326e-06 1.68049e-06 0)
(-1.52015e-06 2.94966e-06 0)
(-1.32338e-06 3.01165e-06 0)
(-6.19955e-08 2.14491e-06 0)
(1.42469e-06 1.04405e-06 0)
(1.90978e-06 1.43294e-07 0)
(1.36949e-06 -3.19064e-07 0)
(-1.8682e-07 -4.91323e-07 0)
(-1.55501e-06 -3.15739e-07 0)
(-1.25262e-06 -8.19708e-07 0)
(-1.12057e-06 -3.20342e-07 0)
(-2.28112e-06 1.77437e-06 0)
(-3.03811e-06 2.46767e-06 0)
(-2.01477e-06 1.30945e-06 0)
(-6.29503e-07 1.62873e-07 0)
(2.60848e-07 3.73151e-07 0)
(2.4867e-07 5.24025e-07 0)
(9.88622e-08 1.50023e-08 0)
(1.9827e-07 -4.11832e-07 0)
(2.26504e-07 -9.32858e-08 0)
(-2.82697e-07 1.15591e-06 0)
(-1.10838e-06 2.4962e-06 0)
(-1.29661e-06 3.05665e-06 0)
(-4.92316e-07 2.84095e-06 0)
(6.30767e-07 1.80754e-06 0)
(1.19043e-06 9.38441e-07 0)
(8.09841e-07 2.02687e-07 0)
(-4.279e-07 -2.01623e-07 0)
(-1.57132e-06 -2.34621e-07 0)
(-9.23001e-07 -1.29615e-06 0)
(-7.88497e-07 -6.81805e-07 0)
(-1.88199e-06 1.29869e-06 0)
(-2.42594e-06 1.94092e-06 0)
(-1.84505e-06 8.27574e-07 0)
(-9.37685e-07 -7.25042e-08 0)
(-3.2158e-07 7.20157e-08 0)
(-1.03092e-07 2.47476e-07 0)
(3.47858e-07 -2.12138e-07 0)
(8.99722e-07 -7.22879e-07 0)
(1.10045e-06 -5.33925e-07 0)
(4.47964e-07 3.84798e-07 0)
(-5.89811e-07 1.85679e-06 0)
(-1.08782e-06 2.98075e-06 0)
(-7.82798e-07 3.15502e-06 0)
(2.37406e-07 2.66756e-06 0)
(9.54852e-07 1.53697e-06 0)
(3.80436e-07 6.6152e-07 0)
(-7.13594e-07 -9.72101e-10 0)
(-1.54872e-06 -2.0723e-07 0)
(-6.45246e-07 -1.6214e-06 0)
(-7.35117e-07 -1.04722e-06 0)
(-1.47965e-06 6.88989e-07 0)
(-1.75229e-06 1.13574e-06 0)
(-1.44142e-06 2.03585e-07 0)
(-1.20379e-06 -3.54065e-07 0)
(-1.02069e-06 -3.36758e-07 0)
(-4.80344e-07 -2.71361e-07 0)
(4.7418e-07 -5.4428e-07 0)
(1.41635e-06 -9.14806e-07 0)
(1.73485e-06 -1.02712e-06 0)
(1.27517e-06 -4.05885e-07 0)
(3.63011e-07 1.00133e-06 0)
(-4.81769e-07 2.6258e-06 0)
(-6.4337e-07 3.28808e-06 0)
(-4.91407e-07 2.90502e-06 0)
(-1.61105e-07 1.99415e-06 0)
(-2.36033e-07 9.95768e-07 0)
(-1.01801e-06 3.27148e-08 0)
(-1.51109e-06 -2.994e-07 0)
(-4.24373e-07 -1.6201e-06 0)
(-8.08008e-07 -1.10778e-06 0)
(-1.17988e-06 1.41706e-07 0)
(-1.05331e-06 4.42274e-07 0)
(-8.76932e-07 -2.13265e-07 0)
(-1.36043e-06 -5.70779e-07 0)
(-1.73116e-06 -4.93276e-07 0)
(-9.84704e-07 -5.1317e-07 0)
(5.49595e-07 -7.41214e-07 0)
(1.65382e-06 -9.56524e-07 0)
(2.25761e-06 -1.15356e-06 0)
(1.88697e-06 -7.85986e-07 0)
(1.27133e-06 4.16037e-07 0)
(3.72626e-07 1.91993e-06 0)
(-4.97525e-07 2.92177e-06 0)
(-4.39351e-07 2.6224e-06 0)
(-3.21103e-07 2.12119e-06 0)
(-1.00522e-06 1.24322e-06 0)
(-1.59037e-06 2.46443e-07 0)
(-1.47948e-06 -1.31873e-07 0)
(-2.26451e-07 -1.18379e-06 0)
(-9.97296e-07 -8.12014e-07 0)
(-1.05851e-06 -5.77172e-08 0)
(-4.39117e-07 4.45663e-08 0)
(-4.34358e-07 -3.17805e-07 0)
(-1.3983e-06 -5.2408e-07 0)
(-2.10276e-06 -5.60392e-07 0)
(-1.36582e-06 -5.80576e-07 0)
(4.60376e-07 -6.49939e-07 0)
(1.909e-06 -9.11697e-07 0)
(2.25515e-06 -1.00063e-06 0)
(2.45044e-06 -5.84174e-07 0)
(1.98367e-06 5.13081e-07 0)
(1.08713e-06 1.44874e-06 0)
(2.05939e-09 1.72572e-06 0)
(-7.47586e-07 1.86271e-06 0)
(-9.73101e-07 2.16433e-06 0)
(-1.7926e-06 1.60938e-06 0)
(-1.97619e-06 2.81878e-08 0)
(-1.4624e-06 -3.7021e-07 0)
(-1.25359e-07 -4.25956e-07 0)
(-1.16228e-06 -2.54292e-07 0)
(-9.56435e-07 3.8015e-08 0)
(-1.60538e-07 2.65658e-08 0)
(-2.55235e-07 -7.17451e-08 0)
(-1.46977e-06 -1.57024e-07 0)
(-2.37451e-06 -2.82725e-07 0)
(-1.80927e-06 -3.2365e-07 0)
(2.57921e-07 -3.20962e-07 0)
(1.88172e-06 -4.32161e-07 0)
(2.43288e-06 -4.73376e-07 0)
(2.33271e-06 -8.80591e-08 0)
(2.57304e-06 4.15437e-07 0)
(1.96375e-06 5.72857e-07 0)
(2.81195e-07 2.93817e-07 0)
(-1.28764e-06 6.40104e-07 0)
(-1.70908e-06 1.37546e-06 0)
(-1.2356e-06 1.00278e-06 0)
(-1.65945e-06 -4.31288e-07 0)
(-2.09385e-06 -4.25219e-07 0)
(-9.73316e-08 4.34526e-07 0)
(-1.16994e-06 3.68177e-07 0)
(-9.52031e-07 1.88523e-07 0)
(-1.74884e-07 2.67694e-07 0)
(-2.8063e-07 3.86065e-07 0)
(-1.49675e-06 3.77019e-07 0)
(-2.39143e-06 3.84914e-07 0)
(-1.81212e-06 3.84719e-07 0)
(2.60967e-07 3.2058e-07 0)
(1.91103e-06 3.69441e-07 0)
(2.42885e-06 4.56645e-07 0)
(2.3494e-06 1.56156e-07 0)
(2.58171e-06 -2.41005e-07 0)
(1.9233e-06 -3.45982e-07 0)
(2.81005e-07 -2.27446e-07 0)
(-1.30846e-06 -2.91049e-07 0)
(-1.73296e-06 -1.07535e-06 0)
(-1.12594e-06 -7.89389e-07 0)
(-1.71164e-06 5.52053e-07 0)
(-2.16697e-06 3.99841e-07 0)
(-1.94968e-07 1.15616e-06 0)
(-9.82102e-07 8.98206e-07 0)
(-1.0771e-06 2.94612e-07 0)
(-4.84211e-07 3.21462e-07 0)
(-4.66133e-07 6.79233e-07 0)
(-1.46289e-06 7.87181e-07 0)
(-2.1077e-06 7.29502e-07 0)
(-1.30449e-06 6.69549e-07 0)
(5.0694e-07 6.80114e-07 0)
(1.94558e-06 9.05593e-07 0)
(2.19201e-06 9.6448e-07 0)
(2.43626e-06 6.14368e-07 0)
(1.96618e-06 -4.04173e-07 0)
(9.49569e-07 -1.29912e-06 0)
(1.88695e-07 -1.37237e-06 0)
(-4.00557e-07 -1.59641e-06 0)
(-9.93687e-07 -1.90868e-06 0)
(-1.96435e-06 -1.57399e-06 0)
(-2.16814e-06 -2.9262e-08 0)
(-1.60747e-06 3.58171e-07 0)
(-3.85187e-07 1.60479e-06 0)
(-7.75811e-07 1.19611e-06 0)
(-1.16284e-06 1.0845e-07 0)
(-1.06058e-06 -3.8641e-08 0)
(-9.3481e-07 6.18425e-07 0)
(-1.42885e-06 9.0189e-07 0)
(-1.76126e-06 7.28614e-07 0)
(-9.71655e-07 6.23328e-07 0)
(5.78846e-07 7.63215e-07 0)
(1.65843e-06 9.49247e-07 0)
(2.35777e-06 1.04396e-06 0)
(1.88175e-06 7.09164e-07 0)
(1.21777e-06 -4.09723e-07 0)
(3.50207e-07 -1.83988e-06 0)
(-5.54283e-07 -2.60402e-06 0)
(-6.08607e-07 -2.78028e-06 0)
(-7.23213e-07 -2.29085e-06 0)
(-1.18258e-06 -1.37069e-06 0)
(-1.58676e-06 -3.04624e-07 0)
(-1.5537e-06 1.44408e-07 0)
(-6.51516e-07 1.68548e-06 0)
(-7.16453e-07 1.16255e-06 0)
(-1.43409e-06 -4.25884e-07 0)
(-1.7128e-06 -7.96333e-07 0)
(-1.42839e-06 1.43897e-07 0)
(-1.26816e-06 6.67411e-07 0)
(-1.07205e-06 5.38558e-07 0)
(-4.78546e-07 3.50235e-07 0)
(4.98182e-07 5.20708e-07 0)
(1.35012e-06 8.4147e-07 0)
(1.67012e-06 9.026e-07 0)
(1.19022e-06 2.9259e-07 0)
(2.65577e-07 -1.01045e-06 0)
(-5.64702e-07 -2.47884e-06 0)
(-8.75064e-07 -3.25283e-06 0)
(-5.3765e-07 -2.79022e-06 0)
(1.35781e-07 -2.04944e-06 0)
(-1.66613e-07 -1.01964e-06 0)
(-9.31916e-07 -8.79991e-08 0)
(-1.52e-06 2.26183e-07 0)
(-9.4734e-07 1.38995e-06 0)
(-7.83699e-07 8.39454e-07 0)
(-1.86094e-06 -1.07576e-06 0)
(-2.41855e-06 -1.66396e-06 0)
(-1.81926e-06 -5.48883e-07 0)
(-9.51312e-07 3.00287e-07 0)
(-3.49329e-07 1.12819e-08 0)
(-1.10101e-07 -2.65812e-07 0)
(3.34387e-07 7.35813e-08 0)
(8.42089e-07 5.03702e-07 0)
(1.00111e-06 3.57544e-07 0)
(3.55727e-07 -5.5342e-07 0)
(-6.67689e-07 -1.88451e-06 0)
(-1.16893e-06 -2.89646e-06 0)
(-8.0487e-07 -3.07614e-06 0)
(1.10823e-07 -2.36629e-06 0)
(7.3738e-07 -1.29006e-06 0)
(4.69473e-07 -4.05244e-07 0)
(-6.21226e-07 1.16227e-07 0)
(-1.48002e-06 1.85665e-07 0)
(-1.28073e-06 8.9204e-07 0)
(-1.15038e-06 4.84471e-07 0)
(-2.28105e-06 -1.59223e-06 0)
(-2.98663e-06 -2.28169e-06 0)
(-2.04826e-06 -1.05022e-06 0)
(-6.60526e-07 -9.4731e-08 0)
(2.63554e-07 -3.82601e-07 0)
(2.06442e-07 -6.92775e-07 0)
(6.53888e-09 -2.01724e-07 0)
(1.53454e-07 1.83083e-07 0)
(1.24473e-07 -8.56163e-08 0)
(-4.00505e-07 -1.26779e-06 0)
(-1.20257e-06 -2.55992e-06 0)
(-1.39603e-06 -3.05814e-06 0)
(-6.01142e-07 -2.66445e-06 0)
(6.90648e-07 -1.7383e-06 0)
(1.33001e-06 -5.90915e-07 0)
(8.69811e-07 9.91383e-08 0)
(-4.33604e-07 3.89005e-07 0)
(-1.56713e-06 2.58442e-07 0)
(-1.36611e-06 2.92677e-07 0)
(-1.77731e-06 2.75279e-07 0)
(-2.67641e-06 -1.74378e-06 0)
(-3.37858e-06 -2.45949e-06 0)
(-2.15734e-06 -1.26254e-06 0)
(-2.51308e-07 -1.97591e-07 0)
(5.9432e-07 -3.93414e-07 0)
(3.15568e-07 -7.34905e-07 0)
(-3.76657e-07 -3.00327e-07 0)
(-6.18642e-07 6.07259e-08 0)
(-7.42617e-07 -3.65867e-07 0)
(-1.21029e-06 -1.74992e-06 0)
(-1.65733e-06 -3.07588e-06 0)
(-1.32667e-06 -3.096e-06 0)
(-5.80402e-08 -2.11388e-06 0)
(1.36695e-06 -9.05801e-07 0)
(2.01724e-06 -2.42883e-08 0)
(1.29923e-06 4.19791e-07 0)
(-3.13729e-07 4.57798e-07 0)
(-1.78828e-06 2.56458e-07 0)
(-1.32882e-06 -2.00946e-07 0)
(-2.11761e-06 5.93906e-08 0)
(-3.02718e-06 -1.57276e-06 0)
(-3.63778e-06 -2.15273e-06 0)
(-2.15332e-06 -1.07793e-06 0)
(1.95415e-07 -4.71322e-08 0)
(9.65504e-07 -3.65251e-07 0)
(2.36182e-07 -6.54118e-07 0)
(-9.40149e-07 -3.54458e-07 0)
(-1.46275e-06 -4.28799e-08 0)
(-1.66543e-06 -5.09631e-07 0)
(-1.92075e-06 -1.81487e-06 0)
(-1.84971e-06 -2.84262e-06 0)
(-9.14129e-07 -2.46274e-06 0)
(6.90339e-07 -1.2855e-06 0)
(2.14373e-06 -2.11252e-07 0)
(2.45672e-06 2.51889e-07 0)
(1.50251e-06 4.39179e-07 0)
(-2.6175e-07 3.84645e-07 0)
(-1.8803e-06 1.89826e-07 0)
(-1.21984e-06 -3.35965e-07 0)
(-2.44888e-06 -1.01581e-07 0)
(-3.20127e-06 -1.14829e-06 0)
(-3.69811e-06 -1.47971e-06 0)
(-2.01061e-06 -6.96799e-07 0)
(1.78217e-07 -2.51942e-08 0)
(9.40667e-07 -2.79206e-07 0)
(-2.24302e-09 -4.83233e-07 0)
(-1.31315e-06 -2.66791e-07 0)
(-2.07327e-06 -7.685e-08 0)
(-2.28002e-06 -4.3466e-07 0)
(-2.41102e-06 -1.39308e-06 0)
(-1.80111e-06 -1.97007e-06 0)
(-4.33866e-07 -1.7019e-06 0)
(1.33557e-06 -7.76616e-07 0)
(2.66769e-06 2.59585e-08 0)
(2.77641e-06 3.75169e-07 0)
(1.65798e-06 4.22083e-07 0)
(-1.89458e-07 3.64417e-07 0)
(-2.00818e-06 1.80322e-07 0)
(-1.09407e-06 -1.51492e-07 0)
(-2.60822e-06 -6.45962e-08 0)
(-3.23351e-06 -4.29847e-07 0)
(-3.63594e-06 -5.36577e-07 0)
(-1.97988e-06 -2.71995e-07 0)
(3.75362e-07 -1.98303e-08 0)
(1.02246e-06 -8.69196e-08 0)
(-4.85846e-08 -1.39736e-07 0)
(-1.63765e-06 -4.05982e-08 0)
(-2.51542e-06 -1.51355e-08 0)
(-2.67259e-06 -1.87851e-07 0)
(-2.62134e-06 -5.66791e-07 0)
(-1.8533e-06 -7.52016e-07 0)
(-6.44096e-08 -7.25947e-07 0)
(1.79626e-06 -3.21001e-07 0)
(3.01978e-06 1.54933e-08 0)
(3.0266e-06 2.1428e-07 0)
(1.73363e-06 2.04837e-07 0)
(-2.80706e-07 1.40378e-07 0)
(-2.12082e-06 4.41685e-08 0)
)
;

boundaryField
{
    sides
    {
        type            calculated;
        value           nonuniform List<vector> 
40
(
(-1.09407e-06 0 0)
(-2.60822e-06 0 0)
(-3.23351e-06 0 0)
(-3.63594e-06 0 0)
(-1.97988e-06 0 0)
(3.75362e-07 0 0)
(1.02246e-06 0 0)
(-4.85846e-08 0 0)
(-1.63765e-06 0 0)
(-2.51542e-06 0 0)
(-2.67259e-06 0 0)
(-2.62134e-06 0 0)
(-1.8533e-06 0 0)
(-6.44096e-08 0 0)
(1.79626e-06 0 0)
(3.01978e-06 0 0)
(3.0266e-06 0 0)
(1.73363e-06 0 0)
(-2.80706e-07 0 0)
(-2.12082e-06 0 0)
(-1.17534e-06 0 0)
(-2.49721e-06 0 0)
(-3.10349e-06 0 0)
(-3.51226e-06 0 0)
(-1.97859e-06 0 0)
(2.56105e-07 0 0)
(8.79471e-07 0 0)
(-1.47714e-07 0 0)
(-1.49658e-06 0 0)
(-2.32157e-06 0 0)
(-2.50359e-06 0 0)
(-2.54146e-06 0 0)
(-1.84641e-06 0 0)
(3.20191e-08 0 0)
(1.85693e-06 0 0)
(3.16242e-06 0 0)
(3.10159e-06 0 0)
(1.82246e-06 0 0)
(-2.94068e-07 0 0)
(-2.17208e-06 0 0)
)
;
    }
    inlet
    {
        type            calculated;
        value           uniform (0 0 0);
    }
    outlet
    {
        type            calculated;
        value           nonuniform List<vector> 
20
(
(-2.17208e-06 -3.47674e-08 0)
(-2.07366e-06 -1.54332e-07 0)
(-1.86173e-06 -3.2616e-07 0)
(-1.55501e-06 -3.15739e-07 0)
(-1.57132e-06 -2.34621e-07 0)
(-1.54872e-06 -2.0723e-07 0)
(-1.51109e-06 -2.994e-07 0)
(-1.47948e-06 -1.31873e-07 0)
(-1.4624e-06 -3.7021e-07 0)
(-2.09385e-06 -4.25219e-07 0)
(-2.16697e-06 3.99841e-07 0)
(-1.60747e-06 3.58171e-07 0)
(-1.5537e-06 1.44408e-07 0)
(-1.52e-06 2.26183e-07 0)
(-1.48002e-06 1.85665e-07 0)
(-1.56713e-06 2.58442e-07 0)
(-1.78828e-06 2.56458e-07 0)
(-1.8803e-06 1.89826e-07 0)
(-2.00818e-06 1.80322e-07 0)
(-2.12082e-06 4.41685e-08 0)
)
;
    }
    frontAndBack
    {
        type            empty;
    }
}


// ************************************************************************* //
