/*--------------------------------*- C++ -*----------------------------------*\
  =========                 |
  \\      /  F ield         | OpenFOAM: The Open Source CFD Toolbox
   \\    /   O peration     | Website:  https://openfoam.org
    \\  /    A nd           | Version:  9
     \\/     M anipulation  |
\*---------------------------------------------------------------------------*/
FoamFile
{
    format      ascii;
    class       volScalarField;
    location    "9";
    object      h_0;
}
// * * * * * * * * * * * * * * * * * * * * * * * * * * * * * * * * * * * * * //

dimensions      [0 1 0 0 0 0 0];

internalField   nonuniform List<scalar> 
400
(
0.0099946
0.00999466
0.00999625
0.00999966
0.0100024
0.0100021
0.00999975
0.00999755
0.0099971
0.0099982
0.00999985
0.0100021
0.010004
0.0100042
0.0100028
0.0100008
0.00999904
0.00999787
0.00999802
0.00999928
0.0099946
0.0099944
0.00999578
0.0099991
0.0100018
0.0100016
0.00999938
0.00999724
0.00999691
0.00999796
0.00999938
0.0100013
0.0100029
0.0100034
0.0100025
0.0100009
0.00999918
0.00999793
0.00999804
0.00999922
0.00999468
0.009994
0.0099951
0.00999816
0.0100008
0.010001
0.009999
0.00999728
0.00999704
0.00999786
0.00999877
0.00999991
0.0100012
0.010002
0.010002
0.0100012
0.00999979
0.00999863
0.0099984
0.00999932
0.00999494
0.00999378
0.0099944
0.00999705
0.00999952
0.00999991
0.00999855
0.00999725
0.00999721
0.00999766
0.00999788
0.00999822
0.00999918
0.0100005
0.0100015
0.0100012
0.0100001
0.00999886
0.00999864
0.00999939
0.00999529
0.00999371
0.00999395
0.00999606
0.00999817
0.00999892
0.00999825
0.00999755
0.00999752
0.00999739
0.00999682
0.00999642
0.00999716
0.00999897
0.0100006
0.0100012
0.0100004
0.0099993
0.00999887
0.00999943
0.00999561
0.00999389
0.00999387
0.0099954
0.00999708
0.00999813
0.00999812
0.00999797
0.00999782
0.00999701
0.00999569
0.00999477
0.00999538
0.00999747
0.00999958
0.0100005
0.00999993
0.00999906
0.00999878
0.00999936
0.00999591
0.00999441
0.00999422
0.00999526
0.00999658
0.00999781
0.00999857
0.00999879
0.00999804
0.00999586
0.00999348
0.00999277
0.00999434
0.00999732
0.00999971
0.0100001
0.00999941
0.00999858
0.00999857
0.00999936
0.00999616
0.00999514
0.00999492
0.00999564
0.00999668
0.00999805
0.00999955
0.0100003
0.00999912
0.0099952
0.00999009
0.00998866
0.00999199
0.00999712
0.0100002
0.0100003
0.00999872
0.00999784
0.00999819
0.00999934
0.00999631
0.0099958
0.00999574
0.00999633
0.00999736
0.00999902
0.0100009
0.0100013
0.009998
0.00999095
0.0099865
0.00998838
0.00999553
0.01
0.0100001
0.00999842
0.00999682
0.00999663
0.00999785
0.00999937
0.0099963
0.00999616
0.00999616
0.00999687
0.00999823
0.0100012
0.0100057
0.0100101
0.0100079
0.00898016
0.00895231
0.00997458
0.0100062
0.0100136
0.0100055
0.00999757
0.00999461
0.00999565
0.00999796
0.00999963
0.00999619
0.00999605
0.00999607
0.00999679
0.00999815
0.0100011
0.0100056
0.01001
0.0100078
0.00898009
0.00895223
0.00997448
0.0100061
0.0100136
0.0100055
0.00999751
0.00999465
0.00999563
0.00999792
0.00999962
0.009996
0.00999551
0.00999544
0.00999604
0.00999705
0.00999872
0.0100006
0.010001
0.00999768
0.00999066
0.00998614
0.00998805
0.00999522
0.00999975
0.0100001
0.00999814
0.0099965
0.0099965
0.00999779
0.00999936
0.0099957
0.00999464
0.00999441
0.00999509
0.00999614
0.00999756
0.00999908
0.00999983
0.00999861
0.0099947
0.00998961
0.00998818
0.00999156
0.00999682
0.00999985
0.01
0.00999858
0.00999774
0.00999808
0.00999928
0.00999525
0.00999372
0.00999347
0.00999446
0.00999578
0.00999705
0.00999783
0.00999803
0.00999727
0.00999511
0.00999281
0.00999216
0.0099938
0.00999687
0.0099993
0.00999998
0.00999924
0.00999851
0.00999849
0.00999929
0.00999472
0.00999298
0.0099929
0.00999437
0.00999606
0.00999714
0.00999719
0.00999707
0.00999696
0.00999618
0.00999494
0.00999411
0.00999477
0.00999693
0.00999916
0.0100001
0.00999975
0.00999894
0.00999873
0.00999935
0.00999416
0.00999258
0.00999278
0.00999483
0.00999692
0.00999772
0.00999719
0.00999653
0.00999656
0.00999647
0.00999594
0.00999565
0.00999641
0.0099983
0.0100001
0.0100007
0.00999992
0.00999888
0.00999864
0.00999935
0.00999357
0.00999242
0.00999302
0.00999565
0.00999809
0.00999867
0.00999738
0.00999621
0.00999619
0.00999671
0.00999698
0.00999735
0.00999841
0.00999985
0.0100008
0.0100007
0.00999954
0.00999841
0.00999832
0.00999928
0.00999313
0.0099924
0.00999346
0.00999658
0.00999925
0.0099994
0.00999758
0.00999591
0.00999578
0.00999669
0.00999766
0.00999888
0.0100004
0.0100013
0.0100013
0.0100005
0.00999908
0.00999797
0.00999808
0.00999924
0.00999282
0.00999255
0.00999394
0.00999734
0.0100001
0.01
0.00999783
0.00999581
0.00999558
0.00999673
0.00999824
0.0100001
0.0100019
0.0100023
0.0100015
0.0100001
0.00999869
0.00999765
0.00999786
0.00999918
0.0099926
0.00999262
0.00999419
0.00999772
0.0100005
0.0100002
0.00999787
0.00999564
0.0099953
0.00999658
0.00999842
0.0100008
0.0100027
0.010003
0.0100016
0.00999982
0.00999821
0.00999725
0.00999761
0.00999909
)
;

boundaryField
{
    sides
    {
        type            zeroGradient;
    }
    inlet
    {
        type            zeroGradient;
    }
    outlet
    {
        type            fixedValue;
        value           uniform 0.01;
    }
    frontAndBack
    {
        type            empty;
    }
}


// ************************************************************************* //
