/*--------------------------------*- C++ -*----------------------------------*\
  =========                 |
  \\      /  F ield         | OpenFOAM: The Open Source CFD Toolbox
   \\    /   O peration     | Website:  https://openfoam.org
    \\  /    A nd           | Version:  9
     \\/     M anipulation  |
\*---------------------------------------------------------------------------*/
FoamFile
{
    format      ascii;
    class       volVectorField;
    location    "9";
    object      hU;
}
// * * * * * * * * * * * * * * * * * * * * * * * * * * * * * * * * * * * * * //

dimensions      [0 2 -1 0 0 0 0];

internalField   nonuniform List<vector> 
400
(
(0.000999747 -1.17738e-07 0)
(0.0010003 -9.96319e-08 0)
(0.00100018 -9.15067e-08 0)
(0.000999929 -1.93469e-07 0)
(0.00100013 -1.88787e-07 0)
(0.00100058 -4.52761e-08 0)
(0.00100108 5.74559e-08 0)
(0.00100145 5.70763e-09 0)
(0.00100169 -1.32801e-07 0)
(0.00100184 -2.03515e-07 0)
(0.00100179 -1.42219e-07 0)
(0.00100153 -1.52335e-08 0)
(0.00100131 1.02736e-07 0)
(0.00100135 1.22657e-07 0)
(0.00100151 4.35212e-08 0)
(0.0010016 -8.168e-08 0)
(0.00100148 -1.78214e-07 0)
(0.00100123 -2.46297e-07 0)
(0.00100081 -2.5164e-07 0)
(0.00100074 -2.9956e-07 0)
(0.000999762 -2.74562e-07 0)
(0.00100035 -1.311e-07 0)
(0.00100027 -4.84629e-08 0)
(0.00100005 -2.84622e-07 0)
(0.00100026 -2.4051e-07 0)
(0.0010007 1.91404e-07 0)
(0.00100117 5.20087e-07 0)
(0.00100151 3.93683e-07 0)
(0.00100172 5.97635e-08 0)
(0.00100189 -7.64807e-08 0)
(0.0010019 1.19483e-07 0)
(0.00100168 5.15003e-07 0)
(0.00100145 8.79193e-07 0)
(0.00100141 9.91082e-07 0)
(0.00100149 8.34279e-07 0)
(0.00100152 5.10526e-07 0)
(0.00100143 2.21204e-07 0)
(0.00100118 8.62692e-09 0)
(0.00100083 -5.81402e-08 0)
(0.00100066 -8.35798e-08 0)
(0.000999779 -3.62724e-07 0)
(0.00100044 -1.45052e-07 0)
(0.00100039 -9.88494e-08 0)
(0.00100021 -5.23067e-07 0)
(0.00100037 -5.01095e-07 0)
(0.00100077 1.34764e-07 0)
(0.00100123 5.68e-07 0)
(0.00100159 3.0101e-07 0)
(0.0010018 -2.59256e-07 0)
(0.00100196 -4.31464e-07 0)
(0.00100201 -6.02738e-08 0)
(0.00100186 5.90652e-07 0)
(0.00100163 1.12329e-06 0)
(0.00100146 1.24472e-06 0)
(0.00100137 9.6513e-07 0)
(0.0010013 4.92895e-07 0)
(0.0010012 7.60324e-08 0)
(0.00100106 -1.91259e-07 0)
(0.0010008 -3.11091e-07 0)
(0.00100077 -2.98195e-07 0)
(0.000999807 -3.31578e-07 0)
(0.00100052 -2.41019e-08 0)
(0.00100055 -9.14188e-08 0)
(0.00100043 -6.95562e-07 0)
(0.00100056 -6.88919e-07 0)
(0.0010009 7.32941e-08 0)
(0.00100134 5.46498e-07 0)
(0.00100168 1.63933e-07 0)
(0.00100194 -5.15284e-07 0)
(0.00100221 -6.3992e-07 0)
(0.00100237 2.75962e-08 0)
(0.00100226 1.0253e-06 0)
(0.00100195 1.79832e-06 0)
(0.00100157 1.97397e-06 0)
(0.0010013 1.56758e-06 0)
(0.00100113 8.65678e-07 0)
(0.0010011 2.38672e-07 0)
(0.001001 -1.4339e-07 0)
(0.00100084 -3.14138e-07 0)
(0.00100075 -2.77736e-07 0)
(0.000999847 -1.98206e-07 0)
(0.00100059 1.78105e-07 0)
(0.00100069 -6.41595e-08 0)
(0.00100064 -8.59304e-07 0)
(0.00100071 -9.45139e-07 0)
(0.00100097 -2.29597e-07 0)
(0.00100141 1.75392e-07 0)
(0.00100182 -3.48638e-07 0)
(0.00100218 -1.06e-06 0)
(0.00100262 -1.04208e-06 0)
(0.00100297 -1.61582e-07 0)
(0.00100293 1.10243e-06 0)
(0.00100246 2.06754e-06 0)
(0.00100168 2.32171e-06 0)
(0.00100097 1.90793e-06 0)
(0.00100057 1.16497e-06 0)
(0.00100061 5.26889e-07 0)
(0.00100074 9.11543e-08 0)
(0.00100079 -1.06773e-07 0)
(0.00100083 -3.83686e-08 0)
(0.000999877 -2.5863e-08 0)
(0.00100058 3.57446e-07 0)
(0.00100079 -4.61041e-08 0)
(0.00100081 -9.80317e-07 0)
(0.00100079 -1.22039e-06 0)
(0.00100096 -6.80155e-07 0)
(0.00100139 -5.00837e-07 0)
(0.00100193 -1.20641e-06 0)
(0.00100256 -1.94784e-06 0)
(0.00100323 -1.56319e-06 0)
(0.00100377 6.88198e-08 0)
(0.00100379 2.03867e-06 0)
(0.00100312 3.18582e-06 0)
(0.00100196 2.99369e-06 0)
(0.00100094 1.87278e-06 0)
(0.00100041 7.03426e-07 0)
(0.00100049 3.18685e-08 0)
(0.0010006 -2.03333e-07 0)
(0.00100085 -2.39414e-07 0)
(0.00100076 -1.40248e-07 0)
(0.000999884 1.18629e-07 0)
(0.00100051 4.65964e-07 0)
(0.00100086 -4.62146e-08 0)
(0.00100089 -1.05907e-06 0)
(0.00100073 -1.45309e-06 0)
(0.00100074 -1.24333e-06 0)
(0.00100114 -1.39542e-06 0)
(0.0010019 -2.47098e-06 0)
(0.00100313 -3.37604e-06 0)
(0.00100468 -3.27588e-06 0)
(0.00100574 -7.54934e-07 0)
(0.00100535 2.89013e-06 0)
(0.00100346 5.35252e-06 0)
(0.00100105 5.19539e-06 0)
(0.000999583 3.29776e-06 0)
(0.000999387 1.37187e-06 0)
(0.00100014 4.45654e-07 0)
(0.00100062 1.86325e-07 0)
(0.00100102 2.80223e-07 0)
(0.00100071 4.24122e-07 0)
(0.000999878 1.92706e-07 0)
(0.00100041 4.86351e-07 0)
(0.00100083 -6.8927e-08 0)
(0.00100087 -1.00774e-06 0)
(0.00100051 -1.64229e-06 0)
(0.00100033 -1.84261e-06 0)
(0.00100053 -2.6012e-06 0)
(0.00100146 -3.73978e-06 0)
(0.00100297 -4.60022e-06 0)
(0.00100592 -2.9393e-06 0)
(0.00100904 6.73255e-07 0)
(0.00100911 4.5638e-06 0)
(0.0010055 5.13153e-06 0)
(0.00100074 3.13308e-06 0)
(0.000998197 9.88016e-07 0)
(0.000998363 -1.15668e-07 0)
(0.000999801 -2.18944e-07 0)
(0.00100063 -7.97521e-08 0)
(0.0010013 8.93911e-08 0)
(0.00100075 5.90638e-08 0)
(0.000999869 1.98221e-07 0)
(0.00100028 3.82231e-07 0)
(0.00100075 -2.47137e-08 0)
(0.00100065 -7.5711e-07 0)
(0.000999995 -1.38335e-06 0)
(0.000999461 -2.23564e-06 0)
(0.000999677 -4.28791e-06 0)
(0.00100122 -7.89128e-06 0)
(0.00100473 -1.34894e-05 0)
(0.00100953 -1.52895e-05 0)
(0.00101194 3.74595e-06 0)
(0.00100891 1.90026e-05 0)
(0.00100215 1.6069e-05 0)
(0.000997592 5.85155e-06 0)
(0.00099692 -2.27643e-07 0)
(0.000998377 -1.02689e-06 0)
(0.00100002 6.87571e-08 0)
(0.00100062 3.5569e-07 0)
(0.001001 3.00792e-07 0)
(0.00100026 2.10127e-07 0)
(0.000999664 9.36443e-08 0)
(0.0010005 1.85241e-07 0)
(0.00100026 3.34641e-09 0)
(0.00100106 -2.54318e-07 0)
(0.000998257 -6.30852e-07 0)
(0.00099909 -1.12954e-06 0)
(0.000993238 -2.87549e-06 0)
(0.000997316 -5.63589e-06 0)
(0.000991528 -1.16508e-05 0)
(0.00091583 -1.28734e-05 0)
(0.000951341 2.40605e-07 0)
(0.00101026 1.48022e-05 0)
(0.00099113 1.31736e-05 0)
(0.000984037 5.11186e-06 0)
(0.000989433 2.32285e-07 0)
(0.000996082 -5.10535e-07 0)
(0.000999328 9.28838e-08 0)
(0.00099929 -1.02541e-07 0)
(0.000997986 -1.19839e-07 0)
(0.00099783 -8.23833e-08 0)
(0.000999664 -5.74553e-08 0)
(0.0010005 -1.12456e-07 0)
(0.00100026 4.67958e-08 0)
(0.00100105 2.164e-07 0)
(0.000998246 4.76121e-07 0)
(0.000999074 8.73714e-07 0)
(0.000993226 2.56636e-06 0)
(0.000997307 5.31368e-06 0)
(0.000991525 1.13795e-05 0)
(0.000915823 1.26696e-05 0)
(0.000951328 -3.8791e-07 0)
(0.00101025 -1.49003e-05 0)
(0.000991114 -1.32654e-05 0)
(0.000984005 -5.27124e-06 0)
(0.000989401 -5.24641e-07 0)
(0.000996043 7.30878e-08 0)
(0.000999293 -6.61313e-07 0)
(0.000999256 -6.87122e-07 0)
(0.000997956 -7.90021e-07 0)
(0.000997777 -1.06678e-06 0)
(0.000999867 -1.73694e-07 0)
(0.00100027 -3.21631e-07 0)
(0.00100076 6.83637e-08 0)
(0.00100067 7.26855e-07 0)
(0.00100002 1.24744e-06 0)
(0.000999481 1.99786e-06 0)
(0.000999692 3.98765e-06 0)
(0.00100122 7.56645e-06 0)
(0.00100469 1.31901e-05 0)
(0.00100951 1.50418e-05 0)
(0.00101192 -3.91593e-06 0)
(0.00100886 -1.91233e-05 0)
(0.00100209 -1.61757e-05 0)
(0.000997524 -6.03603e-06 0)
(0.000996882 -5.53692e-08 0)
(0.000998325 5.62902e-07 0)
(0.000999887 -6.96243e-07 0)
(0.00100042 -1.19444e-06 0)
(0.0010008 -1.20141e-06 0)
(0.00100009 -1.32805e-06 0)
(0.000999877 -1.74526e-07 0)
(0.0010004 -4.316e-07 0)
(0.00100085 1.10982e-07 0)
(0.00100089 9.86275e-07 0)
(0.00100052 1.51361e-06 0)
(0.00100031 1.60238e-06 0)
(0.0010005 2.2824e-06 0)
(0.00100142 3.39588e-06 0)
(0.00100292 4.28529e-06 0)
(0.00100585 2.70046e-06 0)
(0.00100895 -8.52763e-07 0)
(0.00100902 -4.69572e-06 0)
(0.00100539 -5.25233e-06 0)
(0.0010006 -3.32252e-06 0)
(0.000998038 -1.27024e-06 0)
(0.000998143 -3.6607e-07 0)
(0.000999539 -3.92341e-07 0)
(0.0010004 -6.90055e-07 0)
(0.00100108 -8.86239e-07 0)
(0.00100046 -1.07805e-06 0)
(0.00099988 -9.10294e-08 0)
(0.00100051 -4.09087e-07 0)
(0.00100089 8.5937e-08 0)
(0.00100093 1.03703e-06 0)
(0.00100074 1.34382e-06 0)
(0.00100073 1.05542e-06 0)
(0.00100112 1.15992e-06 0)
(0.00100187 2.22373e-06 0)
(0.00100307 3.14772e-06 0)
(0.00100458 3.08373e-06 0)
(0.00100564 6.23664e-07 0)
(0.00100523 -2.99719e-06 0)
(0.00100333 -5.47355e-06 0)
(0.00100092 -5.38557e-06 0)
(0.000999416 -3.60617e-06 0)
(0.00099921 -1.8491e-06 0)
(0.000999941 -1.01432e-06 0)
(0.00100032 -9.00938e-07 0)
(0.0010007 -1.06522e-06 0)
(0.00100028 -1.45511e-06 0)
(0.000999867 6.46567e-08 0)
(0.00100058 -2.95925e-07 0)
(0.00100083 8.85207e-08 0)
(0.00100086 9.60811e-07 0)
(0.00100082 1.12272e-06 0)
(0.00100095 5.20943e-07 0)
(0.00100136 2.93852e-07 0)
(0.00100186 9.72652e-07 0)
(0.00100246 1.70655e-06 0)
(0.00100309 1.3496e-06 0)
(0.00100361 -2.22082e-07 0)
(0.00100361 -2.15509e-06 0)
(0.00100293 -3.29367e-06 0)
(0.00100174 -3.16007e-06 0)
(0.00100069 -2.12389e-06 0)
(0.00100012 -1.05879e-06 0)
(0.0010002 -4.69544e-07 0)
(0.00100026 -3.77278e-07 0)
(0.00100046 -4.07458e-07 0)
(0.00100024 -7.52202e-07 0)
(0.000999831 2.42493e-07 0)
(0.00100059 -1.15011e-07 0)
(0.00100074 1.04929e-07 0)
(0.00100071 8.52623e-07 0)
(0.00100075 8.71539e-07 0)
(0.00100097 6.89643e-08 0)
(0.00100137 -3.81068e-07 0)
(0.00100173 1.22394e-07 0)
(0.00100206 8.54061e-07 0)
(0.00100248 8.65346e-07 0)
(0.00100282 3.67999e-09 0)
(0.00100276 -1.2315e-06 0)
(0.00100227 -2.19735e-06 0)
(0.00100149 -2.50817e-06 0)
(0.00100078 -2.17443e-06 0)
(0.00100035 -1.57276e-06 0)
(0.00100033 -1.02719e-06 0)
(0.00100029 -7.82477e-07 0)
(0.00100029 -6.46656e-07 0)
(0.00100012 -9.30453e-07 0)
(0.000999791 3.6845e-07 0)
(0.00100052 8.31389e-08 0)
(0.0010006 1.37306e-07 0)
(0.00100051 7.0066e-07 0)
(0.00100059 6.40855e-07 0)
(0.00100088 -1.61669e-07 0)
(0.0010013 -6.58087e-07 0)
(0.00100162 -2.79618e-07 0)
(0.00100182 4.18384e-07 0)
(0.00100201 5.674e-07 0)
(0.00100213 -4.97282e-08 0)
(0.00100202 -1.01086e-06 0)
(0.0010017 -1.7829e-06 0)
(0.00100129 -2.00545e-06 0)
(0.00100098 -1.66063e-06 0)
(0.00100074 -1.07788e-06 0)
(0.00100066 -5.36794e-07 0)
(0.00100045 -2.94124e-07 0)
(0.00100026 -1.41446e-07 0)
(0.000999989 -3.89827e-07 0)
(0.000999762 3.91478e-07 0)
(0.00100044 1.88298e-07 0)
(0.00100044 1.27387e-07 0)
(0.00100029 5.04656e-07 0)
(0.00100044 4.1348e-07 0)
(0.00100081 -2.7156e-07 0)
(0.00100121 -7.38595e-07 0)
(0.00100151 -4.82318e-07 0)
(0.00100166 6.82337e-08 0)
(0.0010018 2.43588e-07 0)
(0.00100184 -1.21647e-07 0)
(0.00100165 -7.88485e-07 0)
(0.00100141 -1.34322e-06 0)
(0.00100121 -1.50921e-06 0)
(0.00100111 -1.2701e-06 0)
(0.00100097 -8.78162e-07 0)
(0.00100082 -5.33547e-07 0)
(0.00100049 -4.08509e-07 0)
(0.00100017 -3.30241e-07 0)
(0.000999823 -5.37315e-07 0)
(0.00099974 3.09948e-07 0)
(0.00100035 1.90034e-07 0)
(0.00100031 1.19999e-07 0)
(0.0010001 3.57796e-07 0)
(0.00100026 3.02932e-07 0)
(0.00100065 -1.46948e-07 0)
(0.0010011 -4.57646e-07 0)
(0.0010014 -2.89995e-07 0)
(0.00100156 9.02401e-08 0)
(0.00100164 2.58009e-07 0)
(0.00100159 7.09027e-08 0)
(0.00100135 -3.24997e-07 0)
(0.00100113 -6.66253e-07 0)
(0.00100107 -7.80935e-07 0)
(0.00100114 -6.30577e-07 0)
(0.00100108 -3.69175e-07 0)
(0.00100093 -1.19762e-07 0)
(0.00100051 -3.25298e-08 0)
(0.00100013 3.50413e-08 0)
(0.000999703 -1.23991e-07 0)
(0.000999729 1.01573e-07 0)
(0.00100031 3.40019e-08 0)
(0.00100025 -2.04871e-08 0)
(0.00100002 3.08985e-08 0)
(0.00100021 -1.23443e-08 0)
(0.00100063 -1.76446e-07 0)
(0.00100109 -3.01864e-07 0)
(0.00100139 -2.65914e-07 0)
(0.00100155 -1.47813e-07 0)
(0.00100164 -1.04174e-07 0)
(0.00100157 -1.56486e-07 0)
(0.00100127 -2.92591e-07 0)
(0.00100105 -4.13662e-07 0)
(0.00100105 -4.69692e-07 0)
(0.00100121 -4.27219e-07 0)
(0.00100118 -3.51863e-07 0)
(0.00100102 -2.60185e-07 0)
(0.00100052 -2.48529e-07 0)
(0.00100009 -2.20627e-07 0)
(0.000999541 -3.16557e-07 0)
)
;

boundaryField
{
    sides
    {
        type            slip;
    }
    inlet
    {
        type            fixedValue;
        value           uniform (0.001 0 0);
    }
    outlet
    {
        type            zeroGradient;
    }
    frontAndBack
    {
        type            empty;
    }
}


// ************************************************************************* //
