/*--------------------------------*- C++ -*----------------------------------*\
  =========                 |
  \\      /  F ield         | OpenFOAM: The Open Source CFD Toolbox
   \\    /   O peration     | Website:  https://openfoam.org
    \\  /    A nd           | Version:  9
     \\/     M anipulation  |
\*---------------------------------------------------------------------------*/
FoamFile
{
    format      ascii;
    class       surfaceScalarField;
    location    "9";
    object      phi_0;
}
// * * * * * * * * * * * * * * * * * * * * * * * * * * * * * * * * * * * * * //

dimensions      [0 4 -1 0 0 0 0];

internalField   nonuniform List<scalar> 
760
(
5.00317e-06
-1.18923e-09
5.00417e-06
-6.50722e-10
5.00258e-06
-6.66302e-10
5.0003e-06
-1.58351e-09
5.00044e-06
-1.10865e-09
5.00325e-06
5.4901e-10
5.00683e-06
1.6074e-09
5.00968e-06
9.88445e-10
5.01064e-06
-1.53094e-10
5.01056e-06
-5.73834e-10
5.00935e-06
-1.3814e-10
5.00726e-06
8.77522e-10
5.00618e-06
1.97459e-09
5.00649e-06
2.46546e-09
5.00706e-06
2.14449e-09
5.00667e-06
1.10113e-09
5.00602e-06
2.69848e-10
5.00513e-06
-3.66846e-10
5.00386e-06
-5.40053e-10
-8.21441e-10
5.00335e-06
-2.06276e-09
5.00451e-06
-8.74835e-10
5.00308e-06
-1.27135e-09
5.00104e-06
-3.16469e-09
5.0012e-06
-2.30976e-09
5.00369e-06
7.74961e-10
5.00718e-06
2.64447e-09
5.00969e-06
1.5286e-09
5.01064e-06
-6.62416e-10
5.01073e-06
-1.43193e-09
5.00983e-06
-2.10973e-10
5.00804e-06
1.90906e-09
5.00681e-06
3.95819e-09
5.00667e-06
4.74953e-09
5.00673e-06
4.07002e-09
5.00639e-06
2.28384e-09
5.00603e-06
5.61894e-10
5.0052e-06
-3.85712e-10
5.00384e-06
-9.31511e-10
-9.6229e-10
5.00359e-06
-2.00986e-09
5.0049e-06
-5.06398e-10
5.00377e-06
-1.50492e-09
5.00192e-06
-4.36946e-09
5.00185e-06
-3.46508e-09
5.0043e-06
5.72309e-10
5.00766e-06
3.03263e-09
5.00985e-06
1.15877e-09
5.01051e-06
-1.77921e-09
5.01059e-06
-2.52037e-09
5.01027e-06
-3.29031e-10
5.00909e-06
3.12796e-09
5.00762e-06
6.10335e-09
5.00657e-06
7.16927e-09
5.00583e-06
5.72184e-09
5.00533e-06
3.10909e-09
5.00523e-06
8.91358e-10
5.00499e-06
-5.82828e-10
5.00417e-06
-1.31636e-09
-1.25856e-09
5.0037e-06
-1.21868e-09
5.00535e-06
4.51603e-10
5.00462e-06
-1.40091e-09
5.00313e-06
-5.25712e-09
5.00307e-06
-4.6189e-09
5.00509e-06
-1.97125e-10
5.0081e-06
1.98113e-09
5.01009e-06
-4.89681e-10
5.01115e-06
-4.02241e-09
5.01168e-06
-4.12641e-09
5.01186e-06
-3.26956e-10
5.01086e-06
4.86346e-09
5.00865e-06
8.65223e-09
5.00661e-06
9.34768e-09
5.00535e-06
7.3179e-09
5.00503e-06
4.04936e-09
5.00536e-06
1.2948e-09
5.00515e-06
-3.95441e-10
5.00436e-06
-1.19867e-09
-8.02147e-10
5.00377e-06
-2.47463e-12
5.00545e-06
1.63407e-09
5.00521e-06
-1.01622e-09
5.00418e-06
-5.73471e-09
5.00402e-06
-5.80661e-09
5.00578e-06
-1.81469e-09
5.00852e-06
-4.41848e-10
5.01063e-06
-3.55042e-09
5.01247e-06
-7.59232e-09
5.01449e-06
-7.00207e-09
5.0149e-06
-1.88452e-10
5.01358e-06
7.02453e-09
5.00937e-06
1.28794e-08
5.0051e-06
1.31145e-08
5.00303e-06
9.0273e-09
5.0033e-06
4.0551e-09
5.00437e-06
9.5336e-10
5.00491e-06
-3.80386e-10
5.00448e-06
-7.45857e-10
-3.52197e-10
5.00344e-06
1.1334e-09
5.00531e-06
2.65598e-09
5.00547e-06
-6.55844e-10
5.00473e-06
-5.88139e-09
5.00449e-06
-6.85269e-09
5.00598e-06
-4.37625e-09
5.00873e-06
-4.26682e-09
5.01196e-06
-8.57805e-09
5.01482e-06
-1.2162e-08
5.01804e-06
-1.06278e-08
5.01979e-06
-1.41366e-09
5.01643e-06
1.10589e-08
5.01028e-06
1.87882e-08
5.00491e-06
1.75739e-08
5.00299e-06
1.0478e-08
5.00348e-06
3.7311e-09
5.00454e-06
1.62594e-10
5.00504e-06
-5.41736e-10
5.00435e-06
4.18828e-11
7.7105e-10
5.00293e-06
1.86133e-09
5.00502e-06
3.12979e-09
5.00543e-06
-4.53325e-10
5.00465e-06
-5.53736e-09
5.00395e-06
-7.4934e-09
5.00436e-06
-6.95285e-09
5.00731e-06
-9.49281e-09
5.01337e-06
-1.68045e-08
5.02251e-06
-2.2553e-08
5.02987e-06
-1.80152e-08
5.02803e-06
8.50717e-10
5.01638e-06
2.2954e-08
5.00407e-06
3.08086e-08
4.9987e-06
2.22558e-08
5.00053e-06
8.39554e-09
5.00328e-06
1.43519e-09
5.0047e-06
-9.48496e-10
5.00465e-06
-3.45804e-10
5.0038e-06
9.98553e-10
1.40517e-09
5.00234e-06
1.95893e-09
5.00446e-06
2.86865e-09
5.00486e-06
-3.77926e-10
5.00383e-06
-4.8901e-09
5.00254e-06
-7.78565e-09
5.00168e-06
-9.07561e-09
5.00359e-06
-1.46072e-08
5.00871e-06
-2.40884e-08
5.02342e-06
-3.7625e-08
5.055e-06
-4.88948e-08
5.04918e-06
6.32127e-09
5.02231e-06
4.94852e-08
4.99761e-06
5.52724e-08
4.99351e-06
2.6215e-08
5.0004e-06
1.52386e-09
5.00454e-06
-2.76285e-09
5.00448e-06
-9.71594e-10
5.00376e-06
1.37117e-10
5.00351e-06
1.12742e-09
9.50909e-10
5.00181e-06
1.36428e-09
5.00388e-06
1.85363e-09
5.00395e-06
-5.83415e-11
5.00149e-06
-2.88051e-09
4.99761e-06
-5.74574e-09
4.99515e-06
-1.02038e-08
4.99886e-06
-2.22482e-08
5.01536e-06
-4.26934e-08
5.05425e-06
-7.60166e-08
5.06635e-06
-5.99101e-08
5.04888e-06
2.38808e-08
4.99504e-06
1.02403e-07
4.98839e-06
6.17373e-08
4.99569e-06
1.93901e-08
5.0002e-06
-2.47876e-09
5.00261e-06
-4.75974e-09
5.00182e-06
-9.03794e-11
5.00158e-06
1.31285e-10
5.00196e-06
3.45718e-10
3.42609e-10
5.00165e-06
1.13256e-10
5.0039e-06
1.73818e-10
5.004e-06
8.0303e-11
5.00085e-06
-1.98355e-10
4.99362e-06
-5.32977e-10
4.98035e-06
-7.81943e-10
4.95491e-06
-9.00495e-10
4.91134e-06
-9.09173e-10
4.83709e-06
-7.36737e-10
4.77941e-06
-5.42043e-10
4.80352e-06
-4.43216e-10
4.90515e-06
-2.96635e-10
4.96706e-06
-2.48991e-10
4.98766e-06
-4.75398e-10
4.9865e-06
-8.82867e-10
4.9835e-06
-1.28781e-09
4.98556e-06
-1.67901e-09
4.98748e-06
-2.05501e-09
4.98959e-06
-2.20804e-09
-2.81501e-09
5.00166e-06
-1.19067e-09
5.00391e-06
-1.54287e-09
5.00397e-06
1.7589e-10
5.00082e-06
2.52158e-09
4.99357e-06
4.77508e-09
4.98029e-06
8.69228e-09
4.95487e-06
2.0485e-08
4.91132e-06
4.08763e-08
4.83708e-06
7.45034e-08
4.77928e-06
5.89089e-08
4.80355e-06
-2.48939e-08
4.90514e-06
-1.02969e-07
4.96696e-06
-6.21898e-08
4.9873e-06
-2.01346e-08
4.98659e-06
2.88067e-10
4.98324e-06
2.49305e-09
4.98531e-06
-3.28857e-09
4.98743e-06
-4.49812e-09
4.98941e-06
-4.53645e-09
-5.75394e-09
5.00181e-06
-1.87283e-09
5.0039e-06
-2.64519e-09
5.00397e-06
4.5563e-10
5.00159e-06
4.5444e-09
4.99777e-06
6.87139e-09
4.99524e-06
7.74036e-09
4.99889e-06
1.30336e-08
5.01525e-06
2.24677e-08
5.05401e-06
3.61616e-08
5.06642e-06
4.75575e-08
5.04853e-06
-6.63214e-09
4.9947e-06
-5.00669e-08
4.98811e-06
-5.58878e-08
4.99572e-06
-2.74819e-08
4.99986e-06
-3.71658e-09
5.00193e-06
7.85937e-10
5.00082e-06
-2.07339e-09
5.00056e-06
-4.50182e-09
5.0012e-06
-5.46774e-09
-6.29927e-09
5.00235e-06
-1.78564e-09
5.00451e-06
-2.95231e-09
5.00492e-06
5.18209e-10
5.00393e-06
5.24192e-09
5.00253e-06
6.75878e-09
5.00158e-06
5.81176e-09
5.00342e-06
8.15206e-09
5.00851e-06
1.53338e-08
5.02315e-06
2.11924e-08
5.05447e-06
1.69362e-08
5.04886e-06
-1.63899e-09
5.02192e-06
-2.352e-08
4.9971e-06
-3.14479e-08
4.99277e-06
-2.32167e-08
4.9991e-06
-9.7568e-09
5.00338e-06
-3.4174e-09
5.00378e-06
-1.97724e-09
5.00261e-06
-3.29309e-09
5.00229e-06
-5.1657e-09
-6.56179e-09
5.00298e-06
-9.95747e-10
5.0051e-06
-2.41087e-09
5.00552e-06
7.56072e-10
5.00476e-06
5.62718e-09
5.00395e-06
6.21143e-09
5.00427e-06
3.42725e-09
5.00718e-06
3.13112e-09
5.01314e-06
7.35156e-09
5.02214e-06
1.09998e-08
5.02944e-06
9.66687e-09
5.02749e-06
6.50866e-10
5.01582e-06
-1.16049e-08
5.00339e-06
-1.93997e-08
4.99798e-06
-1.85204e-08
4.99985e-06
-1.19462e-08
5.00237e-06
-5.7261e-09
5.0033e-06
-3.04473e-09
5.00308e-06
-2.99722e-09
5.0019e-06
-3.86215e-09
-5.67036e-09
5.00352e-06
1.84981e-10
5.00544e-06
-1.39946e-09
5.00564e-06
1.14735e-09
5.00493e-06
5.56629e-09
5.0046e-06
5.25271e-09
5.00591e-06
1.04374e-09
5.00846e-06
-4.86583e-10
5.01151e-06
2.52081e-09
5.01423e-06
6.64791e-09
5.01738e-06
6.13221e-09
5.01894e-06
-4.19716e-10
5.01552e-06
-7.49979e-09
5.00927e-06
-1.33609e-08
5.00375e-06
-1.3988e-08
5.00167e-06
-1.03942e-08
5.00219e-06
-6.1987e-09
5.00299e-06
-3.58186e-09
5.00309e-06
-2.88866e-09
5.00201e-06
-2.72157e-09
-4.32576e-09
5.00387e-06
1.40542e-09
5.0056e-06
-2.40687e-10
5.00546e-06
1.5024e-09
5.0044e-06
5.14614e-09
5.00425e-06
4.19287e-09
5.0057e-06
-3.67146e-10
5.00817e-06
-2.81895e-09
5.01009e-06
-2.81019e-10
5.01193e-06
3.18843e-09
5.01387e-06
3.34962e-09
5.01405e-06
-3.93126e-11
5.01272e-06
-5.25976e-09
5.00855e-06
-9.10939e-09
5.00422e-06
-1.02558e-08
5.00199e-06
-8.52073e-09
5.00194e-06
-5.89889e-09
5.00255e-06
-3.43876e-09
5.00251e-06
-2.43313e-09
5.00147e-06
-1.84468e-09
-3.30873e-09
5.0038e-06
2.14541e-09
5.00556e-06
6.63056e-10
5.00489e-06
1.64376e-09
5.0034e-06
4.35343e-09
5.00316e-06
3.1131e-09
5.00501e-06
-1.20262e-09
5.00787e-06
-3.62896e-09
5.00965e-06
-1.7981e-09
5.01033e-06
1.27021e-09
5.01053e-06
2.19377e-09
5.01088e-06
-1.23924e-10
5.00971e-06
-3.40336e-09
5.00738e-06
-6.41243e-09
5.00499e-06
-7.73883e-09
5.00352e-06
-6.80101e-09
5.00303e-06
-4.62331e-09
5.00292e-06
-2.62332e-09
5.00232e-06
-1.78073e-09
5.00104e-06
-1.22245e-09
-2.39894e-09
5.00375e-06
2.11964e-09
5.00514e-06
1.02556e-09
5.00412e-06
1.34712e-09
5.00229e-06
3.0885e-09
5.00225e-06
2.05205e-09
5.00428e-06
-1.31077e-09
5.00731e-06
-3.33882e-09
5.00927e-06
-2.06917e-09
5.00981e-06
2.94718e-10
5.00991e-06
1.09383e-09
5.00937e-06
8.40995e-11
5.0081e-06
-2.18736e-09
5.0065e-06
-4.21313e-09
5.00536e-06
-5.13305e-09
5.00441e-06
-4.50994e-09
5.00358e-06
-3.06562e-09
5.00299e-06
-1.60803e-09
5.00196e-06
-1.13057e-09
5.00029e-06
-7.57784e-10
-1.70284e-09
5.00344e-06
1.41718e-09
5.00474e-06
7.68053e-10
5.00334e-06
8.10727e-10
5.0012e-06
1.67991e-09
5.00107e-06
1.04929e-09
5.00361e-06
-7.5083e-10
5.00677e-06
-1.84957e-09
5.00906e-06
-1.28153e-09
5.00962e-06
-9.44025e-11
5.00929e-06
5.43705e-10
5.00829e-06
6.47562e-11
5.00645e-06
-9.81054e-10
5.00517e-06
-2.06379e-09
5.00504e-06
-2.53874e-09
5.0049e-06
-2.37044e-09
5.00406e-06
-1.6843e-09
5.00307e-06
-8.27594e-10
5.00172e-06
-5.83784e-10
4.99975e-06
-4.21702e-10
-1.05542e-09
5.00334e-06
5.00456e-06
5.00298e-06
5.00069e-06
5.00075e-06
5.00332e-06
5.0067e-06
5.00918e-06
5.00988e-06
5.00961e-06
5.00813e-06
5.00595e-06
5.00486e-06
5.00507e-06
5.00533e-06
5.00451e-06
5.00326e-06
5.00149e-06
4.99932e-06
)
;

boundaryField
{
    sides
    {
        type            calculated;
        value           uniform 0;
    }
    inlet
    {
        type            calculated;
        value           nonuniform List<scalar> 
20
(
-5e-06
-5e-06
-5e-06
-5e-06
-5e-06
-5e-06
-5e-06
-5e-06
-5e-06
-5e-06
-5e-06
-5e-06
-5e-06
-5e-06
-5e-06
-5e-06
-5e-06
-5e-06
-5e-06
-5e-06
)
;
    }
    outlet
    {
        type            calculated;
        value           nonuniform List<scalar> 
20
(
5.00381e-06
5.00313e-06
5.00372e-06
5.00338e-06
5.00386e-06
5.00318e-06
5.00324e-06
5.004e-06
5.00245e-06
4.9926e-06
4.9923e-06
5.00174e-06
5.0026e-06
5.00108e-06
5.00062e-06
5.00015e-06
4.99968e-06
4.99892e-06
4.99828e-06
4.99732e-06
)
;
    }
    frontAndBack
    {
        type            empty;
        value           nonuniform List<scalar> 0();
    }
}


// ************************************************************************* //
