/*--------------------------------*- C++ -*----------------------------------*\
  =========                 |
  \\      /  F ield         | OpenFOAM: The Open Source CFD Toolbox
   \\    /   O peration     | Website:  https://openfoam.org
    \\  /    A nd           | Version:  9
     \\/     M anipulation  |
\*---------------------------------------------------------------------------*/
FoamFile
{
    format      ascii;
    class       volVectorField;
    location    "9";
    object      U;
}
// * * * * * * * * * * * * * * * * * * * * * * * * * * * * * * * * * * * * * //

dimensions      [0 1 -1 0 0 0 0];

internalField   nonuniform List<vector> 
400
(
(0.100035 -1.1781e-05 0)
(0.100083 -9.96851e-06 0)
(0.100046 -9.15322e-06 0)
(0.0999841 -1.93452e-05 0)
(0.09999 -1.88744e-05 0)
(0.100052 -4.52735e-06 0)
(0.10013 5.74685e-06 0)
(0.100183 5.70977e-07 0)
(0.1002 -1.32843e-05 0)
(0.100199 -2.03547e-05 0)
(0.100176 -1.42213e-05 0)
(0.10013 -1.52299e-06 0)
(0.100098 1.02702e-05 0)
(0.100107 1.22623e-05 0)
(0.100135 4.35144e-06 0)
(0.100156 -8.16764e-06 0)
(0.100155 -1.78227e-05 0)
(0.100137 -2.46332e-05 0)
(0.100092 -2.51667e-05 0)
(0.100077 -2.99569e-05 0)
(0.100039 -2.74734e-05 0)
(0.100093 -1.31177e-05 0)
(0.10006 -4.8479e-06 0)
(0.100003 -2.84615e-05 0)
(0.100008 -2.40468e-05 0)
(0.100067 1.91398e-05 0)
(0.10014 5.20207e-05 0)
(0.100188 3.93829e-05 0)
(0.100204 5.97823e-06 0)
(0.100207 -7.6494e-06 0)
(0.100192 1.19485e-05 0)
(0.100153 5.14928e-05 0)
(0.100121 8.78983e-05 0)
(0.100118 9.90856e-05 0)
(0.100134 8.34152e-05 0)
(0.100148 5.10501e-05 0)
(0.100151 2.2122e-05 0)
(0.100133 8.62822e-07 0)
(0.100094 -5.81466e-06 0)
(0.10007 -8.35828e-06 0)
(0.100044 -3.62963e-05 0)
(0.100108 -1.45146e-05 0)
(0.100081 -9.88912e-06 0)
(0.100029 -5.23111e-05 0)
(0.100028 -5.0105e-05 0)
(0.100078 1.34766e-05 0)
(0.100147 5.68134e-05 0)
(0.100192 3.01109e-05 0)
(0.100208 -2.59327e-05 0)
(0.100214 -4.3154e-05 0)
(0.100211 -6.028e-06 0)
(0.100187 5.90657e-05 0)
(0.100154 0.000112319 0)
(0.100132 0.000124455 0)
(0.100123 9.64993e-05 0)
(0.100121 4.92854e-05 0)
(0.100123 7.60348e-06 0)
(0.100117 -1.91279e-05 0)
(0.10009 -3.11121e-05 0)
(0.10008 -2.98205e-05 0)
(0.100048 -3.318e-05 0)
(0.100122 -2.41188e-06 0)
(0.100107 -9.14662e-06 0)
(0.100064 -6.9571e-05 0)
(0.100059 -6.88939e-05 0)
(0.100097 7.32994e-06 0)
(0.100156 5.46616e-05 0)
(0.100196 1.63977e-05 0)
(0.100217 -5.15403e-05 0)
(0.100241 -6.40046e-05 0)
(0.100258 2.7602e-06 0)
(0.100245 0.000102549 0)
(0.100204 0.000179848 0)
(0.100153 0.00019739 0)
(0.100119 0.000156741 0)
(0.100105 8.65608e-05 0)
(0.100112 2.38678e-05 0)
(0.10011 -1.43405e-05 0)
(0.100094 -3.14169e-05 0)
(0.100079 -2.77747e-05 0)
(0.10005 -1.98336e-05 0)
(0.100131 1.78233e-05 0)
(0.100128 -6.41975e-06 0)
(0.100098 -8.59594e-05 0)
(0.100086 -9.4528e-05 0)
(0.100109 -2.29626e-05 0)
(0.100159 1.75424e-05 0)
(0.100202 -3.48708e-05 0)
(0.100236 -0.000106019 0)
(0.100285 -0.000104232 0)
(0.10033 -1.61636e-05 0)
(0.10033 0.000110284 0)
(0.100273 0.00020681 0)
(0.100177 0.000232191 0)
(0.100091 0.000190782 0)
(0.100049 0.000116487 0)
(0.100061 5.26887e-05 0)
(0.100082 9.11619e-06 0)
(0.100089 -1.06784e-05 0)
(0.100088 -3.83703e-06 0)
(0.100049 -2.58789e-06 0)
(0.100128 3.57696e-05 0)
(0.100141 -4.61325e-06 0)
(0.100123 -9.8073e-05 0)
(0.100103 -0.000122068 0)
(0.100111 -6.8026e-05 0)
(0.100153 -5.00909e-05 0)
(0.100206 -0.000120657 0)
(0.100272 -0.000194815 0)
(0.100352 -0.000156364 0)
(0.100422 6.88504e-06 0)
(0.100432 0.000203974 0)
(0.100356 0.00031872 0)
(0.100218 0.000299434 0)
(0.100097 0.000187284 0)
(0.100038 7.03406e-05 0)
(0.100051 3.18694e-06 0)
(0.10007 -2.03354e-05 0)
(0.100097 -2.39442e-05 0)
(0.100081 -1.40256e-05 0)
(0.100044 1.18694e-05 0)
(0.100115 4.66263e-05 0)
(0.100145 -4.62418e-06 0)
(0.100134 -0.000105955 0)
(0.100101 -0.00014535 0)
(0.100088 -0.00012435 0)
(0.100119 -0.000139549 0)
(0.100194 -0.000247108 0)
(0.100329 -0.000337659 0)
(0.10051 -0.000327726 0)
(0.100641 -7.55433e-05 0)
(0.100607 0.000289221 0)
(0.1004 0.00053554 0)
(0.100129 0.00051966 0)
(0.0999603 0.000329783 0)
(0.0999388 0.000137187 0)
(0.100021 4.45687e-05 0)
(0.100077 1.86352e-05 0)
(0.100116 2.80263e-05 0)
(0.100077 4.24149e-05 0)
(0.100036 1.92799e-05 0)
(0.100096 4.86618e-05 0)
(0.100135 -6.8963e-06 0)
(0.100129 -0.000100816 0)
(0.100078 -0.000164272 0)
(0.10004 -0.000184274 0)
(0.100045 -0.0002601 0)
(0.100136 -0.00037394 0)
(0.100306 -0.000460064 0)
(0.100643 -0.00029408 0)
(0.101005 6.73929e-05 0)
(0.101024 0.000456891 0)
(0.100628 0.000513555 0)
(0.100101 0.000313392 0)
(0.0998166 9.87985e-05 0)
(0.099833 -1.15664e-05 0)
(0.0999918 -2.1897e-05 0)
(0.100083 -7.97683e-06 0)
(0.100147 8.94067e-06 0)
(0.100081 5.90676e-06 0)
(0.100029 1.98304e-05 0)
(0.100074 3.82407e-05 0)
(0.100119 -2.47246e-06 0)
(0.1001 -7.57376e-05 0)
(0.100018 -0.00013836 0)
(0.0999412 -0.000223553 0)
(0.0999438 -0.000428689 0)
(0.100102 -0.000788975 0)
(0.100497 -0.00134927 0)
(0.10105 -0.0015304 0)
(0.10133 0.000375096 0)
(0.101006 0.00190242 0)
(0.100258 0.0016076 0)
(0.0997587 0.000585152 0)
(0.09969 -2.27639e-05 0)
(0.0998538 -0.000102705 0)
(0.100034 6.87786e-06 0)
(0.100094 3.55804e-05 0)
(0.10012 3.00853e-05 0)
(0.100032 2.10139e-05 0)
(0.100005 9.3681e-06 0)
(0.100091 1.85317e-05 0)
(0.100065 3.34773e-07 0)
(0.100136 -2.54394e-05 0)
(0.0998348 -6.3091e-05 0)
(0.0998809 -0.000112923 0)
(0.0992521 -0.000287341 0)
(0.0996259 -0.000562992 0)
(0.0990808 -0.00116423 0)
(0.101992 -0.00143365 0)
(0.106268 2.68764e-05 0)
(0.101281 0.00148396 0)
(0.0990509 0.00131653 0)
(0.0982699 0.000510491 0)
(0.0988876 2.32154e-05 0)
(0.0996323 -5.10659e-05 0)
(0.0999864 9.29337e-06 0)
(0.0999702 -1.02583e-05 0)
(0.0998172 -1.19861e-05 0)
(0.0997863 -8.23861e-06 0)
(0.100006 -5.74783e-06 0)
(0.100092 -1.12504e-05 0)
(0.100066 4.68147e-06 0)
(0.100136 2.16467e-05 0)
(0.0998348 4.7617e-05 0)
(0.0998804 8.73477e-05 0)
(0.0992518 0.000256453 0)
(0.099626 0.000530811 0)
(0.0990812 0.00113713 0)
(0.101992 0.00141096 0)
(0.106267 -4.33312e-05 0)
(0.101281 -0.0014938 0)
(0.0990501 -0.00132572 0)
(0.098267 -0.000526409 0)
(0.0988849 -5.24348e-05 0)
(0.0996287 7.31057e-06 0)
(0.0999825 -6.61665e-05 0)
(0.0999666 -6.87404e-05 0)
(0.0998148 -7.90172e-05 0)
(0.0997816 -0.000106683 0)
(0.100032 -1.73772e-05 0)
(0.100076 -3.21788e-05 0)
(0.100123 6.83958e-06 0)
(0.100105 7.27134e-05 0)
(0.100024 0.000124771 0)
(0.0999466 0.000199783 0)
(0.0999487 0.000398683 0)
(0.100106 0.000756524 0)
(0.100496 0.00131937 0)
(0.10105 0.00150566 0)
(0.101331 -0.000392131 0)
(0.101004 -0.00191456 0)
(0.100256 -0.00161832 0)
(0.0997538 -0.000603611 0)
(0.099686 -5.5368e-06 0)
(0.0998511 5.63007e-05 0)
(0.100023 -6.96479e-05 0)
(0.100075 -0.000119484 0)
(0.100101 -0.000120166 0)
(0.100016 -0.000132813 0)
(0.100041 -1.74619e-05 0)
(0.1001 -4.31859e-05 0)
(0.100142 1.11046e-05 0)
(0.100136 9.86743e-05 0)
(0.100084 0.000151409 0)
(0.100044 0.000160258 0)
(0.100048 0.000228235 0)
(0.100137 0.000339571 0)
(0.100307 0.00042859 0)
(0.100641 0.000270197 0)
(0.101001 -8.53655e-05 0)
(0.10102 -0.000470119 0)
(0.100621 -0.000525663 0)
(0.10009 -0.000332352 0)
(0.0998046 -0.000127025 0)
(0.0998136 -3.66067e-05 0)
(0.0999694 -3.92402e-05 0)
(0.100062 -6.90212e-05 0)
(0.100127 -8.86408e-05 0)
(0.100053 -0.000107813 0)
(0.10005 -9.10861e-06 0)
(0.100122 -4.09379e-05 0)
(0.100155 8.59942e-06 0)
(0.100146 0.000103758 0)
(0.100111 0.00013443 0)
(0.100094 0.000105565 0)
(0.100125 0.000116007 0)
(0.100199 0.0002224 0)
(0.100331 0.000314847 0)
(0.100508 0.000308525 0)
(0.100636 6.24116e-05 0)
(0.100601 -0.000299953 0)
(0.100392 -0.000547677 0)
(0.100119 -0.000538706 0)
(0.0999473 -0.000360638 0)
(0.0999224 -0.000184912 0)
(0.100002 -0.00010144 0)
(0.100048 -9.01075e-05 0)
(0.100085 -0.000106538 0)
(0.100035 -0.00014552 0)
(0.100058 6.47025e-06 0)
(0.100137 -2.9616e-05 0)
(0.100155 8.8584e-06 0)
(0.100139 9.61317e-05 0)
(0.100116 0.000112311 0)
(0.100121 5.21074e-05 0)
(0.100159 2.9392e-05 0)
(0.100209 9.72868e-05 0)
(0.100271 0.000170698 0)
(0.100347 0.00013501 0)
(0.100413 -2.22197e-05 0)
(0.100421 -0.000215637 0)
(0.100342 -0.00032953 0)
(0.100201 -0.000316092 0)
(0.100076 -0.000212405 0)
(0.100012 -0.00010588 0)
(0.100025 -4.69565e-05 0)
(0.100037 -3.77321e-05 0)
(0.100058 -4.07507e-05 0)
(0.10003 -7.52245e-05 0)
(0.100061 2.42681e-05 0)
(0.100142 -1.15107e-05 0)
(0.100145 1.05003e-05 0)
(0.100117 8.53017e-05 0)
(0.100102 8.71779e-05 0)
(0.100121 6.89807e-06 0)
(0.100166 -3.81177e-05 0)
(0.100204 1.22431e-05 0)
(0.100234 8.54304e-05 0)
(0.100281 8.65627e-05 0)
(0.100324 3.68154e-07 0)
(0.100321 -0.000123206 0)
(0.100262 -0.000219811 0)
(0.100164 -0.000250855 0)
(0.100078 -0.000217442 0)
(0.100031 -0.00015727 0)
(0.100038 -0.000102723 0)
(0.100041 -7.8257e-05 0)
(0.10004 -6.46732e-05 0)
(0.100017 -9.30498e-05 0)
(0.10006 3.68748e-05 0)
(0.100136 8.32087e-06 0)
(0.100126 1.37397e-05 0)
(0.100086 7.0091e-05 0)
(0.100075 6.40961e-05 0)
(0.100108 -1.61701e-05 0)
(0.100163 -6.58307e-05 0)
(0.1002 -2.79724e-05 0)
(0.100216 4.18524e-05 0)
(0.100231 5.67569e-05 0)
(0.100244 -4.97434e-06 0)
(0.10023 -0.000101114 0)
(0.100187 -0.00017832 0)
(0.100132 -0.000200551 0)
(0.100093 -0.000166055 0)
(0.100071 -0.000107786 0)
(0.100074 -5.36836e-05 0)
(0.10006 -2.94168e-05 0)
(0.100038 -1.41464e-05 0)
(0.100004 -3.89846e-05 0)
(0.100058 3.91799e-05 0)
(0.100125 1.8845e-05 0)
(0.100103 1.27461e-05 0)
(0.100053 5.04779e-05 0)
(0.100051 4.13508e-05 0)
(0.100096 -2.71603e-05 0)
(0.100158 -7.38864e-05 0)
(0.100197 -4.82539e-05 0)
(0.100206 6.82609e-06 0)
(0.10021 2.4366e-05 0)
(0.100206 -1.21674e-05 0)
(0.100176 -7.88571e-05 0)
(0.100141 -0.000134322 0)
(0.100116 -0.000150913 0)
(0.100106 -0.000127004 0)
(0.100097 -8.78162e-05 0)
(0.100093 -5.33604e-05 0)
(0.100066 -4.08579e-05 0)
(0.10003 -3.30284e-05 0)
(0.0999867 -5.37339e-05 0)
(0.100055 3.102e-05 0)
(0.100111 1.9018e-05 0)
(0.100083 1.20061e-05 0)
(0.100025 3.57851e-05 0)
(0.100025 3.02929e-05 0)
(0.100079 -1.46968e-05 0)
(0.100149 -4.57824e-05 0)
(0.100192 -2.90145e-05 0)
(0.1002 9.02799e-06 0)
(0.100194 2.58085e-05 0)
(0.100173 7.09122e-06 0)
(0.100132 -3.24987e-05 0)
(0.1001 -6.66166e-05 0)
(0.100095 -7.80845e-05 0)
(0.100108 -6.30542e-05 0)
(0.10011 -3.69183e-05 0)
(0.100105 -1.19777e-05 0)
(0.10007 -3.25359e-06 0)
(0.100026 3.5046e-06 0)
(0.0999748 -1.23997e-05 0)
(0.100053 1.01655e-05 0)
(0.100105 3.4027e-06 0)
(0.100073 -2.0497e-06 0)
(0.100012 3.09017e-06 0)
(0.100016 -1.23438e-06 0)
(0.100076 -1.76468e-05 0)
(0.10015 -3.01987e-05 0)
(0.100195 -2.66063e-05 0)
(0.100204 -1.47886e-05 0)
(0.100195 -1.04207e-05 0)
(0.100167 -1.56501e-05 0)
(0.100117 -2.9256e-05 0)
(0.100085 -4.13579e-05 0)
(0.10009 -4.69618e-05 0)
(0.100116 -4.272e-05 0)
(0.100124 -3.51884e-05 0)
(0.100118 -2.60226e-05 0)
(0.100073 -2.4858e-05 0)
(0.100024 -2.20661e-05 0)
(0.099959 -3.16572e-05 0)
)
;

boundaryField
{
    sides
    {
        type            calculated;
        value           nonuniform List<vector> 
40
(
(0.100053 0 0)
(0.100105 0 0)
(0.100073 0 0)
(0.100012 0 0)
(0.100016 0 0)
(0.100076 0 0)
(0.10015 0 0)
(0.100195 0 0)
(0.100204 0 0)
(0.100195 0 0)
(0.100167 0 0)
(0.100117 0 0)
(0.100085 0 0)
(0.10009 0 0)
(0.100116 0 0)
(0.100124 0 0)
(0.100118 0 0)
(0.100073 0 0)
(0.100024 0 0)
(0.099959 0 0)
(0.100035 0 0)
(0.100083 0 0)
(0.100046 0 0)
(0.0999841 0 0)
(0.09999 0 0)
(0.100052 0 0)
(0.10013 0 0)
(0.100183 0 0)
(0.1002 0 0)
(0.100199 0 0)
(0.100176 0 0)
(0.10013 0 0)
(0.100098 0 0)
(0.100107 0 0)
(0.100135 0 0)
(0.100156 0 0)
(0.100155 0 0)
(0.100137 0 0)
(0.100092 0 0)
(0.100077 0 0)
)
;
    }
    inlet
    {
        type            calculated;
        value           nonuniform List<vector> 
20
(
(0.100061 0 0)
(0.100063 0 0)
(0.100066 0 0)
(0.100067 0 0)
(0.100066 0 0)
(0.100062 0 0)
(0.100055 0 0)
(0.100048 0 0)
(0.100042 0 0)
(0.100039 0 0)
(0.10004 0 0)
(0.100045 0 0)
(0.100053 0 0)
(0.100062 0 0)
(0.100071 0 0)
(0.100077 0 0)
(0.100081 0 0)
(0.100082 0 0)
(0.100081 0 0)
(0.10008 0 0)
)
;
    }
    outlet
    {
        type            calculated;
        value           nonuniform List<vector> 
20
(
(0.100074 -2.9956e-05 0)
(0.100066 -8.35798e-06 0)
(0.100077 -2.98195e-05 0)
(0.100075 -2.77736e-05 0)
(0.100083 -3.83686e-06 0)
(0.100076 -1.40248e-05 0)
(0.100071 4.24122e-05 0)
(0.100075 5.90638e-06 0)
(0.100026 2.10127e-05 0)
(0.099783 -8.23833e-06 0)
(0.0997777 -0.000106678 0)
(0.100009 -0.000132805 0)
(0.100046 -0.000107805 0)
(0.100028 -0.000145511 0)
(0.100024 -7.52202e-05 0)
(0.100012 -9.30453e-05 0)
(0.0999989 -3.89827e-05 0)
(0.0999823 -5.37315e-05 0)
(0.0999703 -1.23991e-05 0)
(0.0999541 -3.16557e-05 0)
)
;
    }
    frontAndBack
    {
        type            empty;
    }
}


// ************************************************************************* //
