/*--------------------------------*- C++ -*----------------------------------*\
  =========                 |
  \\      /  F ield         | OpenFOAM: The Open Source CFD Toolbox
   \\    /   O peration     | Website:  https://openfoam.org
    \\  /    A nd           | Version:  9
     \\/     M anipulation  |
\*---------------------------------------------------------------------------*/
FoamFile
{
    format      ascii;
    class       volScalarField;
    location    "37";
    object      ddt0(h);
}
// * * * * * * * * * * * * * * * * * * * * * * * * * * * * * * * * * * * * * //

dimensions      [0 1 -1 0 0 0 0];

internalField   nonuniform List<scalar> 
400
(
-2.34108e-07
-7.33522e-08
3.31299e-08
1.04097e-07
1.65627e-07
1.6452e-07
1.46855e-07
9.53813e-08
8.3859e-08
6.26572e-08
6.19581e-08
4.35085e-08
2.00148e-08
1.92301e-08
-2.05828e-08
-4.38557e-08
-3.82582e-08
-1.0818e-08
1.78843e-08
1.11356e-08
-2.29732e-07
-1.00344e-07
2.27431e-09
9.54063e-08
1.40989e-07
1.56991e-07
1.45379e-07
1.20721e-07
8.72557e-08
9.5956e-08
6.56096e-08
6.70803e-08
3.67626e-08
3.55827e-09
-1.92913e-08
-4.2143e-08
-2.92392e-08
-1.28062e-09
1.01043e-08
7.11226e-09
-2.3523e-07
-1.41508e-07
-2.93256e-08
6.35158e-08
1.03872e-07
1.53823e-07
1.50468e-07
1.46667e-07
1.22899e-07
1.26617e-07
1.27023e-07
5.71381e-08
5.00582e-08
-1.12748e-08
-4.35448e-08
-4.99116e-08
-3.26414e-08
-1.04996e-08
-8.58782e-09
-7.15087e-09
-2.50076e-07
-1.74763e-07
-6.72398e-08
9.60275e-09
8.53883e-08
1.43385e-07
1.60964e-07
1.36685e-07
1.74343e-07
1.10495e-07
1.20441e-07
9.84083e-08
9.16509e-09
-3.76046e-09
-4.87301e-08
-6.21386e-08
-3.59105e-08
-6.2259e-09
-6.79735e-09
-2.93766e-09
-2.66362e-07
-2.05997e-07
-1.16635e-07
-2.91691e-08
5.94715e-08
1.31693e-07
1.1098e-07
1.78106e-07
1.01613e-07
2.42421e-07
-5.64507e-08
1.20584e-07
6.42358e-08
-5.00071e-08
-4.44389e-08
-5.3068e-08
-6.41187e-08
-5.41018e-08
-4.06753e-08
-1.82682e-08
-2.81152e-07
-2.40843e-07
-1.55247e-07
-6.27468e-08
3.79693e-08
6.49334e-08
1.01653e-07
1.04347e-07
1.70974e-07
9.88259e-08
1.4169e-07
-1.94889e-07
7.04002e-08
3.03006e-08
-5.26155e-08
-5.4566e-08
-5.84868e-08
-5.90554e-08
-5.12839e-08
-2.27537e-08
-2.9145e-07
-2.67601e-07
-1.87238e-07
-8.5186e-08
-2.54103e-08
1.74109e-08
3.56668e-08
9.04677e-08
2.35958e-07
-4.55832e-07
2.58913e-07
-1.28076e-07
-2.83252e-07
-5.37965e-08
-1.90649e-08
-5.30068e-08
-6.44435e-08
-6.37028e-08
-5.1161e-08
-2.11488e-08
-2.93378e-07
-2.83105e-07
-2.07947e-07
-1.27879e-07
-7.76668e-08
-5.87798e-08
8.03363e-10
9.37461e-08
-1.02577e-07
7.11986e-10
3.68502e-06
1.63254e-07
-1.67636e-07
-1.62341e-07
-6.52593e-08
-4.88938e-08
-5.79639e-08
-6.69185e-08
-4.67534e-08
-1.62968e-08
-2.87781e-07
-2.8845e-07
-2.32356e-07
-1.68464e-07
-1.40409e-07
-7.75618e-08
-4.37488e-08
-6.57012e-08
1.35434e-07
-6.55007e-08
-3.6155e-06
-3.14425e-07
-6.56827e-09
-2.73042e-08
-1.04263e-07
-8.31681e-08
-6.81247e-08
-4.96327e-08
-3.21762e-08
8.20922e-09
-2.79274e-07
-2.89799e-07
-2.53641e-07
-2.06673e-07
-1.66892e-07
-1.05477e-07
-4.35214e-08
-8.3981e-08
-2.48697e-07
5.49202e-07
-5.12654e-07
1.49633e-07
1.93151e-07
-1.17718e-07
-1.42937e-07
-1.13634e-07
-7.74373e-08
-5.31721e-08
-2.89556e-08
-2.75365e-08
-2.7686e-07
-2.93061e-07
-2.67881e-07
-2.15519e-07
-1.67518e-07
-9.20246e-08
-7.09321e-08
-8.36286e-08
-1.30628e-07
-1.56777e-07
1.89006e-07
1.99301e-08
-1.16316e-07
-1.32549e-07
-1.27049e-07
-1.20486e-07
-9.61852e-08
-6.67256e-08
-3.80182e-08
-1.31119e-08
-2.86793e-07
-2.93074e-07
-2.69273e-07
-1.97676e-07
-1.40398e-07
-8.13277e-08
-4.30069e-08
-8.37622e-08
-2.06167e-08
-2.2299e-07
2.01118e-06
4.55436e-08
-2.02021e-07
-9.94528e-08
-1.10938e-07
-1.13422e-07
-9.21393e-08
-7.13742e-08
-4.19013e-08
-1.31923e-08
-3.0222e-07
-2.88965e-07
-2.48036e-07
-1.65515e-07
-9.32908e-08
-6.6879e-08
-9.23475e-09
9.24936e-09
-2.4332e-08
5.47128e-08
-1.99029e-06
-3.19761e-07
1.26496e-08
-8.2369e-08
-9.87058e-08
-8.58169e-08
-8.12318e-08
-7.00169e-08
-3.82581e-08
-1.0298e-08
-3.12185e-07
-2.78778e-07
-2.18034e-07
-1.22277e-07
-4.27819e-08
-2.47299e-08
8.31348e-09
8.74337e-08
5.50793e-08
9.38247e-08
-2.65757e-07
1.56255e-07
-1.18311e-07
-7.7538e-08
-5.29905e-08
-5.74441e-08
-6.87214e-08
-6.71604e-08
-3.27249e-08
-4.56351e-09
-3.05597e-07
-2.63639e-07
-1.83965e-07
-8.25727e-08
1.73916e-08
2.63129e-08
4.20996e-08
8.6279e-08
1.63382e-07
3.02893e-08
1.40076e-07
-2.94871e-08
3.88928e-09
3.28098e-10
-3.57348e-08
-5.42446e-08
-7.06068e-08
-7.09845e-08
-3.89895e-08
-7.61255e-09
-2.85047e-07
-2.33638e-07
-1.53207e-07
-4.32345e-08
5.79485e-08
1.04051e-07
7.52531e-08
1.0775e-07
1.1445e-07
1.52851e-07
1.26894e-07
6.78031e-08
4.44513e-08
-1.76845e-08
-4.91207e-08
-7.50741e-08
-8.42246e-08
-6.89452e-08
-4.17213e-08
-1.21937e-08
-2.62466e-07
-1.81531e-07
-1.11026e-07
-1.67467e-08
9.08012e-08
1.48432e-07
1.38286e-07
1.01023e-07
1.04824e-07
6.54779e-08
1.86208e-08
2.38782e-08
-8.43697e-09
-4.72902e-08
-8.03759e-08
-9.93325e-08
-8.01692e-08
-4.43175e-08
-2.2954e-08
-8.06072e-09
-2.51417e-07
-1.30155e-07
-4.7654e-08
1.26642e-08
1.03418e-07
1.59839e-07
1.62432e-07
1.20156e-07
9.23928e-08
7.1486e-08
3.96415e-08
8.18311e-09
-1.69869e-08
-5.65335e-08
-8.87214e-08
-8.83195e-08
-6.01508e-08
-2.01143e-08
4.94003e-09
4.85118e-09
-2.48057e-07
-1.0384e-07
9.42882e-09
6.59518e-08
1.09053e-07
1.37923e-07
1.33122e-07
1.0818e-07
6.95123e-08
6.03885e-08
6.34882e-08
2.58157e-08
-9.10724e-09
-3.56419e-08
-4.92336e-08
-4.81617e-08
-2.91681e-08
5.65875e-09
3.13278e-08
1.82356e-08
-2.43062e-07
-9.47392e-08
4.17427e-08
1.11115e-07
1.25068e-07
1.13383e-07
9.67419e-08
7.41779e-08
4.99029e-08
5.31525e-08
5.28396e-08
2.93068e-08
-2.42062e-10
2.14326e-09
-4.78958e-09
-1.70937e-08
-9.73708e-09
1.3787e-08
3.42177e-08
2.20519e-08
)
;

boundaryField
{
    sides
    {
        type            calculated;
        value           nonuniform List<scalar> 
40
(
-2.43062e-07
-9.47392e-08
4.17427e-08
1.11115e-07
1.25068e-07
1.13383e-07
9.67419e-08
7.41779e-08
4.99029e-08
5.31525e-08
5.28396e-08
2.93068e-08
-2.42062e-10
2.14326e-09
-4.78958e-09
-1.70937e-08
-9.73708e-09
1.3787e-08
3.42177e-08
2.20519e-08
-2.34108e-07
-7.33522e-08
3.31299e-08
1.04097e-07
1.65627e-07
1.6452e-07
1.46855e-07
9.53813e-08
8.3859e-08
6.26572e-08
6.19581e-08
4.35085e-08
2.00148e-08
1.92301e-08
-2.05828e-08
-4.38557e-08
-3.82582e-08
-1.0818e-08
1.78843e-08
1.11356e-08
)
;
    }
    inlet
    {
        type            calculated;
        value           nonuniform List<scalar> 
20
(
-2.34108e-07
-2.29732e-07
-2.3523e-07
-2.50076e-07
-2.66362e-07
-2.81152e-07
-2.9145e-07
-2.93378e-07
-2.87781e-07
-2.79274e-07
-2.7686e-07
-2.86793e-07
-3.0222e-07
-3.12185e-07
-3.05597e-07
-2.85047e-07
-2.62466e-07
-2.51417e-07
-2.48057e-07
-2.43062e-07
)
;
    }
    outlet
    {
        type            calculated;
        value           uniform 0;
    }
    frontAndBack
    {
        type            empty;
    }
}


// ************************************************************************* //
