/*--------------------------------*- C++ -*----------------------------------*\
  =========                 |
  \\      /  F ield         | OpenFOAM: The Open Source CFD Toolbox
   \\    /   O peration     | Website:  https://openfoam.org
    \\  /    A nd           | Version:  9
     \\/     M anipulation  |
\*---------------------------------------------------------------------------*/
FoamFile
{
    format      ascii;
    class       volVectorField;
    location    "37";
    object      ddt0(hU);
}
// * * * * * * * * * * * * * * * * * * * * * * * * * * * * * * * * * * * * * //

dimensions      [0 2 -2 0 0 0 0];

internalField   nonuniform List<vector> 
400
(
(-1.21053e-08 -7.28593e-09 0)
(-7.92723e-08 -2.43567e-08 0)
(-6.67058e-08 -2.13894e-08 0)
(-6.32001e-08 -1.10943e-08 0)
(-8.01503e-08 -1.59985e-09 0)
(-9.21119e-08 4.81595e-09 0)
(-9.52799e-08 2.2194e-09 0)
(-9.04604e-08 -3.64315e-09 0)
(-6.81205e-08 -8.00055e-09 0)
(-4.55379e-08 -5.42641e-10 0)
(-2.95337e-08 1.92048e-08 0)
(-3.42932e-08 1.52407e-08 0)
(-4.12638e-08 8.36646e-09 0)
(-1.7581e-08 -2.11681e-09 0)
(1.52938e-08 -3.31714e-09 0)
(3.70784e-08 5.73515e-09 0)
(3.01535e-08 1.06754e-08 0)
(-6.6461e-09 6.19566e-09 0)
(-4.87335e-09 5.55126e-09 0)
(2.44996e-08 -2.50218e-10 0)
(-1.05813e-08 -1.75432e-08 0)
(-7.09962e-08 -5.73473e-08 0)
(-6.17638e-08 -5.38226e-08 0)
(-6.12184e-08 -3.0882e-08 0)
(-7.77205e-08 -5.14157e-09 0)
(-8.80545e-08 9.51883e-09 0)
(-9.10551e-08 6.48213e-09 0)
(-8.34626e-08 -9.44903e-09 0)
(-6.49165e-08 -1.88778e-08 0)
(-3.35895e-08 -8.04972e-09 0)
(-3.07568e-08 2.32769e-08 0)
(-3.84366e-08 3.82987e-08 0)
(-3.48402e-08 2.12106e-08 0)
(-1.75895e-08 -5.28363e-09 0)
(1.35919e-08 -7.7327e-09 0)
(3.04956e-08 1.52096e-08 0)
(2.62592e-08 3.96109e-08 0)
(8.42742e-09 2.41692e-08 0)
(3.23894e-09 -2.33797e-08 0)
(1.59728e-08 -1.75285e-08 0)
(-7.4765e-09 -2.52155e-08 0)
(-5.89718e-08 -8.2944e-08 0)
(-5.6265e-08 -8.2973e-08 0)
(-5.89529e-08 -4.79487e-08 0)
(-7.38011e-08 -9.15418e-09 0)
(-8.12518e-08 9.69976e-09 0)
(-8.32159e-08 6.54199e-09 0)
(-7.2646e-08 -1.59203e-08 0)
(-5.98541e-08 -3.14342e-08 0)
(-4.30303e-08 -9.14836e-09 0)
(-2.45313e-08 2.81613e-08 0)
(-2.58165e-08 6.56989e-08 0)
(-2.50324e-08 3.70354e-08 0)
(-1.29188e-08 -3.98452e-09 0)
(1.13152e-08 -6.66729e-09 0)
(2.59808e-08 2.6014e-08 0)
(1.75813e-08 6.00544e-08 0)
(-1.29942e-08 4.01286e-08 0)
(-9.62803e-09 -2.19565e-08 0)
(1.50431e-08 -2.22004e-08 0)
(-6.92646e-09 -3.28051e-08 0)
(-4.52049e-08 -1.10135e-07 0)
(-4.61235e-08 -1.11191e-07 0)
(-5.25789e-08 -6.45317e-08 0)
(-6.59677e-08 -1.79841e-08 0)
(-7.45866e-08 5.81598e-09 0)
(-7.16233e-08 3.43611e-09 0)
(-6.40787e-08 -2.01819e-08 0)
(-4.35919e-08 -4.19499e-08 0)
(-3.86481e-08 -8.66313e-09 0)
(-2.21567e-08 6.941e-08 0)
(-1.44483e-08 8.25571e-08 0)
(-2.42022e-08 5.51885e-08 0)
(-6.20127e-09 9.65534e-10 0)
(8.35692e-09 -6.45618e-09 0)
(8.67466e-09 3.72048e-08 0)
(5.0972e-09 8.37381e-08 0)
(7.53306e-09 5.68866e-08 0)
(3.69533e-09 -2.68063e-08 0)
(1.30679e-09 -3.02648e-08 0)
(-7.76613e-09 -3.76579e-08 0)
(-3.01479e-08 -1.24667e-07 0)
(-3.67983e-08 -1.26208e-07 0)
(-4.67239e-08 -7.84439e-08 0)
(-5.8573e-08 -3.05281e-08 0)
(-6.22066e-08 -1.22136e-09 0)
(-5.74804e-08 2.12736e-09 0)
(-4.46979e-08 -2.81143e-08 0)
(-4.4664e-08 -3.6492e-08 0)
(-4.67107e-09 -2.50271e-08 0)
(-4.08705e-08 7.13025e-08 0)
(-1.95776e-08 9.51667e-08 0)
(3.32732e-10 5.88609e-08 0)
(-8.03515e-09 1.40162e-08 0)
(6.9689e-09 1.85028e-09 0)
(7.71488e-09 4.23905e-08 0)
(-6.63738e-09 9.72315e-08 0)
(-2.55398e-08 7.11607e-08 0)
(-2.11404e-08 -3.23546e-08 0)
(-3.10052e-09 -3.42495e-08 0)
(-8.65183e-09 -3.96382e-08 0)
(-1.58669e-08 -1.27283e-07 0)
(-2.85259e-08 -1.30139e-07 0)
(-4.27637e-08 -8.64428e-08 0)
(-4.90335e-08 -3.92735e-08 0)
(-4.95374e-08 -4.64317e-09 0)
(-4.25363e-08 -2.11353e-09 0)
(-2.90039e-08 -2.62895e-08 0)
(-3.40009e-08 -5.65041e-08 0)
(-2.69996e-08 1.7512e-09 0)
(8.87586e-10 5.16958e-08 0)
(-4.18263e-08 1.57609e-07 0)
(1.70561e-08 7.23624e-08 0)
(1.99483e-08 3.57837e-09 0)
(-6.26938e-09 -5.22406e-10 0)
(-1.44197e-08 4.12077e-08 0)
(-1.59966e-08 9.33618e-08 0)
(-1.11172e-08 7.38829e-08 0)
(-1.95626e-08 -1.16356e-08 0)
(-2.94812e-08 -2.47124e-08 0)
(-9.73625e-09 -3.74642e-08 0)
(-3.58692e-09 -1.17559e-07 0)
(-2.32409e-08 -1.22509e-07 0)
(-3.91729e-08 -8.52163e-08 0)
(-3.99872e-08 -4.10222e-08 0)
(-3.55521e-08 -7.92578e-09 0)
(-2.47336e-08 -3.82892e-09 0)
(-3.08151e-08 -2.44407e-08 0)
(1.65448e-09 -4.98368e-08 0)
(-6.07051e-08 4.70791e-08 0)
(4.34055e-08 2.93092e-08 0)
(-7.28218e-09 1.11065e-07 0)
(-7.46366e-08 9.49333e-08 0)
(-1.57199e-10 1.52879e-08 0)
(6.69935e-09 -5.4228e-10 0)
(-1.52356e-08 4.17832e-08 0)
(-2.09138e-08 9.06587e-08 0)
(-1.83768e-08 7.14923e-08 0)
(-3.0976e-08 -2.05256e-08 0)
(-4.53292e-08 -2.77563e-08 0)
(-1.06314e-08 -3.06119e-08 0)
(4.84898e-09 -9.59092e-08 0)
(-1.97091e-08 -1.01559e-07 0)
(-3.65549e-08 -7.22635e-08 0)
(-3.16223e-08 -3.54952e-08 0)
(-2.30346e-08 -1.09134e-08 0)
(-1.27225e-08 -1.13925e-08 0)
(-7.98881e-09 -2.83268e-08 0)
(1.19174e-08 -5.73404e-09 0)
(-3.98964e-08 -3.86885e-08 0)
(3.28021e-07 9.3924e-08 0)
(7.07655e-08 4.87713e-08 0)
(8.55661e-10 5.88484e-08 0)
(-2.03438e-08 3.95991e-08 0)
(-1.42116e-08 1.73202e-08 0)
(-2.52202e-08 3.71156e-08 0)
(-2.86493e-08 6.98527e-08 0)
(-2.11921e-08 5.3019e-08 0)
(-3.83734e-08 -1.52386e-08 0)
(-6.4101e-08 -2.11461e-08 0)
(-1.16999e-08 -2.11685e-08 0)
(1.01191e-08 -6.50903e-08 0)
(-1.7783e-08 -6.85361e-08 0)
(-3.41532e-08 -4.82359e-08 0)
(-2.6897e-08 -2.38164e-08 0)
(-1.86117e-08 -8.51369e-09 0)
(-5.24846e-09 -1.37683e-08 0)
(1.22207e-08 -2.09863e-08 0)
(-1.45572e-08 4.94167e-09 0)
(4.55856e-09 -3.30165e-08 0)
(-3.36615e-07 8.23349e-08 0)
(-5.89408e-08 2.4577e-08 0)
(2.87213e-08 5.08858e-08 0)
(2.3719e-08 3.59392e-08 0)
(-2.75546e-08 1.73773e-08 0)
(-4.35801e-08 2.31943e-08 0)
(-3.85306e-08 4.02048e-08 0)
(-2.12379e-08 2.59356e-08 0)
(-3.86474e-08 -1.82225e-08 0)
(-7.24522e-08 -1.70485e-08 0)
(-1.18235e-08 -8.72543e-09 0)
(1.35266e-08 -2.60587e-08 0)
(-1.53711e-08 -2.65305e-08 0)
(-3.1295e-08 -1.79164e-08 0)
(-2.33172e-08 -1.05923e-08 0)
(-1.42187e-08 -7.35187e-09 0)
(2.25401e-09 -9.79511e-09 0)
(2.32868e-08 -1.2614e-08 0)
(-1.45275e-08 -1.03036e-08 0)
(4.8828e-08 4.49259e-08 0)
(-9.17585e-08 -1.0256e-08 0)
(3.18074e-08 5.03639e-08 0)
(1.03451e-07 5.78578e-08 0)
(-4.75112e-09 2.01328e-08 0)
(-4.23251e-08 9.11521e-09 0)
(-5.15959e-08 8.32952e-09 0)
(-4.56429e-08 5.72522e-09 0)
(-3.047e-08 -9.80957e-10 0)
(-4.56092e-08 -1.99949e-08 0)
(-7.58594e-08 -1.19257e-08 0)
(-1.19786e-08 7.31995e-09 0)
(1.40098e-08 1.88826e-08 0)
(-1.41949e-08 1.94761e-08 0)
(-3.0191e-08 1.32283e-08 0)
(-2.40046e-08 1.5496e-09 0)
(-1.53519e-08 -7.73213e-09 0)
(2.84797e-09 -1.03747e-08 0)
(1.50403e-08 -3.32162e-09 0)
(1.38605e-08 -2.0127e-08 0)
(-1.79376e-08 1.6452e-08 0)
(1.9641e-08 1.56507e-08 0)
(3.60887e-08 6.85073e-08 0)
(6.10309e-09 -6.89027e-10 0)
(-1.32135e-08 4.01993e-10 0)
(-3.4937e-08 6.46656e-09 0)
(-5.56131e-08 -6.79381e-09 0)
(-5.12446e-08 -2.40709e-08 0)
(-3.1452e-08 -2.08337e-08 0)
(-4.47159e-08 -1.11361e-08 0)
(-7.28234e-08 -3.03035e-09 0)
(-1.25197e-08 2.13789e-08 0)
(1.08454e-08 6.07996e-08 0)
(-1.47304e-08 6.2255e-08 0)
(-3.11136e-08 4.18482e-08 0)
(-2.51311e-08 1.35518e-08 0)
(-1.8422e-08 -4.66623e-09 0)
(-3.3957e-09 -1.96135e-09 0)
(4.48021e-09 3.32316e-09 0)
(2.19553e-08 1.06109e-08 0)
(3.7714e-09 -3.20503e-08 0)
(2.19815e-07 -3.93975e-08 0)
(-1.72802e-09 -8.28632e-08 0)
(-2.67013e-08 -4.2249e-08 0)
(4.11194e-10 -2.96892e-09 0)
(-2.65339e-08 -2.82733e-09 0)
(-4.88838e-08 -2.5191e-08 0)
(-4.64372e-08 -4.87974e-08 0)
(-3.10866e-08 -4.1181e-08 0)
(-4.42382e-08 -7.41103e-09 0)
(-6.98168e-08 4.86287e-09 0)
(-1.23912e-08 3.20906e-08 0)
(5.94778e-09 9.5592e-08 0)
(-1.62343e-08 9.77896e-08 0)
(-3.28292e-08 6.40469e-08 0)
(-2.98468e-08 2.29857e-08 0)
(-2.23067e-08 -4.6421e-09 0)
(-9.75644e-09 -2.26804e-09 0)
(4.04401e-09 1.25392e-08 0)
(-2.10971e-08 1.26897e-08 0)
(-2.47568e-08 -1.44946e-08 0)
(-2.17749e-07 -9.43027e-08 0)
(-1.40733e-08 -1.08719e-07 0)
(4.92291e-08 -5.1841e-08 0)
(4.72394e-09 -1.68951e-08 0)
(-2.20522e-08 -1.07507e-08 0)
(-2.89916e-08 -4.2705e-08 0)
(-3.45868e-08 -8.65155e-08 0)
(-3.41355e-08 -6.77512e-08 0)
(-4.25266e-08 -2.10129e-09 0)
(-5.96257e-08 1.3304e-08 0)
(-1.1566e-08 3.88356e-08 0)
(-1.98903e-09 1.20005e-07 0)
(-2.0184e-08 1.22314e-07 0)
(-3.66643e-08 7.84487e-08 0)
(-3.74941e-08 2.85219e-08 0)
(-3.1572e-08 -7.38721e-09 0)
(-2.08437e-08 -1.06279e-08 0)
(-1.90646e-08 1.43357e-08 0)
(-1.12199e-08 2.05882e-08 0)
(-2.25483e-08 8.55478e-09 0)
(-5.06467e-08 -4.85893e-08 0)
(3.5694e-08 -6.72888e-08 0)
(-4.98965e-09 -6.17783e-08 0)
(-2.58082e-09 -1.18814e-08 0)
(-8.51761e-11 -6.05932e-10 0)
(-1.51708e-08 -4.70292e-08 0)
(-2.39569e-08 -1.08194e-07 0)
(-2.27528e-08 -8.3965e-08 0)
(-3.43461e-08 1.50583e-09 0)
(-4.78513e-08 1.87474e-08 0)
(-9.70192e-09 4.0583e-08 0)
(-1.2998e-08 1.29605e-07 0)
(-2.5307e-08 1.31725e-07 0)
(-4.06832e-08 8.36206e-08 0)
(-4.72923e-08 3.14474e-08 0)
(-4.57039e-08 -8.55e-09 0)
(-3.47663e-08 -1.6296e-08 0)
(-2.78155e-08 9.40025e-09 0)
(-2.47487e-08 3.68032e-08 0)
(-2.90312e-08 -9.15153e-09 0)
(-2.59608e-09 -5.93445e-08 0)
(-1.90469e-08 -1.03005e-07 0)
(-4.17129e-11 -5.70754e-08 0)
(1.54002e-08 5.65963e-09 0)
(4.85012e-09 6.03183e-09 0)
(-7.27782e-09 -4.68017e-08 0)
(-1.69165e-08 -1.10121e-07 0)
(-2.16349e-08 -9.05334e-08 0)
(-2.82163e-08 4.8575e-10 0)
(-3.2719e-08 2.07896e-08 0)
(-8.72214e-09 3.89998e-08 0)
(-2.71054e-08 1.25816e-07 0)
(-3.16051e-08 1.25134e-07 0)
(-4.29166e-08 7.75956e-08 0)
(-5.70291e-08 2.76164e-08 0)
(-6.01206e-08 -7.68901e-09 0)
(-5.40756e-08 -1.89731e-08 0)
(-4.32429e-08 5.27091e-09 0)
(-3.9652e-08 2.5007e-08 0)
(-3.57048e-08 2.0973e-09 0)
(-1.94558e-08 -5.32136e-08 0)
(3.83459e-09 -9.25378e-08 0)
(5.84044e-09 -5.22359e-08 0)
(4.61775e-10 -2.99045e-10 0)
(8.48736e-09 5.47389e-09 0)
(5.09746e-09 -4.82457e-08 0)
(-1.22427e-08 -1.12963e-07 0)
(-2.2371e-08 -8.80877e-08 0)
(-2.0279e-08 5.76673e-09 0)
(-1.53735e-08 2.2331e-08 0)
(-9.45729e-09 3.38826e-08 0)
(-4.32706e-08 1.11066e-07 0)
(-3.91389e-08 1.05943e-07 0)
(-4.53009e-08 6.10108e-08 0)
(-6.3118e-08 1.82169e-08 0)
(-7.4088e-08 -8.4005e-09 0)
(-7.05189e-08 -1.38681e-08 0)
(-6.16897e-08 4.19414e-09 0)
(-4.9266e-08 2.21041e-08 0)
(-2.43951e-08 1.31417e-10 0)
(-2.35743e-08 -5.14764e-08 0)
(-3.74071e-08 -8.05226e-08 0)
(-2.32064e-08 -4.67184e-08 0)
(1.65876e-09 4.48782e-09 0)
(1.25417e-08 4.62236e-09 0)
(6.38173e-09 -4.8257e-08 0)
(-2.43175e-09 -1.01016e-07 0)
(-1.12487e-08 -7.15855e-08 0)
(-1.06374e-08 1.28855e-08 0)
(-8.49594e-11 2.27863e-08 0)
(-1.14275e-08 2.73029e-08 0)
(-5.92376e-08 9.24954e-08 0)
(-4.7424e-08 8.48886e-08 0)
(-4.71008e-08 4.06057e-08 0)
(-6.62766e-08 3.80536e-09 0)
(-8.15775e-08 -1.30985e-08 0)
(-8.53702e-08 -7.91568e-09 0)
(-7.76584e-08 1.06381e-08 0)
(-5.92977e-08 2.45761e-08 0)
(-4.49519e-08 3.44553e-09 0)
(-3.09209e-08 -5.19764e-08 0)
(-1.97268e-08 -6.61877e-08 0)
(-1.89856e-08 -3.30523e-08 0)
(-1.21033e-08 3.26658e-09 0)
(5.89523e-09 -5.64714e-10 0)
(2.06692e-08 -3.52589e-08 0)
(1.57963e-08 -6.8661e-08 0)
(-4.20286e-09 -4.4366e-08 0)
(-5.20434e-09 1.94204e-08 0)
(9.09397e-09 2.20528e-08 0)
(-1.11622e-08 1.52718e-08 0)
(-7.06163e-08 5.65005e-08 0)
(-5.80521e-08 5.3127e-08 0)
(-5.39212e-08 2.1423e-08 0)
(-7.05096e-08 -5.90559e-09 0)
(-8.42617e-08 -1.42198e-08 0)
(-9.08252e-08 -6.30023e-09 0)
(-8.57545e-08 1.17356e-08 0)
(-6.87005e-08 2.04985e-08 0)
(-4.15202e-08 8.54688e-09 0)
(-2.74278e-08 -1.88871e-08 0)
(-3.79353e-08 -3.5388e-08 0)
(-3.73423e-08 -2.16048e-08 0)
(-1.14764e-08 2.836e-10 0)
(2.18094e-08 2.50494e-09 0)
(4.0973e-08 -1.67899e-08 0)
(3.01164e-08 -3.83545e-08 0)
(-1.80635e-11 -2.12367e-08 0)
(-4.39308e-09 2.11014e-08 0)
(7.76119e-09 1.82584e-08 0)
(-1.14916e-08 3.1628e-09 0)
(-7.53762e-08 1.456e-08 0)
(-6.2049e-08 1.52467e-08 0)
(-5.74423e-08 5.9886e-09 0)
(-7.24392e-08 -3.25056e-09 0)
(-8.44365e-08 -5.79378e-09 0)
(-9.22916e-08 -2.72741e-09 0)
(-9.09535e-08 3.24674e-09 0)
(-7.30249e-08 6.63344e-09 0)
(-4.93058e-08 4.39527e-09 0)
(-3.43552e-08 -1.10575e-08 0)
(-3.18066e-08 -1.44407e-08 0)
(-3.38504e-08 -3.45964e-09 0)
(-1.23879e-08 4.10995e-09 0)
(2.43593e-08 2.89346e-09 0)
(4.84083e-08 -4.87309e-09 0)
(4.06131e-08 -1.26903e-08 0)
(8.20685e-09 -6.25518e-09 0)
(-4.21305e-09 9.44295e-09 0)
(2.20403e-09 7.5161e-09 0)
)
;

boundaryField
{
    sides
    {
        type            calculated;
        value           nonuniform List<vector> 
40
(
(-1.14916e-08 0 0)
(-7.53762e-08 0 0)
(-6.2049e-08 0 0)
(-5.74423e-08 0 0)
(-7.24392e-08 0 0)
(-8.44365e-08 0 0)
(-9.22916e-08 0 0)
(-9.09535e-08 0 0)
(-7.30249e-08 0 0)
(-4.93058e-08 0 0)
(-3.43552e-08 0 0)
(-3.18066e-08 0 0)
(-3.38504e-08 0 0)
(-1.23879e-08 0 0)
(2.43593e-08 0 0)
(4.84083e-08 0 0)
(4.06131e-08 0 0)
(8.20685e-09 0 0)
(-4.21305e-09 0 0)
(2.20403e-09 0 0)
(-1.21053e-08 0 0)
(-7.92723e-08 0 0)
(-6.67058e-08 0 0)
(-6.32001e-08 0 0)
(-8.01503e-08 0 0)
(-9.21119e-08 0 0)
(-9.52799e-08 0 0)
(-9.04604e-08 0 0)
(-6.81205e-08 0 0)
(-4.55379e-08 0 0)
(-2.95337e-08 0 0)
(-3.42932e-08 0 0)
(-4.12638e-08 0 0)
(-1.7581e-08 0 0)
(1.52938e-08 0 0)
(3.70784e-08 0 0)
(3.01535e-08 0 0)
(-6.6461e-09 0 0)
(-4.87335e-09 0 0)
(2.44996e-08 0 0)
)
;
    }
    inlet
    {
        type            calculated;
        value           uniform (0 0 0);
    }
    outlet
    {
        type            calculated;
        value           nonuniform List<vector> 
20
(
(2.44996e-08 -2.50218e-10 0)
(1.59728e-08 -1.75285e-08 0)
(1.50431e-08 -2.22004e-08 0)
(1.30679e-09 -3.02648e-08 0)
(-3.10052e-09 -3.42495e-08 0)
(-2.94812e-08 -2.47124e-08 0)
(-4.53292e-08 -2.77563e-08 0)
(-6.4101e-08 -2.11461e-08 0)
(-7.24522e-08 -1.70485e-08 0)
(-7.58594e-08 -1.19257e-08 0)
(-7.28234e-08 -3.03035e-09 0)
(-6.98168e-08 4.86287e-09 0)
(-5.96257e-08 1.3304e-08 0)
(-4.78513e-08 1.87474e-08 0)
(-3.2719e-08 2.07896e-08 0)
(-1.53735e-08 2.2331e-08 0)
(-8.49594e-11 2.27863e-08 0)
(9.09397e-09 2.20528e-08 0)
(7.76119e-09 1.82584e-08 0)
(2.20403e-09 7.5161e-09 0)
)
;
    }
    frontAndBack
    {
        type            empty;
    }
}


// ************************************************************************* //
