/*--------------------------------*- C++ -*----------------------------------*\
  =========                 |
  \\      /  F ield         | OpenFOAM: The Open Source CFD Toolbox
   \\    /   O peration     | Website:  https://openfoam.org
    \\  /    A nd           | Version:  9
     \\/     M anipulation  |
\*---------------------------------------------------------------------------*/
FoamFile
{
    format      ascii;
    class       volScalarField;
    location    "37";
    object      h_0;
}
// * * * * * * * * * * * * * * * * * * * * * * * * * * * * * * * * * * * * * //

dimensions      [0 1 0 0 0 0 0];

internalField   nonuniform List<scalar> 
400
(
0.00999998
0.00999993
0.00999986
0.00999976
0.00999965
0.0099995
0.00999933
0.00999915
0.00999898
0.00999886
0.00999881
0.00999884
0.00999897
0.00999919
0.00999945
0.00999971
0.00999991
0.01
0.0100001
0.01
0.00999995
0.0099999
0.0099998
0.0099997
0.00999957
0.00999941
0.00999921
0.009999
0.0099988
0.00999863
0.00999856
0.00999861
0.00999878
0.00999904
0.00999934
0.00999962
0.00999982
0.00999993
0.00999997
0.00999999
0.01
0.00999994
0.00999984
0.00999973
0.00999958
0.00999939
0.00999916
0.00999891
0.00999865
0.00999845
0.00999834
0.00999838
0.00999857
0.00999891
0.00999931
0.00999968
0.00999995
0.0100001
0.0100001
0.01
0.0100001
0.01
0.00999993
0.0099998
0.00999963
0.00999941
0.00999911
0.00999877
0.00999839
0.00999806
0.00999787
0.00999791
0.00999823
0.00999876
0.00999933
0.00999976
0.00999996
0.00999999
0.00999996
0.00999996
0.0100002
0.0100002
0.0100001
0.00999995
0.00999976
0.00999949
0.00999911
0.00999863
0.00999808
0.00999754
0.00999716
0.0099972
0.0099977
0.00999859
0.00999953
0.0100002
0.0100004
0.0100002
0.0100001
0.00999999
0.0100004
0.0100004
0.0100003
0.0100002
0.00999999
0.00999969
0.00999919
0.0099985
0.00999766
0.00999687
0.00999628
0.00999626
0.00999705
0.0099984
0.0099997
0.0100004
0.0100004
0.0100002
0.00999991
0.00999991
0.0100006
0.0100006
0.0100006
0.0100005
0.0100004
0.0100001
0.00999953
0.00999856
0.00999709
0.00999531
0.00999412
0.00999446
0.00999664
0.00999944
0.0100013
0.0100015
0.0100007
0.00999999
0.0099997
0.00999986
0.0100008
0.0100008
0.0100009
0.0100009
0.0100009
0.0100007
0.0100002
0.00999918
0.00999731
0.0099942
0.00999044
0.00999015
0.0099944
0.0100001
0.0100032
0.010003
0.0100012
0.00999978
0.00999944
0.00999981
0.010001
0.010001
0.0100012
0.0100014
0.0100017
0.0100018
0.0100013
0.00999939
0.00999541
0.00998968
0.0099867
0.00998966
0.00999795
0.0100036
0.0100043
0.0100023
0.0100002
0.00999926
0.00999938
0.00999985
0.010001
0.0100011
0.0100013
0.0100018
0.0100025
0.0100039
0.0100058
0.0100077
0.0100048
0.00897838
0.0089523
0.00997578
0.0100087
0.0100177
0.0100103
0.0100022
0.00999875
0.00999882
0.00999972
0.0100001
0.0100009
0.010001
0.0100012
0.0100017
0.0100025
0.0100039
0.0100057
0.0100077
0.0100048
0.00897833
0.0089523
0.00997568
0.0100086
0.0100176
0.0100103
0.0100022
0.00999875
0.0099988
0.00999969
0.0100001
0.0100008
0.0100008
0.010001
0.0100012
0.0100015
0.0100016
0.0100011
0.0099992
0.00999523
0.00998943
0.00998648
0.00998945
0.00999781
0.0100035
0.0100042
0.0100022
0.0100001
0.00999924
0.0099994
0.00999987
0.0100005
0.0100005
0.0100006
0.0100006
0.0100006
0.0100004
0.00999991
0.00999889
0.00999702
0.00999399
0.00999018
0.00998992
0.00999415
0.00999985
0.010003
0.0100028
0.010001
0.0099997
0.00999942
0.00999981
0.0100002
0.0100002
0.0100001
0.0100001
0.00999993
0.00999965
0.0099991
0.00999812
0.00999665
0.00999488
0.00999372
0.0099941
0.00999629
0.00999912
0.010001
0.0100013
0.0100006
0.00999984
0.0099996
0.00999982
0.00999985
0.00999979
0.00999971
0.0099996
0.00999942
0.00999912
0.00999863
0.00999795
0.00999713
0.00999635
0.0099958
0.0099958
0.00999662
0.00999802
0.00999936
0.0100001
0.0100002
0.00999996
0.00999979
0.00999987
0.00999953
0.00999946
0.00999936
0.00999923
0.00999905
0.00999879
0.00999842
0.00999795
0.00999741
0.00999688
0.00999653
0.0099966
0.00999714
0.00999806
0.00999904
0.00999973
0.01
0.00999997
0.0099999
0.00999992
0.00999924
0.00999918
0.00999907
0.00999895
0.00999878
0.00999857
0.00999829
0.00999796
0.00999761
0.00999731
0.00999715
0.00999723
0.00999758
0.00999816
0.0099988
0.00999933
0.00999964
0.00999977
0.00999984
0.00999992
0.009999
0.00999894
0.00999885
0.00999873
0.00999859
0.00999841
0.0099982
0.00999796
0.00999771
0.00999751
0.00999743
0.00999751
0.00999777
0.00999817
0.00999864
0.00999907
0.00999942
0.00999964
0.00999979
0.00999992
0.00999881
0.00999876
0.00999868
0.00999859
0.00999847
0.00999831
0.00999814
0.00999796
0.00999779
0.00999767
0.00999763
0.0099977
0.0099979
0.00999822
0.00999861
0.00999899
0.00999932
0.00999957
0.00999976
0.00999992
0.00999866
0.0099986
0.00999852
0.00999844
0.00999833
0.00999819
0.00999802
0.00999786
0.00999771
0.00999761
0.00999759
0.00999768
0.00999787
0.00999815
0.00999849
0.00999883
0.00999915
0.00999941
0.00999965
0.00999986
)
;

boundaryField
{
    sides
    {
        type            zeroGradient;
    }
    inlet
    {
        type            zeroGradient;
    }
    outlet
    {
        type            fixedValue;
        value           uniform 0.01;
    }
    frontAndBack
    {
        type            empty;
    }
}


// ************************************************************************* //
