/*--------------------------------*- C++ -*----------------------------------*\
  =========                 |
  \\      /  F ield         | OpenFOAM: The Open Source CFD Toolbox
   \\    /   O peration     | Website:  https://openfoam.org
    \\  /    A nd           | Version:  9
     \\/     M anipulation  |
\*---------------------------------------------------------------------------*/
FoamFile
{
    format      ascii;
    class       volVectorField;
    location    "37";
    object      hU_0;
}
// * * * * * * * * * * * * * * * * * * * * * * * * * * * * * * * * * * * * * //

dimensions      [0 2 -1 0 0 0 0];

internalField   nonuniform List<vector> 
400
(
(0.000999986 -3.04025e-08 0)
(0.00100006 -7.62233e-08 0)
(0.00100016 -1.14037e-07 0)
(0.00100027 -1.5072e-07 0)
(0.00100042 -1.86801e-07 0)
(0.0010006 -2.19598e-07 0)
(0.00100081 -2.42827e-07 0)
(0.00100102 -2.50645e-07 0)
(0.00100121 -2.36988e-07 0)
(0.00100135 -2.06164e-07 0)
(0.00100141 -1.63807e-07 0)
(0.0010014 -1.30178e-07 0)
(0.0010013 -1.04147e-07 0)
(0.00100114 -9.71697e-08 0)
(0.0010009 -9.88971e-08 0)
(0.00100067 -1.3184e-07 0)
(0.00100046 -1.55064e-07 0)
(0.00100036 -2.01189e-07 0)
(0.00100031 -1.88472e-07 0)
(0.00100038 -2.67408e-07 0)
(0.000999988 -4.21419e-08 0)
(0.00100006 -9.52847e-08 0)
(0.00100017 -1.33736e-07 0)
(0.00100029 -1.72975e-07 0)
(0.00100045 -2.13891e-07 0)
(0.00100064 -2.48189e-07 0)
(0.00100087 -2.61209e-07 0)
(0.0010011 -2.34898e-07 0)
(0.00100133 -1.57764e-07 0)
(0.0010015 -3.81822e-08 0)
(0.00100157 1.0254e-07 0)
(0.00100155 2.41603e-07 0)
(0.00100142 3.71747e-07 0)
(0.00100121 4.63714e-07 0)
(0.00100095 5.06639e-07 0)
(0.00100069 4.6179e-07 0)
(0.00100051 3.80279e-07 0)
(0.00100039 2.37596e-07 0)
(0.00100037 1.90891e-07 0)
(0.00100032 8.5117e-08 0)
(0.00099999 -7.47789e-08 0)
(0.00100006 -1.83592e-07 0)
(0.00100017 -2.75803e-07 0)
(0.00100029 -3.72982e-07 0)
(0.00100046 -4.74916e-07 0)
(0.00100067 -5.67828e-07 0)
(0.00100092 -6.27255e-07 0)
(0.0010012 -6.2062e-07 0)
(0.00100146 -5.23869e-07 0)
(0.00100167 -3.39927e-07 0)
(0.00100178 -9.91486e-08 0)
(0.00100176 1.51589e-07 0)
(0.00100161 3.72043e-07 0)
(0.00100133 4.98523e-07 0)
(0.00100097 5.00961e-07 0)
(0.00100065 3.68417e-07 0)
(0.00100039 2.07012e-07 0)
(0.00100029 2.37529e-08 0)
(0.00100026 -2.11484e-08 0)
(0.00100034 -1.12112e-07 0)
(0.000999992 -1.01435e-07 0)
(0.00100006 -2.51821e-07 0)
(0.00100016 -3.84491e-07 0)
(0.0010003 -5.28351e-07 0)
(0.00100048 -6.82074e-07 0)
(0.00100072 -8.26562e-07 0)
(0.00100102 -9.20611e-07 0)
(0.00100137 -9.16253e-07 0)
(0.00100173 -7.65737e-07 0)
(0.00100205 -4.59979e-07 0)
(0.00100223 -1.09396e-08 0)
(0.0010022 4.75691e-07 0)
(0.00100194 8.98946e-07 0)
(0.00100148 1.11209e-06 0)
(0.001001 1.05603e-06 0)
(0.00100061 7.60736e-07 0)
(0.00100044 4.26648e-07 0)
(0.00100038 1.3882e-07 0)
(0.00100043 7.93487e-08 0)
(0.00100038 9.09181e-09 0)
(0.000999995 -1.21556e-07 0)
(0.00100005 -3.10067e-07 0)
(0.00100015 -4.87939e-07 0)
(0.00100028 -6.92591e-07 0)
(0.00100048 -9.23844e-07 0)
(0.00100076 -1.15965e-06 0)
(0.00100113 -1.33604e-06 0)
(0.00100158 -1.37346e-06 0)
(0.00100209 -1.18852e-06 0)
(0.00100259 -7.67125e-07 0)
(0.00100291 -1.58642e-07 0)
(0.00100289 5.61049e-07 0)
(0.00100246 1.1902e-06 0)
(0.00100169 1.48159e-06 0)
(0.00100088 1.37575e-06 0)
(0.00100033 9.82996e-07 0)
(0.00100015 5.84353e-07 0)
(0.00100024 2.75708e-07 0)
(0.00100041 2.33155e-07 0)
(0.00100047 1.77518e-07 0)
(0.000999998 -1.33748e-07 0)
(0.00100004 -3.50274e-07 0)
(0.00100011 -5.73269e-07 0)
(0.00100023 -8.44285e-07 0)
(0.00100042 -1.178e-06 0)
(0.00100072 -1.54798e-06 0)
(0.00100118 -1.89903e-06 0)
(0.00100181 -2.09312e-06 0)
(0.00100256 -1.927e-06 0)
(0.00100328 -1.19234e-06 0)
(0.00100379 9.56345e-08 0)
(0.00100379 1.51801e-06 0)
(0.00100311 2.38231e-06 0)
(0.00100193 2.26815e-06 0)
(0.00100083 1.4276e-06 0)
(0.00100021 5.08569e-07 0)
(0.0010002 1.70382e-08 0)
(0.0010004 -1.14932e-07 0)
(0.00100067 3.69114e-08 0)
(0.00100058 5.86823e-08 0)
(0.001 -1.29986e-07 0)
(0.00100001 -3.62221e-07 0)
(0.00100004 -6.12775e-07 0)
(0.00100011 -9.63537e-07 0)
(0.00100025 -1.39979e-06 0)
(0.00100052 -1.96988e-06 0)
(0.00100103 -2.52718e-06 0)
(0.00100191 -3.1206e-06 0)
(0.00100323 -3.25024e-06 0)
(0.00100475 -2.87287e-06 0)
(0.00100575 -6.66047e-07 0)
(0.00100536 2.53878e-06 0)
(0.00100351 4.78721e-06 0)
(0.00100114 4.70307e-06 0)
(0.000999626 3.02392e-06 0)
(0.000999395 1.27688e-06 0)
(0.00100004 4.31576e-07 0)
(0.00100059 2.91811e-07 0)
(0.00100095 5.38066e-07 0)
(0.00100069 5.45282e-07 0)
(0.000999998 -1.14481e-07 0)
(0.000999975 -3.12414e-07 0)
(0.000999923 -5.87721e-07 0)
(0.000999907 -9.61137e-07 0)
(0.000999917 -1.58662e-06 0)
(0.00100014 -2.36669e-06 0)
(0.00100054 -3.43604e-06 0)
(0.00100155 -4.15651e-06 0)
(0.0010031 -4.38479e-06 0)
(0.00100602 -2.53828e-06 0)
(0.00100913 7.65869e-07 0)
(0.00100917 4.25804e-06 0)
(0.00100552 4.69161e-06 0)
(0.00100074 2.75797e-06 0)
(0.000998162 7.28752e-07 0)
(0.000998295 -2.68437e-07 0)
(0.000999829 -2.87472e-07 0)
(0.00100091 -3.55687e-08 0)
(0.00100136 1.95325e-07 0)
(0.00100088 1.12342e-07 0)
(0.000999999 -6.40049e-08 0)
(0.00099992 -2.20565e-07 0)
(0.000999769 -3.96237e-07 0)
(0.000999561 -7.41582e-07 0)
(0.000999327 -1.34806e-06 0)
(0.000999252 -2.49832e-06 0)
(0.000999744 -4.7116e-06 0)
(0.00100142 -8.09041e-06 0)
(0.00100493 -1.3294e-05 0)
(0.0010096 -1.49027e-05 0)
(0.00101191 3.85159e-06 0)
(0.00100895 1.87222e-05 0)
(0.00100223 1.57599e-05 0)
(0.000997573 5.72019e-06 0)
(0.000996893 -3.2395e-07 0)
(0.000998481 -1.26343e-06 0)
(0.00100031 -9.76602e-08 0)
(0.00100104 6.18591e-07 0)
(0.00100109 6.43691e-07 0)
(0.00100056 2.544e-07 0)
(0.000999808 -2.62567e-08 0)
(0.00100018 -7.54988e-08 0)
(0.000999226 -1.59296e-07 0)
(0.000999933 -2.5669e-07 0)
(0.000997561 -6.01167e-07 0)
(0.000998886 -1.14162e-06 0)
(0.000993384 -2.89479e-06 0)
(0.000997555 -5.59951e-06 0)
(0.000991685 -1.15446e-05 0)
(0.000915844 -1.27048e-05 0)
(0.000951488 2.7552e-07 0)
(0.00101026 1.46406e-05 0)
(0.000990962 1.30746e-05 0)
(0.000983977 5.12501e-06 0)
(0.000989593 1.83472e-07 0)
(0.000996299 -7.89501e-07 0)
(0.000999268 -1.17421e-07 0)
(0.000999445 2.40403e-07 0)
(0.000998669 1.74545e-07 0)
(0.000998528 -1.73322e-07 0)
(0.000999809 1.55345e-08 0)
(0.00100018 4.50067e-08 0)
(0.000999226 1.11077e-07 0)
(0.000999932 1.90993e-07 0)
(0.000997558 5.21292e-07 0)
(0.000998881 1.04784e-06 0)
(0.000993376 2.78827e-06 0)
(0.000997543 5.47828e-06 0)
(0.000991667 1.14019e-05 0)
(0.000915823 1.25499e-05 0)
(0.000951453 -4.65074e-07 0)
(0.00101022 -1.49081e-05 0)
(0.000990957 -1.34112e-05 0)
(0.000983972 -5.54158e-06 0)
(0.000989575 -6.63108e-07 0)
(0.000996262 2.31544e-07 0)
(0.000999228 -4.79972e-07 0)
(0.000999401 -1.00055e-06 0)
(0.000998654 -9.81642e-07 0)
(0.000998479 -8.80607e-07 0)
(0.000999999 5.35538e-08 0)
(0.00099992 1.91401e-07 0)
(0.000999768 3.49743e-07 0)
(0.000999561 6.77998e-07 0)
(0.000999324 1.26986e-06 0)
(0.00099925 2.40463e-06 0)
(0.000999737 4.60427e-06 0)
(0.00100142 7.9627e-06 0)
(0.00100492 1.31458e-05 0)
(0.0010096 1.4721e-05 0)
(0.00101191 -4.071e-06 0)
(0.00100892 -1.89986e-05 0)
(0.00100216 -1.60812e-05 0)
(0.000997485 -6.12047e-06 0)
(0.000996825 -9.8734e-08 0)
(0.000998423 7.50911e-07 0)
(0.0010002 -4.39299e-07 0)
(0.00100088 -1.29657e-06 0)
(0.0010009 -1.36509e-06 0)
(0.00100039 -1.2434e-06 0)
(0.000999998 1.04721e-07 0)
(0.000999974 2.85142e-07 0)
(0.000999921 5.43392e-07 0)
(0.000999902 9.00004e-07 0)
(0.000999907 1.50754e-06 0)
(0.00100012 2.27006e-06 0)
(0.00100052 3.31944e-06 0)
(0.00100151 4.02302e-06 0)
(0.00100305 4.23156e-06 0)
(0.00100596 2.36738e-06 0)
(0.00100904 -9.85483e-07 0)
(0.00100909 -4.52589e-06 0)
(0.00100544 -4.99662e-06 0)
(0.00100067 -3.12101e-06 0)
(0.00099807 -1.14631e-06 0)
(0.000998155 -2.83544e-07 0)
(0.000999652 -3.37043e-07 0)
(0.00100067 -7.21327e-07 0)
(0.00100109 -9.43875e-07 0)
(0.00100058 -1.06775e-06 0)
(0.001 1.21372e-07 0)
(0.00100001 3.36609e-07 0)
(0.00100004 5.71358e-07 0)
(0.0010001 9.06138e-07 0)
(0.00100023 1.32776e-06 0)
(0.0010005 1.88303e-06 0)
(0.00100101 2.43024e-06 0)
(0.00100188 3.01182e-06 0)
(0.00100319 3.13278e-06 0)
(0.0010047 2.73286e-06 0)
(0.0010057 5.09562e-07 0)
(0.0010053 -2.73538e-06 0)
(0.0010034 -5.04516e-06 0)
(0.00100098 -5.0544e-06 0)
(0.000999427 -3.46682e-06 0)
(0.000999144 -1.82922e-06 0)
(0.000999775 -1.03423e-06 0)
(0.00100028 -1.03143e-06 0)
(0.00100064 -1.2789e-06 0)
(0.00100027 -1.51086e-06 0)
(0.000999998 1.26765e-07 0)
(0.00100004 3.27882e-07 0)
(0.00100011 5.36691e-07 0)
(0.00100022 7.94317e-07 0)
(0.0010004 1.11577e-06 0)
(0.00100069 1.47316e-06 0)
(0.00100115 1.81278e-06 0)
(0.00100176 1.99019e-06 0)
(0.0010025 1.80423e-06 0)
(0.00100319 1.03244e-06 0)
(0.00100368 -2.8016e-07 0)
(0.00100365 -1.75454e-06 0)
(0.00100294 -2.66837e-06 0)
(0.00100173 -2.61328e-06 0)
(0.0010006 -1.7962e-06 0)
(0.000999929 -9.30961e-07 0)
(0.000999888 -4.41651e-07 0)
(0.00100001 -4.19894e-07 0)
(0.00100025 -5.86534e-07 0)
(0.00100004 -8.4453e-07 0)
(0.000999995 1.16156e-07 0)
(0.00100005 2.9154e-07 0)
(0.00100014 4.56686e-07 0)
(0.00100027 6.50386e-07 0)
(0.00100046 8.71687e-07 0)
(0.00100073 1.09778e-06 0)
(0.00100108 1.26377e-06 0)
(0.00100153 1.29009e-06 0)
(0.00100202 1.09112e-06 0)
(0.00100251 6.51065e-07 0)
(0.00100282 1.01088e-08 0)
(0.00100276 -7.53411e-07 0)
(0.00100229 -1.41553e-06 0)
(0.00100148 -1.75626e-06 0)
(0.00100065 -1.68308e-06 0)
(0.00100003 -1.38273e-06 0)
(0.000999819 -1.04223e-06 0)
(0.000999795 -9.05855e-07 0)
(0.000999919 -9.14689e-07 0)
(0.000999804 -1.1057e-06 0)
(0.000999992 9.70212e-08 0)
(0.00100006 2.36097e-07 0)
(0.00100016 3.57997e-07 0)
(0.00100028 4.92174e-07 0)
(0.00100046 6.38416e-07 0)
(0.00100069 7.76424e-07 0)
(0.00100098 8.6619e-07 0)
(0.00100131 8.57589e-07 0)
(0.00100165 7.05239e-07 0)
(0.00100193 3.9841e-07 0)
(0.00100207 -5.58626e-08 0)
(0.00100202 -5.61541e-07 0)
(0.00100173 -1.00385e-06 0)
(0.00100123 -1.26547e-06 0)
(0.00100068 -1.24501e-06 0)
(0.00100019 -1.02577e-06 0)
(0.00099994 -7.11506e-07 0)
(0.000999769 -5.26483e-07 0)
(0.000999789 -4.58678e-07 0)
(0.000999599 -5.95788e-07 0)
(0.00099999 7.29615e-08 0)
(0.00100006 1.70605e-07 0)
(0.00100016 2.49078e-07 0)
(0.00100028 3.30529e-07 0)
(0.00100044 4.15843e-07 0)
(0.00100064 4.90424e-07 0)
(0.00100088 5.30021e-07 0)
(0.00100114 4.97237e-07 0)
(0.0010014 3.70848e-07 0)
(0.00100159 1.47526e-07 0)
(0.00100169 -1.23289e-07 0)
(0.00100162 -4.07439e-07 0)
(0.00100141 -6.55755e-07 0)
(0.00100106 -8.299e-07 0)
(0.00100067 -8.6113e-07 0)
(0.00100025 -7.93352e-07 0)
(0.000999974 -6.45035e-07 0)
(0.000999717 -5.74287e-07 0)
(0.000999666 -5.39837e-07 0)
(0.000999428 -6.82793e-07 0)
(0.000999987 4.86305e-08 0)
(0.00100006 1.18602e-07 0)
(0.00100015 1.77464e-07 0)
(0.00100026 2.37896e-07 0)
(0.0010004 2.98984e-07 0)
(0.00100058 3.53483e-07 0)
(0.00100079 3.87491e-07 0)
(0.001001 3.82716e-07 0)
(0.00100119 3.24644e-07 0)
(0.00100132 2.1858e-07 0)
(0.00100138 8.00811e-08 0)
(0.00100133 -6.57821e-08 0)
(0.00100118 -1.913e-07 0)
(0.0010009 -2.87794e-07 0)
(0.00100057 -3.17451e-07 0)
(0.00100019 -2.96026e-07 0)
(0.000999921 -2.0767e-07 0)
(0.00099964 -1.5453e-07 0)
(0.000999558 -1.04952e-07 0)
(0.000999292 -1.97482e-07 0)
(0.000999987 2.0987e-10 0)
(0.00100006 -4.31779e-09 0)
(0.00100016 -9.91766e-09 0)
(0.00100027 -1.40635e-08 0)
(0.00100041 -1.71475e-08 0)
(0.00100058 -2.17692e-08 0)
(0.00100077 -3.06341e-08 0)
(0.00100097 -4.96748e-08 0)
(0.00100114 -7.96504e-08 0)
(0.00100126 -1.23374e-07 0)
(0.0010013 -1.71057e-07 0)
(0.00100123 -2.25913e-07 0)
(0.00100109 -2.82819e-07 0)
(0.00100084 -3.37519e-07 0)
(0.00100057 -3.61444e-07 0)
(0.00100021 -3.7263e-07 0)
(0.000999966 -3.43573e-07 0)
(0.000999634 -3.47045e-07 0)
(0.000999561 -3.22396e-07 0)
(0.000999172 -4.0992e-07 0)
)
;

boundaryField
{
    sides
    {
        type            slip;
    }
    inlet
    {
        type            fixedValue;
        value           uniform (0.001 0 0);
    }
    outlet
    {
        type            zeroGradient;
    }
    frontAndBack
    {
        type            empty;
    }
}


// ************************************************************************* //
