/*--------------------------------*- C++ -*----------------------------------*\
  =========                 |
  \\      /  F ield         | OpenFOAM: The Open Source CFD Toolbox
   \\    /   O peration     | Website:  https://openfoam.org
    \\  /    A nd           | Version:  9
     \\/     M anipulation  |
\*---------------------------------------------------------------------------*/
FoamFile
{
    format      ascii;
    class       surfaceScalarField;
    location    "37";
    object      phi;
}
// * * * * * * * * * * * * * * * * * * * * * * * * * * * * * * * * * * * * * //

dimensions      [0 4 -1 0 0 0 0];

internalField   nonuniform List<scalar> 
760
(
5.00017e-06
-1.4673e-10
5.00055e-06
-3.77816e-10
5.00107e-06
-5.47793e-10
5.00174e-06
-7.11355e-10
5.00257e-06
-8.77889e-10
5.00356e-06
-1.02503e-09
5.00463e-06
-1.10679e-09
5.00567e-06
-1.06298e-09
5.0065e-06
-8.47681e-10
5.00698e-06
-4.92836e-10
5.00707e-06
-8.83059e-11
5.00668e-06
3.86939e-10
5.00588e-06
8.00093e-10
5.00484e-06
1.05539e-09
5.00368e-06
1.17433e-09
5.00271e-06
9.93908e-10
5.00198e-06
7.36806e-10
5.00179e-06
1.90199e-10
5.00174e-06
4.89059e-11
-3.85185e-10
5.0002e-06
-3.16554e-10
5.00059e-06
-7.66593e-10
5.00113e-06
-1.1122e-09
5.00184e-06
-1.45705e-09
5.00274e-06
-1.81339e-09
5.00381e-06
-2.1386e-09
5.00501e-06
-2.33873e-09
5.00621e-06
-2.2908e-09
5.00723e-06
-1.88827e-09
5.00785e-06
-1.12446e-09
5.00776e-06
-1.94983e-11
5.00728e-06
8.6826e-10
5.00634e-06
1.73791e-09
5.00509e-06
2.32501e-09
5.00383e-06
2.44483e-09
5.00292e-06
1.92034e-09
5.0024e-06
1.27588e-09
5.00209e-06
5.01918e-10
5.00185e-06
2.87236e-10
-1.29451e-10
5.00018e-06
-4.61037e-10
5.00056e-06
-1.13277e-09
5.00111e-06
-1.67266e-09
5.00185e-06
-2.22895e-09
5.00283e-06
-2.82073e-09
5.00403e-06
-3.38322e-09
5.00541e-06
-3.75702e-09
5.00682e-06
-3.73456e-09
5.00803e-06
-3.12017e-09
5.00878e-06
-1.9016e-09
5.00897e-06
-2.25277e-10
5.00829e-06
1.54152e-09
5.00695e-06
3.08409e-09
5.00528e-06
4.00944e-09
5.00365e-06
4.09656e-09
5.00243e-06
3.15577e-09
5.00178e-06
1.94418e-09
5.00165e-06
6.38133e-10
5.00168e-06
2.62086e-10
-2.06139e-10
5.00017e-06
-5.83932e-10
5.00053e-06
-1.47289e-09
5.00109e-06
-2.22627e-09
5.00188e-06
-3.04009e-09
5.00297e-06
-3.93879e-09
5.00439e-06
-4.83991e-09
5.00612e-06
-5.52045e-09
5.00806e-06
-5.70608e-09
5.00993e-06
-5.02773e-09
5.01114e-06
-3.13954e-09
5.01124e-06
-3.32579e-10
5.01004e-06
2.72939e-09
5.00772e-06
5.40223e-09
5.00526e-06
6.49028e-09
5.00361e-06
5.75863e-09
5.00285e-06
3.92823e-09
5.00264e-06
2.16523e-09
5.00247e-06
8.18173e-10
5.00215e-06
5.83303e-10
3.65034e-10
5.00015e-06
-6.73844e-10
5.00045e-06
-1.74188e-09
5.00097e-06
-2.72775e-09
5.00178e-06
-3.85189e-09
5.00299e-06
-5.17568e-09
5.0047e-06
-6.57594e-09
5.00691e-06
-7.76397e-09
5.00952e-06
-8.34936e-09
5.01248e-06
-8.00946e-09
5.01485e-06
-5.55136e-09
5.01487e-06
-3.69937e-10
5.01291e-06
4.71167e-09
5.00875e-06
9.54791e-09
5.0047e-06
1.05518e-08
5.00236e-06
8.11824e-09
5.00186e-06
4.43782e-09
5.00216e-06
1.87233e-09
5.00242e-06
5.75437e-10
5.00221e-06
8.10921e-10
6.63692e-10
5.0001e-06
-7.07696e-10
5.0003e-06
-1.8882e-09
5.00067e-06
-3.06747e-09
5.00136e-06
-4.53355e-09
5.00256e-06
-6.38833e-09
5.00467e-06
-8.69736e-09
5.00773e-06
-1.08479e-08
5.01177e-06
-1.24144e-08
5.01559e-06
-1.189e-08
5.0191e-06
-9.01664e-09
5.02028e-06
-1.59844e-09
5.01609e-06
8.9332e-09
5.00958e-06
1.60966e-08
5.00429e-06
1.58455e-08
5.00227e-06
1.01386e-08
5.00263e-06
4.08571e-09
5.00342e-06
1.08896e-09
5.00354e-06
4.72943e-10
5.00293e-06
1.42557e-09
1.46075e-09
5.00003e-06
-6.65098e-10
5.00003e-06
-1.81835e-09
5.00015e-06
-3.151e-09
5.00051e-06
-4.86995e-09
5.00139e-06
-7.25608e-09
5.00308e-06
-1.03945e-08
5.00695e-06
-1.47139e-08
5.01401e-06
-1.95199e-08
5.02383e-06
-2.16848e-08
5.031e-06
-1.61822e-08
5.02881e-06
6.27786e-10
5.01678e-06
2.08959e-08
5.00426e-06
2.86658e-08
4.99882e-06
2.13207e-08
5.00067e-06
8.29779e-09
5.00298e-06
1.78756e-09
5.00387e-06
2.00375e-10
5.0038e-06
5.53874e-10
5.00317e-06
2.05893e-09
1.72539e-09
4.99991e-06
-4.954e-10
4.99963e-06
-1.46219e-09
4.99924e-06
-2.70614e-09
4.99901e-06
-4.60127e-09
4.99951e-06
-7.7308e-09
5.00054e-06
-1.14084e-08
5.00379e-06
-1.79712e-08
5.00991e-06
-2.56404e-08
5.02497e-06
-3.67112e-08
5.05617e-06
-4.74717e-08
5.05018e-06
7.69237e-09
5.02328e-06
4.77935e-08
4.99822e-06
5.37188e-08
4.99353e-06
2.60342e-08
4.99955e-06
2.30578e-09
5.00419e-06
-2.84819e-09
5.00505e-06
-6.51866e-10
5.00386e-06
1.74469e-09
5.0036e-06
2.31122e-09
1.01335e-09
4.99981e-06
-2.18589e-10
4.99921e-06
-7.92671e-10
4.99802e-06
-1.4487e-09
4.99626e-06
-2.78567e-09
4.99421e-06
-5.63252e-09
4.99393e-06
-1.11024e-08
4.9996e-06
-2.36309e-08
5.01726e-06
-4.32843e-08
5.05577e-06
-7.52549e-08
5.06696e-06
-5.85592e-08
5.04981e-06
2.37846e-08
4.99659e-06
1.01013e-07
4.98938e-06
6.09661e-08
4.99593e-06
1.9477e-08
5.00025e-06
-2.00619e-09
5.00305e-06
-5.62863e-09
5.00268e-06
-2.74937e-10
5.00196e-06
2.46113e-09
5.00262e-06
1.65224e-09
1.15982e-10
4.99989e-06
-2.69505e-11
4.99926e-06
-7.84009e-11
4.99801e-06
-1.23869e-10
4.99546e-06
-1.71649e-10
4.99009e-06
-2.13767e-10
4.97928e-06
-2.58042e-10
4.95597e-06
-2.98921e-10
4.91307e-06
-3.41913e-10
4.83821e-06
-4.15626e-10
4.78006e-06
-4.25869e-10
4.80439e-06
-5.76186e-10
4.90618e-06
-6.8123e-10
4.96785e-06
-7.49695e-10
4.98825e-06
-9.45369e-10
4.98749e-06
-1.22831e-09
4.98337e-06
-1.49274e-09
4.9847e-06
-1.60026e-09
4.98902e-06
-1.85397e-09
4.99256e-06
-1.8894e-09
-2.54332e-09
4.99989e-06
1.65863e-10
4.99926e-06
6.37362e-10
4.99801e-06
1.20775e-09
4.99545e-06
2.44939e-09
4.99007e-06
5.21522e-09
4.97925e-06
1.05972e-08
4.95592e-06
2.30528e-08
4.913e-06
4.26075e-08
4.83812e-06
7.45032e-08
4.77982e-06
5.78556e-08
4.80437e-06
-2.51352e-08
4.90609e-06
-1.02454e-07
4.96782e-06
-6.24993e-08
4.98809e-06
-2.12099e-08
4.9874e-06
-5.24928e-10
4.98304e-06
2.88719e-09
4.98458e-06
-3.12435e-09
4.989e-06
-6.27424e-09
4.99243e-06
-5.3126e-09
-4.94524e-09
4.9998e-06
4.44618e-10
4.99921e-06
1.31678e-09
4.99802e-06
2.46904e-09
4.99626e-06
4.27347e-09
4.9942e-06
7.31249e-09
4.99391e-06
1.09167e-08
4.99957e-06
1.74147e-08
5.01718e-06
2.50154e-08
5.05572e-06
3.59997e-08
5.06719e-06
4.63531e-08
5.04965e-06
-7.81347e-09
4.99619e-06
-4.90994e-08
4.9889e-06
-5.51991e-08
4.99574e-06
-2.80232e-08
5.00018e-06
-4.95893e-09
5.00242e-06
6.67871e-10
5.0018e-06
-2.49546e-09
5.00102e-06
-5.48802e-09
5.00176e-06
-6.04881e-09
-5.91558e-09
4.99991e-06
6.18571e-10
4.99962e-06
1.68344e-09
4.99922e-06
2.93097e-09
4.99898e-06
4.56335e-09
4.99945e-06
6.87483e-09
5.00044e-06
9.9429e-09
5.00362e-06
1.42422e-08
5.0097e-06
1.89436e-08
5.02466e-06
2.10221e-08
5.05566e-06
1.54327e-08
5.0498e-06
-1.79009e-09
5.02293e-06
-2.21228e-08
4.99795e-06
-3.01855e-08
4.99321e-06
-2.32839e-08
4.9987e-06
-1.04311e-08
5.00357e-06
-4.19178e-09
5.00387e-06
-2.78561e-09
5.00248e-06
-4.09349e-09
5.00226e-06
-5.82381e-09
-6.50259e-09
5.00003e-06
6.68147e-10
5.00001e-06
1.76779e-09
5.00013e-06
2.87173e-09
5.00045e-06
4.26431e-09
5.00129e-06
6.0542e-09
5.00295e-06
8.29547e-09
5.00681e-06
1.03771e-08
5.01387e-06
1.18593e-08
5.02366e-06
1.12483e-08
5.03078e-06
8.26634e-09
5.02849e-06
6.06898e-10
5.01636e-06
-9.97576e-09
5.00359e-06
-1.74183e-08
4.99786e-06
-1.75303e-08
4.99951e-06
-1.20663e-08
5.00174e-06
-6.41045e-09
5.00255e-06
-3.58916e-09
5.00226e-06
-3.79891e-09
5.00131e-06
-4.86734e-09
-5.94756e-09
5.0001e-06
6.43229e-10
5.00028e-06
1.64006e-09
5.00063e-06
2.55837e-09
5.00129e-06
3.61949e-09
5.00246e-06
4.88495e-09
5.00453e-06
6.22462e-09
5.00754e-06
7.35692e-09
5.01149e-06
7.87933e-09
5.01521e-06
7.50015e-09
5.01861e-06
4.86009e-09
5.01965e-06
-4.46842e-10
5.01533e-06
-5.65863e-09
5.00864e-06
-1.07162e-08
5.00321e-06
-1.2088e-08
5.00099e-06
-9.83516e-09
5.00114e-06
-6.5533e-09
5.00169e-06
-4.13413e-09
5.00145e-06
-3.55024e-09
5.00049e-06
-3.89788e-09
-4.95137e-09
5.00015e-06
5.61057e-10
5.00044e-06
1.39138e-09
5.00093e-06
2.0864e-09
5.0017e-06
2.84646e-09
5.00287e-06
3.69935e-09
5.00452e-06
4.55745e-09
5.00666e-06
5.19707e-09
5.00919e-06
5.32454e-09
5.01213e-06
4.53541e-09
5.0145e-06
2.46655e-09
5.01424e-06
-2.05506e-10
5.01217e-06
-3.59073e-09
5.00785e-06
-6.39316e-09
5.0036e-06
-7.83564e-09
5.00105e-06
-7.27258e-09
5.00025e-06
-5.73948e-09
5.00023e-06
-4.09602e-09
5.00002e-06
-3.32179e-09
4.99934e-06
-3.19883e-09
-4.14959e-09
5.00017e-06
4.40632e-10
5.00052e-06
1.07125e-09
5.00105e-06
1.56711e-09
5.00181e-06
2.0777e-09
5.00284e-06
2.63175e-09
5.0042e-06
3.15579e-09
5.00587e-06
3.50329e-09
5.00773e-06
3.45272e-09
5.00942e-06
2.82564e-09
5.01034e-06
1.53406e-09
5.01049e-06
-3.68096e-10
5.00911e-06
-2.21535e-09
5.00663e-06
-3.89947e-09
5.00382e-06
-5.00875e-09
5.00168e-06
-5.11838e-09
5.00047e-06
-4.50884e-09
4.99983e-06
-3.43266e-09
4.99932e-06
-2.79053e-09
4.99863e-06
-2.49678e-09
-3.19492e-09
5.00018e-06
2.99655e-10
5.00055e-06
7.20014e-10
5.00107e-06
1.03746e-09
5.00178e-06
1.34841e-09
5.0027e-06
1.67523e-09
5.00384e-06
1.97287e-09
5.00516e-06
2.14625e-09
5.00654e-06
2.05467e-09
5.00775e-06
1.60315e-09
5.00848e-06
8.02015e-10
5.00829e-06
-1.77565e-10
5.00741e-06
-1.32932e-09
5.00581e-06
-2.28312e-09
5.00383e-06
-3.01098e-09
5.00195e-06
-3.21391e-09
5.00048e-06
-3.00523e-09
4.99945e-06
-2.37883e-09
4.99868e-06
-2.01236e-09
4.99792e-06
-1.73149e-09
-2.26089e-09
5.00017e-06
1.67627e-10
5.00052e-06
3.70956e-10
5.00101e-06
5.22151e-10
5.00167e-06
6.69425e-10
5.00249e-06
8.20358e-10
5.00347e-06
9.55813e-10
5.00455e-06
1.0328e-09
5.0056e-06
9.85748e-10
5.00642e-06
7.62856e-10
5.00687e-06
3.46597e-10
5.00686e-06
-1.62193e-10
5.00615e-06
-6.1723e-10
5.00493e-06
-1.04523e-09
5.00333e-06
-1.39492e-09
5.00166e-06
-1.51329e-09
5.00016e-06
-1.4852e-09
4.99901e-06
-1.21229e-09
4.99809e-06
-1.09336e-09
4.99728e-06
-9.22444e-10
-1.41439e-09
5.0002e-06
5.00057e-06
5.00106e-06
5.0017e-06
5.00249e-06
5.00341e-06
5.00442e-06
5.00538e-06
5.00614e-06
5.00647e-06
5.00631e-06
5.0057e-06
5.00466e-06
5.00328e-06
5.00179e-06
5.00032e-06
4.99911e-06
4.99801e-06
4.99707e-06
)
;

boundaryField
{
    sides
    {
        type            calculated;
        value           uniform 0;
    }
    inlet
    {
        type            calculated;
        value           nonuniform List<scalar> 
20
(
-5e-06
-5e-06
-5e-06
-5e-06
-5e-06
-5e-06
-5e-06
-5e-06
-5e-06
-5e-06
-5e-06
-5e-06
-5e-06
-5e-06
-5e-06
-5e-06
-5e-06
-5e-06
-5e-06
-5e-06
)
;
    }
    outlet
    {
        type            calculated;
        value           nonuniform List<scalar> 
20
(
5.00213e-06
5.00159e-06
5.00176e-06
5.00158e-06
5.00192e-06
5.00214e-06
5.0029e-06
5.00431e-06
5.00352e-06
4.99521e-06
4.99483e-06
5.00273e-06
5.00285e-06
5.00075e-06
4.9995e-06
4.99854e-06
4.99768e-06
4.99699e-06
4.99642e-06
4.99565e-06
)
;
    }
    frontAndBack
    {
        type            empty;
        value           nonuniform List<scalar> 0();
    }
}


// ************************************************************************* //
