/*--------------------------------*- C++ -*----------------------------------*\
  =========                 |
  \\      /  F ield         | OpenFOAM: The Open Source CFD Toolbox
   \\    /   O peration     | Website:  https://openfoam.org
    \\  /    A nd           | Version:  9
     \\/     M anipulation  |
\*---------------------------------------------------------------------------*/
FoamFile
{
    format      ascii;
    class       volVectorField;
    location    "97";
    object      ddtCorrDdt0(hU);
}
// * * * * * * * * * * * * * * * * * * * * * * * * * * * * * * * * * * * * * //

dimensions      [0 2 -2 0 0 0 0];

internalField   nonuniform List<vector> 
400
(
(2.06105e-09 -6.16216e-10 0)
(-1.80136e-09 6.59221e-10 0)
(-1.71591e-09 -3.14296e-10 0)
(-1.01954e-09 -1.37534e-09 0)
(-6.76275e-10 -1.31899e-10 0)
(-4.35604e-10 -7.0373e-10 0)
(-6.38463e-10 8.796e-10 0)
(6.86209e-10 -3.2592e-10 0)
(-1.14217e-10 8.43362e-11 0)
(1.35309e-09 -8.19391e-10 0)
(-9.38025e-11 -1.5008e-09 0)
(1.52781e-09 1.70375e-10 0)
(1.78194e-09 -1.21057e-09 0)
(1.94664e-09 -6.68661e-10 0)
(2.37627e-09 -1.87519e-09 0)
(-1.72146e-09 -1.68499e-09 0)
(-3.57908e-09 1.1746e-10 0)
(-2.44143e-09 1.95842e-09 0)
(-1.69511e-09 1.92906e-09 0)
(1.04349e-09 1.27349e-09 0)
(1.26198e-09 1.7002e-10 0)
(-4.20827e-10 1.01198e-09 0)
(-1.56802e-09 -1.46908e-09 0)
(-9.9355e-10 -2.02309e-09 0)
(-1.65969e-10 -5.04214e-10 0)
(3.08356e-10 -6.90984e-10 0)
(-1.58516e-10 1.45926e-09 0)
(1.54489e-10 -2.84831e-11 0)
(7.1064e-10 -1.53521e-09 0)
(-1.37791e-09 -1.84764e-09 0)
(1.13305e-09 -2.91292e-09 0)
(1.19141e-09 -1.89099e-09 0)
(1.70028e-09 -2.31619e-09 0)
(2.2158e-09 -3.18854e-09 0)
(1.30721e-09 -4.34615e-09 0)
(1.13331e-09 -4.07144e-09 0)
(-2.84453e-10 -1.58783e-09 0)
(-9.11016e-10 1.63522e-09 0)
(4.06007e-10 3.03579e-09 0)
(-1.25099e-11 1.75371e-09 0)
(-7.29329e-10 1.14038e-10 0)
(-4.97992e-10 -7.68355e-10 0)
(-1.22589e-09 -8.27623e-10 0)
(-7.89219e-10 4.68337e-10 0)
(7.07438e-10 9.65833e-11 0)
(2.98215e-10 9.04458e-10 0)
(1.02313e-09 1.10649e-09 0)
(-9.13351e-10 -1.05007e-09 0)
(5.47581e-10 -2.68216e-09 0)
(4.18053e-10 -7.28247e-09 0)
(-2.02425e-09 6.91467e-10 0)
(3.20652e-09 -6.8626e-09 0)
(5.90658e-10 -3.28546e-09 0)
(1.03934e-09 -3.39166e-09 0)
(2.10052e-09 -4.77934e-09 0)
(2.55009e-09 -4.6178e-09 0)
(1.73362e-09 -4.18114e-09 0)
(1.09404e-09 -2.22725e-09 0)
(1.37811e-09 6.58753e-11 0)
(-7.20157e-10 -1.32333e-11 0)
(-1.07786e-09 -2.67065e-09 0)
(5.983e-10 -2.61223e-09 0)
(-2.6079e-11 1.17844e-09 0)
(6.87269e-11 3.23174e-09 0)
(1.90352e-10 2.24717e-09 0)
(8.21869e-10 1.78105e-09 0)
(-6.5221e-10 1.88807e-10 0)
(9.75648e-10 -3.55111e-09 0)
(-5.63476e-09 -2.46992e-09 0)
(6.61393e-09 -7.7571e-09 0)
(-2.71098e-09 -3.73514e-09 0)
(-7.56482e-09 6.45142e-09 0)
(6.65472e-09 -5.86441e-09 0)
(-1.70306e-09 -1.8106e-09 0)
(-5.05678e-10 -5.23655e-10 0)
(3.05898e-09 -2.83757e-09 0)
(2.26967e-09 -4.62765e-09 0)
(1.84678e-09 -4.61231e-09 0)
(1.87738e-09 -3.59343e-09 0)
(1.89854e-11 -1.56882e-09 0)
(1.61629e-10 -3.44951e-09 0)
(2.37529e-09 -2.37626e-09 0)
(2.13324e-09 1.38463e-09 0)
(7.44187e-10 3.68538e-09 0)
(-8.74896e-11 2.61489e-09 0)
(-1.04901e-09 1.17686e-09 0)
(-3.89202e-10 -2.54916e-09 0)
(-3.47791e-09 6.86823e-10 0)
(3.14266e-09 -9.55666e-09 0)
(-1.45693e-08 1.9323e-08 0)
(2.37056e-08 -9.28701e-09 0)
(-1.57739e-08 1.68607e-08 0)
(-1.5317e-08 1.28355e-08 0)
(6.47482e-09 -4.66124e-10 0)
(-1.79134e-09 2.09263e-09 0)
(-2.51196e-09 1.83534e-09 0)
(4.67032e-10 -1.584e-09 0)
(1.79792e-09 -3.91012e-09 0)
(2.95763e-09 -4.13958e-09 0)
(3.00702e-09 -1.8755e-09 0)
(1.02904e-09 -1.30843e-09 0)
(3.73157e-09 -4.62961e-10 0)
(3.41251e-09 8.86836e-10 0)
(1.45682e-09 1.45411e-09 0)
(-1.20946e-09 -6.15508e-11 0)
(-2.20392e-09 -1.98756e-09 0)
(-6.70829e-10 -4.51787e-10 0)
(-5.93794e-09 -2.37754e-09 0)
(1.18775e-08 9.73451e-09 0)
(-7.0489e-09 1.76576e-08 0)
(-1.04797e-08 2.94482e-08 0)
(2.97682e-08 -9.53591e-09 0)
(-3.03865e-08 2.4213e-08 0)
(-1.96361e-08 1.49671e-08 0)
(2.65377e-09 4.409e-09 0)
(-9.56153e-10 4.05598e-09 0)
(-3.77979e-09 2.95911e-09 0)
(-1.54569e-09 1.20098e-09 0)
(1.90452e-09 -2.60406e-10 0)
(4.3445e-09 -5.37006e-10 0)
(1.01852e-09 1.6933e-09 0)
(3.51947e-09 1.92501e-09 0)
(3.39638e-09 9.13227e-10 0)
(7.65696e-10 -1.45882e-09 0)
(-1.90991e-09 -3.69853e-09 0)
(-1.7781e-09 -3.04425e-09 0)
(-4.47138e-09 6.27302e-10 0)
(8.61051e-09 2.10064e-09 0)
(-7.24839e-09 1.95419e-08 0)
(5.06703e-08 -2.73932e-08 0)
(-7.11161e-08 2.03116e-07 0)
(1.31025e-09 1.5795e-08 0)
(2.92037e-08 -1.2636e-08 0)
(-2.2287e-08 7.11263e-09 0)
(-1.48927e-08 6.29204e-09 0)
(-2.0307e-09 4.54552e-09 0)
(-2.27999e-09 5.87038e-09 0)
(-3.24825e-09 6.33029e-09 0)
(-1.20101e-09 4.39662e-09 0)
(2.35143e-09 1.49521e-09 0)
(3.29899e-10 3.495e-09 0)
(2.50862e-09 3.44774e-09 0)
(1.70175e-09 9.47531e-10 0)
(-6.67555e-10 -3.09478e-09 0)
(-2.04383e-09 -4.77461e-09 0)
(-1.25868e-09 -1.76053e-09 0)
(1.03196e-09 2.82352e-09 0)
(4.11235e-09 1.00938e-08 0)
(-1.09076e-08 -1.05137e-08 0)
(1.73808e-07 3.64199e-09 0)
(1.08616e-07 -2.1779e-07 0)
(-2.53559e-07 -2.73189e-08 0)
(-1.78104e-08 -2.08551e-08 0)
(1.4088e-08 -2.01309e-08 0)
(7.47708e-10 -4.02031e-09 0)
(8.22238e-10 2.89794e-09 0)
(-1.0532e-09 5.2723e-09 0)
(-3.707e-09 7.07337e-09 0)
(-3.88158e-09 6.10552e-09 0)
(-1.75997e-09 2.97531e-09 0)
(-5.56442e-11 3.26006e-09 0)
(8.86739e-10 3.01608e-09 0)
(-3.72701e-10 3.10724e-10 0)
(-2.40611e-09 -3.25641e-09 0)
(-1.37409e-09 -2.14146e-09 0)
(1.66501e-09 7.33899e-10 0)
(3.21901e-09 3.0102e-09 0)
(-3.44617e-09 3.49874e-09 0)
(8.28724e-09 -1.57286e-08 0)
(-1.67105e-07 1.0622e-09 0)
(-1.12422e-07 -2.20601e-07 0)
(2.47293e-07 -1.77051e-08 0)
(2.17816e-08 -1.98065e-08 0)
(2.4524e-09 -1.98162e-08 0)
(1.87587e-08 -8.61096e-09 0)
(1.18306e-08 -2.20295e-09 0)
(-7.14571e-10 2.45203e-09 0)
(-1.00042e-09 3.84006e-09 0)
(-4.19258e-09 3.68312e-09 0)
(-6.93844e-09 1.09612e-09 0)
(-1.83948e-10 1.25599e-09 0)
(-5.42863e-10 8.65109e-10 0)
(-2.274e-09 -6.46615e-10 0)
(-2.48205e-09 -1.64119e-09 0)
(-1.07087e-10 9.0636e-10 0)
(2.42768e-09 3.12836e-09 0)
(3.30584e-09 -1.54524e-09 0)
(-8.67655e-09 -8.01695e-09 0)
(6.09545e-09 5.27752e-09 0)
(-5.67391e-08 -9.17179e-09 0)
(8.54965e-08 1.78864e-07 0)
(-1.64857e-08 2.67782e-08 0)
(-4.39871e-08 4.31519e-09 0)
(2.23438e-08 1.02058e-08 0)
(2.07896e-08 1.77037e-10 0)
(1.15976e-08 -4.54705e-09 0)
(1.16008e-08 -2.75391e-09 0)
(-4.13865e-11 -2.14183e-09 0)
(-4.56459e-09 -1.15716e-09 0)
(-3.74516e-09 -8.45702e-10 0)
(2.71507e-10 -8.5853e-10 0)
(-1.43328e-09 -1.51778e-09 0)
(-2.58768e-09 -9.19984e-10 0)
(-1.87962e-09 4.55595e-10 0)
(1.24163e-09 2.41371e-09 0)
(1.48102e-09 9.17133e-10 0)
(-1.92567e-09 -8.33104e-10 0)
(-5.9477e-11 -8.02246e-09 0)
(1.07738e-09 1.0582e-08 0)
(1.48833e-08 8.60199e-09 0)
(-5.73422e-08 7.47135e-08 0)
(1.18753e-09 -5.65289e-09 0)
(1.14694e-08 3.32712e-08 0)
(-4.68109e-09 2.18639e-08 0)
(-5.0488e-09 3.78428e-09 0)
(3.33496e-09 -2.55677e-09 0)
(4.72667e-09 -5.20776e-09 0)
(1.3145e-09 -5.12895e-09 0)
(-1.89308e-09 -3.89202e-09 0)
(-3.37636e-09 -1.0133e-09 0)
(6.78332e-10 -1.48016e-09 0)
(-1.69591e-09 -2.85882e-09 0)
(-1.88342e-09 -8.67838e-10 0)
(-7.90715e-10 1.72699e-09 0)
(8.37766e-10 1.35814e-09 0)
(1.7807e-09 -1.52427e-09 0)
(-2.63755e-09 -1.6043e-09 0)
(4.59862e-09 9.67805e-09 0)
(-1.63104e-08 -4.16457e-09 0)
(6.20735e-08 1.03616e-08 0)
(4.1168e-07 -7.12615e-08 0)
(-6.9712e-08 6.60158e-09 0)
(1.19751e-08 -4.31614e-10 0)
(-1.60488e-08 -2.09999e-09 0)
(-1.00265e-08 4.90194e-09 0)
(1.98782e-10 4.14988e-09 0)
(1.34733e-09 -2.80652e-10 0)
(2.08989e-10 -2.63179e-09 0)
(-1.243e-09 -3.38975e-09 0)
(-1.44033e-09 -1.59461e-09 0)
(2.71883e-10 -6.52521e-10 0)
(-1.71046e-09 -2.51518e-09 0)
(-7.4465e-10 -1.23985e-09 0)
(3.95001e-11 1.7311e-09 0)
(1.75251e-10 3.45462e-10 0)
(1.0567e-09 -2.54758e-09 0)
(4.40261e-09 -1.8096e-09 0)
(-3.20275e-09 8.26525e-09 0)
(1.80803e-08 7.11151e-09 0)
(-7.16984e-08 -1.27683e-08 0)
(-4.10593e-07 -3.74912e-08 0)
(1.00906e-07 -1.18138e-08 0)
(-1.56206e-08 -1.61634e-08 0)
(5.46775e-09 -4.9386e-10 0)
(8.51187e-09 6.8301e-09 0)
(-1.33859e-09 4.62838e-09 0)
(-4.45309e-09 1.09198e-09 0)
(-3.57537e-09 -1.19156e-09 0)
(-2.46423e-09 -2.82124e-09 0)
(-1.5934e-10 -1.64171e-09 0)
(-9.07527e-10 2.66119e-10 0)
(-1.95047e-09 -1.06571e-09 0)
(1.34593e-10 -1.66865e-09 0)
(9.10368e-10 6.43187e-10 0)
(-3.15998e-10 1.23534e-09 0)
(9.2024e-10 -1.31472e-09 0)
(4.74184e-09 -2.96882e-09 0)
(6.3337e-09 -3.66978e-09 0)
(-1.25857e-08 8.15608e-09 0)
(8.23747e-09 -7.43516e-09 0)
(4.07088e-08 6.75064e-08 0)
(-4.78558e-08 -1.31043e-09 0)
(2.50367e-08 8.08541e-09 0)
(2.09302e-08 1.0258e-08 0)
(1.6235e-09 3.46246e-09 0)
(-5.63245e-09 -1.15809e-09 0)
(-6.40964e-09 -2.4578e-09 0)
(-4.88154e-09 -2.83343e-09 0)
(-1.99003e-09 -3.14036e-09 0)
(2.37864e-09 -1.57928e-09 0)
(-1.80804e-09 -1.96492e-10 0)
(-1.91793e-09 3.66139e-10 0)
(4.12655e-10 -1.06169e-09 0)
(1.66151e-09 -3.41772e-10 0)
(-2.11387e-10 2.50883e-09 0)
(-7.86795e-10 2.345e-09 0)
(2.8869e-09 -2.70434e-09 0)
(4.95997e-09 -8.4267e-09 0)
(8.26671e-10 -8.98598e-09 0)
(6.60995e-09 1.80417e-08 0)
(-6.28194e-09 -1.93003e-08 0)
(1.63605e-08 1.39637e-08 0)
(1.38391e-08 1.39514e-08 0)
(1.37911e-09 1.90432e-09 0)
(-6.6261e-09 -3.22462e-09 0)
(-9.90722e-09 -5.4141e-09 0)
(-7.63746e-09 -5.65972e-09 0)
(-3.68686e-09 -4.20689e-09 0)
(1.23464e-09 -1.90854e-09 0)
(5.90692e-09 -3.35238e-10 0)
(-1.05737e-09 -1.33363e-09 0)
(-1.07737e-09 8.26426e-10 0)
(5.10348e-10 1.13181e-09 0)
(1.75018e-09 -5.19537e-10 0)
(5.77373e-10 2.31179e-09 0)
(-2.08085e-09 4.2747e-09 0)
(-2.25627e-10 1.95554e-09 0)
(1.49164e-09 -7.30977e-09 0)
(2.92116e-09 -1.01054e-08 0)
(-5.21665e-09 -9.53344e-09 0)
(-3.06223e-09 -4.75357e-09 0)
(9.08371e-09 -1.43537e-09 0)
(1.72615e-09 -6.60447e-09 0)
(-5.88968e-09 -8.2846e-09 0)
(-1.26928e-08 -8.80382e-09 0)
(-1.14386e-08 -6.74474e-09 0)
(-5.27164e-09 -5.10033e-09 0)
(7.9202e-10 -2.42285e-09 0)
(5.43972e-09 1.55254e-09 0)
(7.08437e-09 1.90792e-09 0)
(7.74432e-10 -8.81386e-10 0)
(3.59693e-10 5.97764e-10 0)
(5.04861e-10 2.14668e-09 0)
(1.26743e-09 -1.37779e-10 0)
(5.93117e-10 -5.75959e-10 0)
(-1.32216e-09 2.87932e-09 0)
(-2.93164e-09 4.1078e-09 0)
(-7.00605e-10 6.9726e-10 0)
(-5.02758e-10 -5.03834e-09 0)
(-5.80077e-10 -6.67442e-09 0)
(2.29503e-10 -1.88691e-09 0)
(-3.50509e-10 -8.00101e-09 0)
(-2.03532e-09 -1.04373e-08 0)
(-8.93106e-09 -1.05954e-08 0)
(-1.06205e-08 -6.68799e-09 0)
(-6.2337e-09 -2.12149e-09 0)
(-7.0882e-10 1.51858e-10 0)
(4.90156e-09 2.4178e-09 0)
(7.01962e-09 5.04445e-09 0)
(3.85277e-09 3.15543e-09 0)
(1.3044e-09 1.39209e-09 0)
(8.22131e-10 9.29423e-10 0)
(4.68459e-10 2.12566e-10 0)
(6.92339e-10 -6.58499e-10 0)
(7.12636e-10 -3.01423e-09 0)
(-3.49636e-10 -6.78218e-10 0)
(-2.59144e-09 2.45725e-09 0)
(-1.88787e-09 5.02998e-09 0)
(-1.01774e-09 3.30489e-09 0)
(1.31929e-09 3.30747e-09 0)
(2.02833e-10 3.77369e-10 0)
(-4.58259e-10 -2.20613e-09 0)
(-2.26208e-09 -4.72343e-09 0)
(-4.29241e-09 -3.05661e-09 0)
(-2.60198e-09 1.56575e-09 0)
(-5.29835e-10 4.16897e-09 0)
(3.32218e-09 6.15895e-09 0)
(7.15794e-09 7.02647e-09 0)
(4.97654e-09 5.34372e-09 0)
(-1.6089e-09 1.92302e-09 0)
(-6.07767e-10 2.38019e-09 0)
(-7.62485e-11 1.50501e-09 0)
(2.62825e-10 -1.61147e-09 0)
(8.1062e-10 -1.63628e-09 0)
(1.14808e-09 -2.75431e-09 0)
(-1.45442e-10 -2.88135e-09 0)
(-1.76943e-09 9.46065e-11 0)
(-2.19456e-09 3.25134e-09 0)
(-2.35436e-10 5.69751e-09 0)
(2.82624e-11 6.64252e-09 0)
(2.09615e-10 5.86127e-09 0)
(1.39766e-09 3.73582e-09 0)
(9.7543e-10 1.841e-09 0)
(2.2839e-09 4.30942e-09 0)
(2.35367e-09 6.10179e-09 0)
(2.74427e-09 6.45093e-09 0)
(4.90487e-09 7.98145e-09 0)
(4.3663e-09 7.36352e-09 0)
(-2.14342e-10 2.95999e-09 0)
(-4.67402e-09 -4.02314e-11 0)
(-2.8195e-09 1.00666e-09 0)
(-7.9775e-10 8.10317e-10 0)
(1.36219e-10 -9.24304e-10 0)
(1.41956e-09 -9.84646e-10 0)
(1.70405e-09 -1.02799e-09 0)
(-1.37047e-10 -1.45269e-09 0)
(-1.82758e-09 -3.6465e-10 0)
(-2.11408e-09 8.85932e-10 0)
(1.28583e-12 2.41009e-09 0)
(9.50453e-10 3.02593e-09 0)
(1.12336e-10 4.53833e-09 0)
(-6.44401e-10 3.04643e-09 0)
(1.91436e-09 2.12229e-09 0)
(4.32098e-09 3.00623e-09 0)
(3.31731e-09 3.10099e-09 0)
(3.57187e-09 2.96643e-09 0)
(4.10581e-09 3.46776e-09 0)
(6.76754e-10 2.96547e-09 0)
(-3.71061e-09 8.25833e-10 0)
(-5.16135e-09 -3.41472e-10 0)
)
;

boundaryField
{
    sides
    {
        type            calculated;
        value           nonuniform List<vector> 
40
(
(-2.8195e-09 0 0)
(-7.9775e-10 0 0)
(1.36219e-10 0 0)
(1.41956e-09 0 0)
(1.70405e-09 0 0)
(-1.37047e-10 0 0)
(-1.82758e-09 0 0)
(-2.11408e-09 0 0)
(1.28583e-12 0 0)
(9.50453e-10 0 0)
(1.12336e-10 0 0)
(-6.44401e-10 0 0)
(1.91436e-09 0 0)
(4.32098e-09 0 0)
(3.31731e-09 0 0)
(3.57187e-09 0 0)
(4.10581e-09 0 0)
(6.76754e-10 0 0)
(-3.71061e-09 0 0)
(-5.16135e-09 0 0)
(2.06105e-09 0 0)
(-1.80136e-09 0 0)
(-1.71591e-09 0 0)
(-1.01954e-09 0 0)
(-6.76275e-10 0 0)
(-4.35604e-10 0 0)
(-6.38463e-10 0 0)
(6.86209e-10 0 0)
(-1.14217e-10 0 0)
(1.35309e-09 0 0)
(-9.38025e-11 0 0)
(1.52781e-09 0 0)
(1.78194e-09 0 0)
(1.94664e-09 0 0)
(2.37627e-09 0 0)
(-1.72146e-09 0 0)
(-3.57908e-09 0 0)
(-2.44143e-09 0 0)
(-1.69511e-09 0 0)
(1.04349e-09 0 0)
)
;
    }
    inlet
    {
        type            calculated;
        value           uniform (0 0 0);
    }
    outlet
    {
        type            calculated;
        value           nonuniform List<vector> 
20
(
(1.04349e-09 1.27349e-09 0)
(-1.25099e-11 1.75371e-09 0)
(-7.20157e-10 -1.32333e-11 0)
(1.89854e-11 -1.56882e-09 0)
(3.00702e-09 -1.8755e-09 0)
(4.3445e-09 -5.37006e-10 0)
(2.35143e-09 1.49521e-09 0)
(-1.75997e-09 2.97531e-09 0)
(-6.93844e-09 1.09612e-09 0)
(-3.74516e-09 -8.45702e-10 0)
(-3.37636e-09 -1.0133e-09 0)
(-1.44033e-09 -1.59461e-09 0)
(-1.5934e-10 -1.64171e-09 0)
(2.37864e-09 -1.57928e-09 0)
(5.90692e-09 -3.35238e-10 0)
(7.08437e-09 1.90792e-09 0)
(3.85277e-09 3.15543e-09 0)
(-1.6089e-09 1.92302e-09 0)
(-4.67402e-09 -4.02314e-11 0)
(-5.16135e-09 -3.41472e-10 0)
)
;
    }
    frontAndBack
    {
        type            empty;
    }
}


// ************************************************************************* //
