/*--------------------------------*- C++ -*----------------------------------*\
  =========                 |
  \\      /  F ield         | OpenFOAM: The Open Source CFD Toolbox
   \\    /   O peration     | Website:  https://openfoam.org
    \\  /    A nd           | Version:  9
     \\/     M anipulation  |
\*---------------------------------------------------------------------------*/
FoamFile
{
    format      ascii;
    class       surfaceScalarField;
    location    "97";
    object      ddtCorrDdt0(phi);
}
// * * * * * * * * * * * * * * * * * * * * * * * * * * * * * * * * * * * * * //

dimensions      [0 4 -2 0 0 0 0];

internalField   nonuniform List<scalar> 
760
(
-1.12479e-11
5.34677e-12
7.01578e-13
8.14264e-12
-6.24242e-12
-1.19356e-11
-7.98826e-12
-1.76974e-11
9.24719e-13
8.58189e-13
-1.2762e-11
-7.31709e-12
1.06567e-11
1.03938e-11
-6.51086e-13
-4.53815e-12
5.73514e-12
1.39556e-12
1.00507e-12
-1.58962e-12
-2.88952e-12
-1.36743e-11
1.49096e-11
4.12607e-12
5.02551e-12
-1.62774e-11
1.3605e-11
-8.73463e-12
6.49006e-12
-2.01646e-11
-1.24804e-11
-1.75314e-11
-2.52908e-11
9.67888e-13
-1.10905e-11
1.07899e-11
1.83976e-12
1.3643e-11
2.70174e-12
5.92709e-12
9.02855e-12
-6.67018e-12
3.13951e-12
-1.19137e-11
-1.39568e-11
5.41771e-12
-6.81685e-12
-5.89046e-12
-3.52484e-12
2.62293e-12
9.79146e-13
-6.56611e-13
6.09516e-12
6.60923e-12
3.39777e-12
-3.17671e-12
-1.8138e-11
-6.74962e-12
-1.08025e-11
1.30165e-11
-1.50888e-11
1.17446e-12
-2.60912e-11
1.40944e-11
-1.05551e-11
4.03615e-12
-2.53634e-11
1.01144e-11
-2.52355e-11
6.34805e-12
-2.40884e-11
-6.07071e-12
-1.63346e-11
-6.57864e-12
3.2e-13
5.59156e-12
8.26902e-12
5.36229e-12
7.42647e-12
-6.91329e-12
-1.90817e-11
-1.17638e-11
-4.06274e-12
3.78576e-12
8.50229e-12
1.1538e-11
-3.81246e-12
4.67947e-12
8.54171e-12
8.99021e-12
1.84686e-14
5.35282e-12
-6.85305e-12
-1.60933e-11
9.61026e-12
-1.06588e-11
-1.14116e-11
-6.85115e-11
6.38669e-12
2.93791e-11
1.28499e-11
-4.61074e-11
-1.28472e-12
-2.04738e-11
6.68086e-12
-9.94983e-12
1.40432e-11
-2.10419e-11
1.42596e-11
-2.10813e-11
6.00422e-12
-2.25536e-11
6.71844e-12
-1.75841e-11
1.11996e-12
-9.25243e-12
-1.33756e-12
4.43625e-12
-2.06542e-11
-8.30479e-12
-1.54708e-11
3.86366e-12
8.95041e-12
3.00541e-12
2.23857e-11
1.45496e-12
1.83583e-11
7.49395e-12
8.88017e-12
-1.0286e-11
-5.60106e-12
1.15026e-12
-2.18674e-11
-3.58417e-11
-1.80836e-11
7.20185e-11
-1.38024e-11
-8.18902e-11
-7.30606e-11
2.92098e-11
1.1382e-10
7.34497e-12
-2.88292e-11
-1.4649e-11
-5.65394e-12
1.24748e-11
2.0677e-11
1.28627e-11
-8.87402e-13
1.0917e-11
-2.046e-11
1.25525e-11
-2.43461e-11
2.24367e-12
-1.87453e-11
-8.09596e-12
7.72697e-12
-1.4793e-11
9.4072e-12
-9.23287e-12
1.33467e-11
5.37684e-12
7.62616e-13
1.62343e-11
-3.84059e-12
9.04636e-12
2.21462e-12
1.72716e-12
-2.69892e-11
-2.25587e-11
1.6802e-11
3.13452e-11
-5.48554e-11
-8.60522e-11
2.62461e-11
2.41129e-10
8.35976e-11
9.334e-12
-1.59073e-10
5.19968e-11
1.56754e-11
1.70213e-10
1.11583e-11
1.01359e-11
-1.67204e-11
-2.7481e-12
-6.18817e-12
2.1238e-11
5.7486e-12
7.72574e-12
1.37007e-11
-6.25523e-12
1.52322e-11
-1.04447e-11
-5.55546e-12
1.12328e-11
1.63517e-12
1.99913e-11
4.40516e-12
2.24556e-11
3.32767e-12
-5.2233e-12
-1.23752e-12
-5.47592e-12
-9.81665e-12
-2.42101e-11
-2.33987e-11
2.25486e-11
1.86457e-11
-1.03053e-10
-5.7928e-11
2.15744e-10
2.33e-10
-2.54374e-10
-1.30079e-10
1.96223e-10
3.26038e-10
-3.10369e-11
-2.38612e-10
-1.76417e-10
6.40007e-12
-1.14779e-11
1.30936e-10
1.01838e-11
4.19365e-11
-2.20163e-11
1.66225e-11
-1.66486e-11
2.36967e-11
4.10285e-12
2.33341e-11
1.7423e-11
1.26652e-11
2.65248e-12
1.17647e-11
1.60024e-11
1.98875e-11
1.50402e-11
2.05069e-11
5.30643e-12
-8.95929e-12
-1.43121e-11
-2.09419e-11
-2.87752e-11
1.05069e-11
-6.05289e-12
-6.26339e-11
-1.23852e-11
8.74984e-11
8.98377e-11
5.64746e-11
-1.68648e-11
7.21082e-11
-1.85132e-10
-3.89336e-10
1.35727e-09
2.49054e-10
3.34558e-10
-3.47094e-11
-1.7518e-10
-1.12667e-10
-8.2762e-11
-2.75101e-11
1.14091e-11
-1.31463e-11
1.33167e-11
-1.64917e-11
2.46362e-11
-1.00913e-11
3.4725e-11
4.31202e-12
3.12026e-11
1.2121e-11
9.3423e-12
1.9407e-11
1.38507e-11
1.92514e-11
7.48913e-12
2.44569e-12
-2.0821e-11
-1.84475e-11
-3.96795e-12
-2.06635e-11
-4.30706e-12
-7.73208e-12
7.8297e-12
5.1362e-11
5.72004e-11
-3.63478e-11
-2.05064e-10
-8.36341e-11
2.1964e-09
2.12888e-10
-1.68343e-09
-6.14088e-08
-3.53932e-10
-5.81445e-10
5.87612e-11
-4.28756e-11
3.21497e-11
-1.01121e-10
2.23783e-12
-4.4361e-11
-3.10317e-12
-1.55768e-11
-1.12454e-11
1.74226e-11
-1.90987e-11
2.50406e-11
-1.36704e-11
2.63223e-11
1.47338e-11
7.50973e-12
1.25186e-11
2.73013e-12
1.02452e-11
-9.93178e-12
-1.17271e-12
-2.17871e-11
-1.51964e-11
-1.71477e-12
1.61234e-12
3.79582e-11
1.29531e-11
1.49786e-11
-1.87258e-11
-6.98e-11
3.62654e-11
1.87341e-10
-8.82762e-11
-2.1463e-09
-1.62347e-10
1.62597e-09
1.08134e-09
3.51918e-10
4.68449e-10
-1.33075e-11
-1.40116e-10
7.83881e-11
-6.00424e-11
8.2832e-11
-3.76511e-11
1.90818e-11
-7.81559e-12
-2.35517e-12
1.82786e-09
-1.48094e-11
5.93025e-12
-2.39099e-11
3.28911e-12
6.76477e-10
3.66245e-12
-7.96936e-13
-6.2076e-12
-2.41275e-12
-2.40904e-11
-5.91499e-12
-1.16371e-11
-1.91991e-13
1.79751e-11
1.13899e-11
1.40219e-11
1.34215e-11
3.58458e-11
-1.25461e-11
-9.08034e-11
-9.39563e-11
-7.23456e-11
1.60778e-10
-5.75291e-11
8.23234e-11
4.38473e-10
2.80094e-10
-3.966e-10
-1.46982e-10
1.9598e-11
1.82175e-10
1.29197e-10
1.62778e-10
7.6229e-11
2.67353e-11
6.08206e-11
-2.26473e-11
2.30747e-11
-3.07752e-11
-1.02772e-11
-2.71839e-11
-2.66016e-11
-1.70251e-11
-1.7962e-12
9.88598e-13
-8.62612e-12
-1.07303e-11
-1.33313e-11
-2.31949e-11
-2.9466e-12
-1.77043e-12
6.50565e-12
2.39579e-11
1.38646e-11
6.78167e-12
-7.72428e-12
-5.16546e-11
3.21691e-12
4.51922e-11
-6.12341e-12
2.72189e-11
3.0887e-11
-7.94155e-11
-1.00003e-10
-1.97956e-10
-1.09203e-09
6.99209e-11
6.19729e-11
1.7796e-11
1.30231e-10
-3.97963e-11
6.69939e-11
4.29497e-15
2.32541e-11
2.90572e-11
4.8005e-13
1.18739e-11
-2.07361e-11
-1.19991e-12
-2.17157e-11
-1.40664e-11
-1.7732e-11
-7.03417e-12
-4.59778e-12
-6.63718e-12
-4.79255e-12
-1.47926e-11
-1.7214e-11
-3.81612e-12
5.93546e-12
1.12994e-11
9.26353e-12
-1.65802e-12
1.08019e-11
-1.00327e-11
-3.98956e-11
-7.14977e-12
2.4261e-11
9.93517e-11
-5.27898e-11
-1.97067e-10
1.60317e-09
1.48725e-10
4.1637e-10
3.28599e-09
6.359e-11
1.52713e-10
-5.34515e-11
-1.26484e-10
-7.55281e-11
-8.21295e-11
-1.67196e-11
1.32294e-11
1.03985e-11
1.19822e-11
2.43699e-12
5.1088e-12
-3.33695e-12
-3.1109e-12
-6.1303e-12
-1.1583e-11
-6.85158e-12
-1.15261e-11
1.04351e-12
1.10341e-12
-8.92472e-12
-1.95423e-12
-6.78733e-12
-2.18833e-12
6.27463e-12
1.22352e-12
2.0407e-12
-1.71394e-13
-1.62905e-11
6.09469e-11
-3.54859e-12
-6.1546e-11
-9.15577e-12
1.40457e-10
1.52214e-10
-1.77994e-09
-3.9712e-10
-2.36209e-10
7.8427e-10
6.28969e-12
-1.31527e-10
-1.10862e-11
-8.23214e-11
4.65773e-11
5.49603e-11
1.38223e-11
3.2357e-11
-1.60265e-11
6.8473e-12
-2.05044e-11
-1.65227e-12
-1.77731e-11
-7.79841e-12
-5.42138e-12
-1.5421e-11
-8.8778e-12
-1.80711e-11
3.15302e-12
1.32908e-12
-6.58727e-13
1.08933e-11
-9.84324e-12
-2.09714e-12
5.97487e-13
-1.38577e-11
9.59981e-12
1.11495e-11
1.50413e-12
5.16493e-11
-2.79304e-11
5.15087e-11
-3.11262e-11
-2.36786e-10
-2.52029e-11
4.20442e-10
2.57683e-10
-2.40147e-10
-2.03342e-10
4.12801e-12
5.70597e-11
1.49171e-10
1.40334e-10
4.10233e-11
4.70634e-11
-1.87593e-11
8.84541e-12
-2.71521e-11
-1.06305e-11
-2.67798e-11
-1.87297e-11
-2.42512e-11
-1.91345e-11
1.87218e-12
-1.68633e-11
-7.6356e-12
-1.75151e-11
-4.33247e-12
-6.20259e-12
4.59935e-12
1.9382e-11
-1.75032e-12
4.80603e-12
-4.04492e-12
-1.73705e-11
1.75749e-11
-9.34493e-12
2.25308e-11
4.61392e-11
-5.12136e-12
2.17185e-11
-5.76935e-11
1.29933e-11
-5.43708e-11
-1.27434e-11
-2.20668e-11
1.21586e-11
-4.58093e-10
1.1022e-10
7.87383e-11
3.02512e-11
2.94343e-12
-1.89493e-11
-1.22217e-11
-4.88994e-11
-2.64778e-11
-3.96554e-11
-3.26601e-11
-2.55958e-11
-3.36104e-11
-1.45282e-11
-2.20951e-11
1.78142e-11
-3.58601e-12
3.10728e-12
-7.08518e-12
-9.62785e-12
-9.08879e-12
3.04859e-12
1.41756e-11
1.26334e-11
1.80045e-11
-1.43251e-12
-1.3558e-11
8.11293e-12
-2.18818e-11
2.27219e-11
6.13952e-12
2.18894e-11
2.8196e-11
-2.06913e-11
6.92691e-13
-5.31411e-11
-5.87703e-11
-6.76803e-11
4.9729e-11
-7.74296e-12
2.42309e-11
-4.81167e-11
-9.54972e-12
-5.61277e-11
-5.45592e-11
-6.02209e-11
-6.68185e-11
-5.0642e-11
-3.99313e-11
-2.75106e-11
-7.17847e-12
-1.68792e-11
1.18016e-11
-3.19139e-12
3.08195e-11
1.92887e-11
1.57515e-11
3.75019e-12
1.86909e-13
1.28148e-12
1.60246e-12
-5.38273e-13
9.31533e-12
2.12191e-11
-1.60425e-13
-4.26157e-12
-1.3819e-11
-1.96374e-11
7.62057e-12
-2.11461e-11
2.14974e-11
1.04828e-11
2.86875e-11
-5.61861e-12
-1.55944e-12
5.02359e-13
-1.12872e-11
1.6733e-12
-1.12731e-11
-6.08196e-13
-4.36725e-11
-2.8448e-11
-5.12336e-11
-5.58111e-11
-4.6933e-11
-4.32908e-11
-1.66582e-11
-2.01706e-11
5.05525e-12
1.26686e-11
1.53018e-11
3.49369e-11
2.51531e-11
2.74807e-11
3.15348e-11
1.6405e-11
4.31251e-12
1.48829e-11
9.6779e-12
6.10667e-12
-6.8264e-12
-8.83057e-12
9.00558e-12
-7.53382e-12
1.06842e-11
-1.88508e-11
-1.49477e-11
-1.35705e-11
-1.6975e-11
9.22301e-12
-9.60834e-12
3.06402e-11
5.87921e-12
3.67195e-11
7.01056e-12
2.95542e-11
-5.82495e-12
1.61651e-11
-1.99812e-12
2.51163e-12
-1.8798e-11
-8.15443e-12
-1.55427e-11
7.57846e-12
-9.23689e-12
2.47442e-11
5.39096e-13
3.09922e-11
2.92891e-11
4.32676e-11
4.11361e-11
4.2925e-11
7.75925e-12
2.05118e-11
2.96453e-12
-8.99631e-13
1.36694e-11
5.61248e-13
8.15259e-12
-1.04248e-12
-1.32916e-11
2.55097e-12
-1.14685e-11
1.18123e-11
-1.07276e-11
-6.32016e-12
-1.46208e-11
-1.22821e-11
-1.42523e-13
-9.87067e-12
1.39584e-11
8.62635e-12
2.99056e-11
-6.55286e-12
3.38959e-11
2.58512e-12
2.16235e-11
3.64613e-12
2.37777e-11
1.33735e-11
1.78596e-11
1.60338e-11
2.73709e-11
6.33223e-12
2.72418e-11
1.66212e-11
2.6974e-11
2.91031e-11
3.56047e-11
1.56365e-11
3.07798e-11
-1.46601e-11
5.96169e-12
-4.29676e-12
-1.1973e-12
-1.2556e-11
4.32609e-12
6.18543e-12
7.85473e-12
-1.84273e-12
-1.15539e-11
-6.22962e-12
6.3399e-12
4.7748e-12
-1.15669e-11
-1.88515e-12
2.72568e-11
2.2059e-11
8.04656e-12
2.07883e-11
2.03221e-11
-8.52652e-12
-2.71183e-11
)
;

boundaryField
{
    sides
    {
        type            calculated;
        value           uniform 0;
    }
    inlet
    {
        type            calculated;
        value           uniform 0;
    }
    outlet
    {
        type            calculated;
        value           nonuniform List<scalar> 
20
(
8.44719e-12
-1.48886e-12
-5.86136e-12
-1.59872e-12
1.51814e-11
2.34098e-11
1.41483e-11
-9.3121e-12
-4.56725e-11
-1.55575e-11
-1.98511e-11
-9.0552e-12
1.55277e-12
2.1157e-11
4.44988e-11
4.59387e-11
1.57832e-11
-2.16932e-11
-3.2457e-11
-2.58497e-11
)
;
    }
    frontAndBack
    {
        type            empty;
        value           nonuniform List<scalar> 0();
    }
}


// ************************************************************************* //
