/*--------------------------------*- C++ -*----------------------------------*\
  =========                 |
  \\      /  F ield         | OpenFOAM: The Open Source CFD Toolbox
   \\    /   O peration     | Website:  https://openfoam.org
    \\  /    A nd           | Version:  9
     \\/     M anipulation  |
\*---------------------------------------------------------------------------*/
FoamFile
{
    format      ascii;
    class       volVectorField;
    location    "97";
    object      hU;
}
// * * * * * * * * * * * * * * * * * * * * * * * * * * * * * * * * * * * * * //

dimensions      [0 2 -1 0 0 0 0];

internalField   nonuniform List<vector> 
400
(
(0.001 -2.4579e-08 0)
(0.00100004 -7.0526e-08 0)
(0.00100012 -1.13122e-07 0)
(0.00100024 -1.52396e-07 0)
(0.00100039 -1.87212e-07 0)
(0.00100058 -2.16659e-07 0)
(0.00100078 -2.36701e-07 0)
(0.00100099 -2.45174e-07 0)
(0.00100118 -2.36169e-07 0)
(0.00100133 -2.11274e-07 0)
(0.0010014 -1.6869e-07 0)
(0.0010014 -1.28626e-07 0)
(0.00100129 -9.91735e-08 0)
(0.00100111 -9.31884e-08 0)
(0.00100087 -9.98884e-08 0)
(0.00100064 -1.35807e-07 0)
(0.00100044 -1.56604e-07 0)
(0.00100034 -2.00946e-07 0)
(0.00100026 -1.88314e-07 0)
(0.00100033 -2.68288e-07 0)
(0.001 -2.72016e-08 0)
(0.00100005 -7.87833e-08 0)
(0.00100013 -1.28168e-07 0)
(0.00100026 -1.74113e-07 0)
(0.00100042 -2.1319e-07 0)
(0.00100062 -2.40086e-07 0)
(0.00100084 -2.4535e-07 0)
(0.00100108 -2.19893e-07 0)
(0.0010013 -1.54354e-07 0)
(0.00100147 -4.78735e-08 0)
(0.00100156 9.324e-08 0)
(0.00100154 2.46967e-07 0)
(0.00100141 3.89051e-07 0)
(0.00100119 4.76228e-07 0)
(0.00100092 5.0456e-07 0)
(0.00100067 4.5147e-07 0)
(0.00100048 3.78236e-07 0)
(0.00100036 2.57268e-07 0)
(0.00100033 2.05689e-07 0)
(0.00100029 8.12837e-08 0)
(0.001 -5.28729e-08 0)
(0.00100004 -1.59207e-07 0)
(0.00100013 -2.67008e-07 0)
(0.00100026 -3.73732e-07 0)
(0.00100043 -4.7341e-07 0)
(0.00100065 -5.55112e-07 0)
(0.0010009 -6.02952e-07 0)
(0.00100117 -5.9718e-07 0)
(0.00100143 -5.17987e-07 0)
(0.00100164 -3.52505e-07 0)
(0.00100176 -1.10394e-07 0)
(0.00100176 1.61337e-07 0)
(0.00100159 4.00913e-07 0)
(0.00100131 5.19305e-07 0)
(0.00100095 4.98866e-07 0)
(0.00100062 3.53469e-07 0)
(0.00100037 2.02896e-07 0)
(0.00100026 4.59022e-08 0)
(0.00100022 -3.35301e-09 0)
(0.0010003 -1.17198e-07 0)
(0.001 -7.37806e-08 0)
(0.00100004 -2.22747e-07 0)
(0.00100013 -3.75225e-07 0)
(0.00100026 -5.3046e-07 0)
(0.00100045 -6.80366e-07 0)
(0.00100069 -8.09504e-07 0)
(0.001001 -8.88682e-07 0)
(0.00100134 -8.85707e-07 0)
(0.00100171 -7.56064e-07 0)
(0.00100203 -4.76277e-07 0)
(0.00100222 -2.38452e-08 0)
(0.00100219 4.92464e-07 0)
(0.00100192 9.3563e-07 0)
(0.00100146 1.13879e-06 0)
(0.00100097 1.05418e-06 0)
(0.00100058 7.42823e-07 0)
(0.00100041 4.23684e-07 0)
(0.00100035 1.69829e-07 0)
(0.0010004 1.01638e-07 0)
(0.00100035 1.38351e-10 0)
(0.001 -9.10222e-08 0)
(0.00100004 -2.78339e-07 0)
(0.00100012 -4.77382e-07 0)
(0.00100025 -6.93991e-07 0)
(0.00100044 -9.20541e-07 0)
(0.00100072 -1.13906e-06 0)
(0.00100109 -1.29917e-06 0)
(0.00100155 -1.33771e-06 0)
(0.00100206 -1.17668e-06 0)
(0.00100257 -7.77844e-07 0)
(0.0010029 -1.71187e-07 0)
(0.00100288 5.80296e-07 0)
(0.00100244 1.23168e-06 0)
(0.00100167 1.51136e-06 0)
(0.00100086 1.37515e-06 0)
(0.00100031 9.64784e-07 0)
(0.00100013 5.81425e-07 0)
(0.00100022 3.14109e-07 0)
(0.00100037 2.61651e-07 0)
(0.00100043 1.67637e-07 0)
(0.001 -1.03107e-07 0)
(0.00100003 -3.18504e-07 0)
(0.00100009 -5.6228e-07 0)
(0.00100019 -8.44745e-07 0)
(0.00100038 -1.17298e-06 0)
(0.00100068 -1.52567e-06 0)
(0.00100115 -1.86004e-06 0)
(0.00100178 -2.05522e-06 0)
(0.00100254 -1.91213e-06 0)
(0.00100326 -1.19791e-06 0)
(0.00100377 8.75466e-08 0)
(0.00100378 1.5447e-06 0)
(0.00100309 2.43704e-06 0)
(0.00100192 2.30654e-06 0)
(0.00100082 1.43079e-06 0)
(0.00100019 4.92961e-07 0)
(0.00100017 1.34919e-08 0)
(0.00100037 -8.5534e-08 0)
(0.00100064 5.97554e-08 0)
(0.00100055 4.9721e-08 0)
(0.001 -1.02163e-07 0)
(0.001 -3.33127e-07 0)
(0.00100002 -6.01708e-07 0)
(0.00100008 -9.62145e-07 0)
(0.00100021 -1.39321e-06 0)
(0.00100048 -1.94755e-06 0)
(0.001001 -2.49031e-06 0)
(0.00100188 -3.08457e-06 0)
(0.00100321 -3.23239e-06 0)
(0.00100473 -2.87983e-06 0)
(0.00100573 -6.59806e-07 0)
(0.00100535 2.55739e-06 0)
(0.00100349 4.82842e-06 0)
(0.00100112 4.73809e-06 0)
(0.000999607 3.02962e-06 0)
(0.000999371 1.26485e-06 0)
(0.00100001 4.31657e-07 0)
(0.00100056 3.2696e-07 0)
(0.00100093 5.6207e-07 0)
(0.00100066 5.33911e-07 0)
(0.000999996 -9.20282e-08 0)
(0.000999968 -2.88204e-07 0)
(0.000999908 -5.76621e-07 0)
(0.000999876 -9.57069e-07 0)
(0.000999878 -1.57857e-06 0)
(0.00100009 -2.34615e-06 0)
(0.0010005 -3.40301e-06 0)
(0.00100152 -4.1234e-06 0)
(0.00100308 -4.37161e-06 0)
(0.00100602 -2.55065e-06 0)
(0.00100911 7.42279e-07 0)
(0.00100913 4.26312e-06 0)
(0.0010055 4.7168e-06 0)
(0.00100074 2.78164e-06 0)
(0.00099815 7.35973e-07 0)
(0.000998273 -2.73666e-07 0)
(0.000999797 -2.84975e-07 0)
(0.00100087 -8.96976e-09 0)
(0.00100133 2.12462e-07 0)
(0.00100085 1.03039e-07 0)
(0.000999995 -4.8716e-08 0)
(0.000999915 -2.03316e-07 0)
(0.000999756 -3.86275e-07 0)
(0.000999531 -7.35387e-07 0)
(0.000999287 -1.33935e-06 0)
(0.000999211 -2.48204e-06 0)
(0.000999707 -4.68739e-06 0)
(0.00100139 -8.0673e-06 0)
(0.00100491 -1.32852e-05 0)
(0.00100957 -1.49148e-05 0)
(0.00101188 3.82924e-06 0)
(0.00100894 1.87252e-05 0)
(0.00100222 1.57785e-05 0)
(0.000997568 5.73992e-06 0)
(0.000996887 -3.16928e-07 0)
(0.000998461 -1.26361e-06 0)
(0.00100027 -9.40079e-08 0)
(0.001001 6.35064e-07 0)
(0.00100107 6.52165e-07 0)
(0.00100054 2.43787e-07 0)
(0.000999804 -1.94549e-08 0)
(0.00100017 -6.64281e-08 0)
(0.000999215 -1.51435e-07 0)
(0.000999904 -2.49058e-07 0)
(0.000997521 -5.92558e-07 0)
(0.000998843 -1.13126e-06 0)
(0.000993348 -2.88357e-06 0)
(0.000997531 -5.59349e-06 0)
(0.000991667 -1.15428e-05 0)
(0.000915829 -1.27058e-05 0)
(0.000951471 2.82296e-07 0)
(0.00101022 1.46413e-05 0)
(0.00099095 1.30849e-05 0)
(0.000983978 5.14116e-06 0)
(0.000989588 1.93389e-07 0)
(0.000996282 -7.8257e-07 0)
(0.000999236 -1.12228e-07 0)
(0.000999411 2.47873e-07 0)
(0.000998646 1.74041e-07 0)
(0.000998504 -1.85032e-07 0)
(0.000999804 1.31494e-08 0)
(0.00100017 4.58104e-08 0)
(0.000999215 1.172e-07 0)
(0.000999902 1.99801e-07 0)
(0.000997518 5.29526e-07 0)
(0.000998838 1.05157e-06 0)
(0.000993339 2.78624e-06 0)
(0.000997519 5.47233e-06 0)
(0.00099165 1.13963e-05 0)
(0.000915811 1.25498e-05 0)
(0.000951428 -4.65366e-07 0)
(0.0010102 -1.49056e-05 0)
(0.000990946 -1.34053e-05 0)
(0.000983966 -5.53404e-06 0)
(0.000989567 -6.48275e-07 0)
(0.000996243 2.47413e-07 0)
(0.000999195 -4.73434e-07 0)
(0.000999366 -1.00315e-06 0)
(0.000998632 -9.89143e-07 0)
(0.000998454 -8.88766e-07 0)
(0.000999995 4.24845e-08 0)
(0.000999915 1.83493e-07 0)
(0.000999755 3.53073e-07 0)
(0.00099953 6.87422e-07 0)
(0.000999285 1.27691e-06 0)
(0.00099921 2.40151e-06 0)
(0.000999702 4.58847e-06 0)
(0.00100139 7.94281e-06 0)
(0.0010049 1.31318e-05 0)
(0.00100958 1.47186e-05 0)
(0.00101189 -4.07198e-06 0)
(0.00100889 -1.90047e-05 0)
(0.00100214 -1.60952e-05 0)
(0.000997476 -6.12219e-06 0)
(0.000996814 -8.34968e-08 0)
(0.000998401 7.75479e-07 0)
(0.00100017 -4.27862e-07 0)
(0.00100085 -1.30575e-06 0)
(0.00100088 -1.37979e-06 0)
(0.00100037 -1.2509e-06 0)
(0.000999996 8.59434e-08 0)
(0.000999967 2.6955e-07 0)
(0.000999905 5.44508e-07 0)
(0.000999871 9.10495e-07 0)
(0.00099987 1.51413e-06 0)
(0.00100008 2.26146e-06 0)
(0.00100048 3.29322e-06 0)
(0.00100149 3.99134e-06 0)
(0.00100303 4.21257e-06 0)
(0.00100594 2.36391e-06 0)
(0.00100901 -9.84099e-07 0)
(0.00100907 -4.54024e-06 0)
(0.00100543 -5.0201e-06 0)
(0.00100066 -3.12868e-06 0)
(0.000998057 -1.13041e-06 0)
(0.000998133 -2.51245e-07 0)
(0.000999621 -3.23062e-07 0)
(0.00100064 -7.41821e-07 0)
(0.00100106 -9.6738e-07 0)
(0.00100055 -1.07393e-06 0)
(0.001 9.6329e-08 0)
(0.001 3.15255e-07 0)
(0.00100002 5.71337e-07 0)
(0.00100007 9.17696e-07 0)
(0.0010002 1.33403e-06 0)
(0.00100046 1.8711e-06 0)
(0.00100097 2.3987e-06 0)
(0.00100185 2.97488e-06 0)
(0.00100318 3.11205e-06 0)
(0.00100469 2.73245e-06 0)
(0.00100568 5.14051e-07 0)
(0.00100527 -2.75248e-06 0)
(0.00100339 -5.07629e-06 0)
(0.00100096 -5.0697e-06 0)
(0.000999408 -3.44941e-06 0)
(0.00099912 -1.79468e-06 0)
(0.000999743 -1.02144e-06 0)
(0.00100025 -1.05924e-06 0)
(0.00100061 -1.30694e-06 0)
(0.00100024 -1.51539e-06 0)
(0.001 9.76993e-08 0)
(0.00100003 3.02419e-07 0)
(0.00100008 5.35274e-07 0)
(0.00100019 8.05625e-07 0)
(0.00100036 1.12162e-06 0)
(0.00100066 1.45964e-06 0)
(0.00100112 1.77858e-06 0)
(0.00100174 1.95073e-06 0)
(0.00100248 1.78183e-06 0)
(0.00100317 1.03575e-06 0)
(0.00100366 -2.79719e-07 0)
(0.00100363 -1.78056e-06 0)
(0.00100292 -2.70951e-06 0)
(0.00100171 -2.63201e-06 0)
(0.00100058 -1.77984e-06 0)
(0.000999903 -8.96247e-07 0)
(0.000999858 -4.27649e-07 0)
(0.000999982 -4.47952e-07 0)
(0.00100022 -6.16035e-07 0)
(0.00100001 -8.48297e-07 0)
(0.001 8.60438e-08 0)
(0.00100004 2.64182e-07 0)
(0.00100011 4.54193e-07 0)
(0.00100024 6.61307e-07 0)
(0.00100043 8.77421e-07 0)
(0.0010007 1.08437e-06 0)
(0.00100106 1.23048e-06 0)
(0.0010015 1.25313e-06 0)
(0.001002 1.07312e-06 0)
(0.00100248 6.55997e-07 0)
(0.0010028 1.68771e-08 0)
(0.00100274 -7.71173e-07 0)
(0.00100227 -1.45127e-06 0)
(0.00100146 -1.77583e-06 0)
(0.00100062 -1.66932e-06 0)
(0.00100001 -1.34874e-06 0)
(0.000999794 -1.02946e-06 0)
(0.000999767 -9.36846e-07 0)
(0.000999886 -9.44944e-07 0)
(0.000999768 -1.10815e-06 0)
(0.001 6.94415e-08 0)
(0.00100004 2.09935e-07 0)
(0.00100012 3.54307e-07 0)
(0.00100025 5.01279e-07 0)
(0.00100043 6.4339e-07 0)
(0.00100066 7.65018e-07 0)
(0.00100095 8.37472e-07 0)
(0.00100129 8.26392e-07 0)
(0.00100163 6.91624e-07 0)
(0.00100191 4.06333e-07 0)
(0.00100206 -4.66792e-08 0)
(0.001002 -5.76516e-07 0)
(0.00100171 -1.03647e-06 0)
(0.0010012 -1.28222e-06 0)
(0.00100065 -1.22983e-06 0)
(0.00100016 -9.93879e-07 0)
(0.000999916 -7.01424e-07 0)
(0.000999742 -5.56494e-07 0)
(0.000999753 -4.8697e-07 0)
(0.000999561 -5.98085e-07 0)
(0.001 5.07127e-08 0)
(0.00100004 1.50255e-07 0)
(0.00100012 2.47122e-07 0)
(0.00100025 3.38803e-07 0)
(0.00100041 4.20738e-07 0)
(0.00100062 4.81962e-07 0)
(0.00100086 5.07648e-07 0)
(0.00100112 4.73317e-07 0)
(0.00100137 3.62111e-07 0)
(0.00100157 1.5691e-07 0)
(0.00100167 -1.15569e-07 0)
(0.00100161 -4.20312e-07 0)
(0.00100139 -6.81112e-07 0)
(0.00100103 -8.41707e-07 0)
(0.00100064 -8.49119e-07 0)
(0.00100022 -7.69567e-07 0)
(0.000999951 -6.3703e-07 0)
(0.000999691 -5.96318e-07 0)
(0.000999628 -5.61348e-07 0)
(0.000999387 -6.84634e-07 0)
(0.001 3.48004e-08 0)
(0.00100004 1.05156e-07 0)
(0.00100011 1.74839e-07 0)
(0.00100023 2.41751e-07 0)
(0.00100038 3.01499e-07 0)
(0.00100056 3.48359e-07 0)
(0.00100077 3.74013e-07 0)
(0.00100097 3.68239e-07 0)
(0.00100116 3.20176e-07 0)
(0.0010013 2.24953e-07 0)
(0.00100136 8.71158e-08 0)
(0.00100131 -6.95142e-08 0)
(0.00100115 -2.05173e-07 0)
(0.00100086 -2.96001e-07 0)
(0.00100054 -3.10858e-07 0)
(0.00100017 -2.80604e-07 0)
(0.000999901 -2.01982e-07 0)
(0.000999613 -1.68562e-07 0)
(0.000999517 -1.18713e-07 0)
(0.000999249 -1.98408e-07 0)
(0.001 -4.04646e-09 0)
(0.00100004 -9.71457e-09 0)
(0.00100012 -1.28046e-08 0)
(0.00100024 -1.47689e-08 0)
(0.00100038 -1.7395e-08 0)
(0.00100056 -2.34842e-08 0)
(0.00100075 -3.4401e-08 0)
(0.00100094 -5.38168e-08 0)
(0.00100112 -8.18086e-08 0)
(0.00100123 -1.21976e-07 0)
(0.00100128 -1.6956e-07 0)
(0.00100121 -2.30993e-07 0)
(0.00100107 -2.90076e-07 0)
(0.00100081 -3.40616e-07 0)
(0.00100053 -3.58969e-07 0)
(0.00100018 -3.67464e-07 0)
(0.000999946 -3.42146e-07 0)
(0.000999609 -3.5286e-07 0)
(0.000999521 -3.28024e-07 0)
(0.00099913 -4.10648e-07 0)
)
;

boundaryField
{
    sides
    {
        type            slip;
    }
    inlet
    {
        type            fixedValue;
        value           uniform (0.001 0 0);
    }
    outlet
    {
        type            zeroGradient;
    }
    frontAndBack
    {
        type            empty;
    }
}


// ************************************************************************* //
