/*--------------------------------*- C++ -*----------------------------------*\
  =========                 |
  \\      /  F ield         | OpenFOAM: The Open Source CFD Toolbox
   \\    /   O peration     | Website:  https://openfoam.org
    \\  /    A nd           | Version:  9
     \\/     M anipulation  |
\*---------------------------------------------------------------------------*/
FoamFile
{
    format      ascii;
    class       volVectorField;
    location    "97";
    object      hU_0;
}
// * * * * * * * * * * * * * * * * * * * * * * * * * * * * * * * * * * * * * //

dimensions      [0 2 -1 0 0 0 0];

internalField   nonuniform List<vector> 
400
(
(0.001 -2.46192e-08 0)
(0.00100004 -7.0558e-08 0)
(0.00100012 -1.13013e-07 0)
(0.00100024 -1.52288e-07 0)
(0.00100039 -1.87193e-07 0)
(0.00100058 -2.1662e-07 0)
(0.00100078 -2.36753e-07 0)
(0.00100099 -2.45142e-07 0)
(0.00100118 -2.36111e-07 0)
(0.00100133 -2.1122e-07 0)
(0.0010014 -1.6856e-07 0)
(0.0010014 -1.28621e-07 0)
(0.00100129 -9.90529e-08 0)
(0.00100111 -9.30754e-08 0)
(0.00100087 -9.97215e-08 0)
(0.00100064 -1.35623e-07 0)
(0.00100044 -1.56602e-07 0)
(0.00100034 -2.01112e-07 0)
(0.00100026 -1.88387e-07 0)
(0.00100033 -2.68344e-07 0)
(0.001 -2.73721e-08 0)
(0.00100005 -7.87962e-08 0)
(0.00100013 -1.27912e-07 0)
(0.00100026 -1.73962e-07 0)
(0.00100042 -2.13141e-07 0)
(0.00100062 -2.4008e-07 0)
(0.00100084 -2.45416e-07 0)
(0.00100108 -2.19815e-07 0)
(0.0010013 -1.54117e-07 0)
(0.00100147 -4.76316e-08 0)
(0.00100156 9.34257e-08 0)
(0.00100154 2.47181e-07 0)
(0.00100141 3.89288e-07 0)
(0.00100119 4.76557e-07 0)
(0.00100092 5.04974e-07 0)
(0.00100067 4.51906e-07 0)
(0.00100048 3.78407e-07 0)
(0.00100036 2.57124e-07 0)
(0.00100033 2.05537e-07 0)
(0.00100029 8.12185e-08 0)
(0.001 -5.29431e-08 0)
(0.00100004 -1.59087e-07 0)
(0.00100013 -2.66905e-07 0)
(0.00100026 -3.73769e-07 0)
(0.00100043 -4.73448e-07 0)
(0.00100065 -5.55204e-07 0)
(0.0010009 -6.02966e-07 0)
(0.00100117 -5.969e-07 0)
(0.00100143 -5.17684e-07 0)
(0.00100164 -3.51789e-07 0)
(0.00100176 -1.10428e-07 0)
(0.00100176 1.61604e-07 0)
(0.00100159 4.01243e-07 0)
(0.00100131 5.19534e-07 0)
(0.00100095 4.99241e-07 0)
(0.00100062 3.53933e-07 0)
(0.00100037 2.03303e-07 0)
(0.00100026 4.60826e-08 0)
(0.00100022 -3.35635e-09 0)
(0.0010003 -1.17173e-07 0)
(0.001 -7.35214e-08 0)
(0.00100004 -2.22532e-07 0)
(0.00100013 -3.75381e-07 0)
(0.00100026 -5.3074e-07 0)
(0.00100045 -6.80565e-07 0)
(0.00100069 -8.09623e-07 0)
(0.001001 -8.88532e-07 0)
(0.00100134 -8.8539e-07 0)
(0.00100171 -7.55553e-07 0)
(0.00100203 -4.76221e-07 0)
(0.00100222 -2.32858e-08 0)
(0.00100219 4.91484e-07 0)
(0.00100192 9.35563e-07 0)
(0.00100146 1.13886e-06 0)
(0.00100097 1.05413e-06 0)
(0.00100058 7.43016e-07 0)
(0.00100041 4.24106e-07 0)
(0.00100035 1.70247e-07 0)
(0.0010004 1.01933e-07 0)
(0.00100035 2.58653e-10 0)
(0.001 -9.06792e-08 0)
(0.00100004 -2.78154e-07 0)
(0.00100012 -4.77579e-07 0)
(0.00100025 -6.94324e-07 0)
(0.00100044 -9.20743e-07 0)
(0.00100072 -1.13906e-06 0)
(0.00100109 -1.29895e-06 0)
(0.00100155 -1.33767e-06 0)
(0.00100206 -1.17624e-06 0)
(0.00100257 -7.79582e-07 0)
(0.0010029 -1.71184e-07 0)
(0.00100288 5.7957e-07 0)
(0.00100244 1.22999e-06 0)
(0.00100167 1.51085e-06 0)
(0.00100086 1.37489e-06 0)
(0.00100031 9.64596e-07 0)
(0.00100013 5.81537e-07 0)
(0.00100021 3.14419e-07 0)
(0.00100036 2.61949e-07 0)
(0.00100043 1.67766e-07 0)
(0.001 -1.02978e-07 0)
(0.00100003 -3.18476e-07 0)
(0.00100009 -5.62386e-07 0)
(0.00100019 -8.44848e-07 0)
(0.00100038 -1.17292e-06 0)
(0.00100068 -1.52552e-06 0)
(0.00100115 -1.86009e-06 0)
(0.00100178 -2.05509e-06 0)
(0.00100254 -1.91394e-06 0)
(0.00100326 -1.1981e-06 0)
(0.00100377 8.40163e-08 0)
(0.00100378 1.54543e-06 0)
(0.00100309 2.43596e-06 0)
(0.00100192 2.30503e-06 0)
(0.00100082 1.43017e-06 0)
(0.00100019 4.92614e-07 0)
(0.00100017 1.32259e-08 0)
(0.00100037 -8.57186e-08 0)
(0.00100064 5.96606e-08 0)
(0.00100055 4.97125e-08 0)
(0.001 -1.02328e-07 0)
(0.001 -3.33312e-07 0)
(0.00100002 -6.01743e-07 0)
(0.00100008 -9.61935e-07 0)
(0.00100021 -1.39286e-06 0)
(0.00100048 -1.9474e-06 0)
(0.001001 -2.49051e-06 0)
(0.00100188 -3.08512e-06 0)
(0.00100321 -3.23361e-06 0)
(0.00100473 -2.87863e-06 0)
(0.00100573 -6.64033e-07 0)
(0.00100536 2.55438e-06 0)
(0.00100349 4.82972e-06 0)
(0.00100112 4.7382e-06 0)
(0.000999609 3.02922e-06 0)
(0.000999372 1.26451e-06 0)
(0.00100001 4.31174e-07 0)
(0.00100056 3.26369e-07 0)
(0.00100093 5.61604e-07 0)
(0.00100066 5.33732e-07 0)
(0.000999996 -9.23546e-08 0)
(0.000999968 -2.88521e-07 0)
(0.000999907 -5.76627e-07 0)
(0.000999876 -9.56712e-07 0)
(0.000999878 -1.57819e-06 0)
(0.0010001 -2.34613e-06 0)
(0.0010005 -3.40342e-06 0)
(0.00100152 -4.12416e-06 0)
(0.00100308 -4.37009e-06 0)
(0.00100602 -2.55039e-06 0)
(0.00100908 7.49373e-07 0)
(0.00100914 4.26706e-06 0)
(0.00100551 4.71848e-06 0)
(0.00100074 2.78369e-06 0)
(0.00099815 7.36899e-07 0)
(0.000998273 -2.73639e-07 0)
(0.000999797 -2.85328e-07 0)
(0.00100087 -9.53618e-09 0)
(0.00100133 2.1193e-07 0)
(0.00100085 1.02772e-07 0)
(0.000999995 -4.89954e-08 0)
(0.000999915 -2.03587e-07 0)
(0.000999756 -3.86244e-07 0)
(0.000999531 -7.35094e-07 0)
(0.000999287 -1.33923e-06 0)
(0.00099921 -2.48215e-06 0)
(0.000999707 -4.68765e-06 0)
(0.00100139 -8.06735e-06 0)
(0.00100491 -1.32833e-05 0)
(0.00100957 -1.49149e-05 0)
(0.00101191 3.83672e-06 0)
(0.00100894 1.87282e-05 0)
(0.00100221 1.57795e-05 0)
(0.000997568 5.74151e-06 0)
(0.000996886 -3.16024e-07 0)
(0.00099846 -1.26335e-06 0)
(0.00100027 -9.41092e-08 0)
(0.001001 6.34835e-07 0)
(0.00100107 6.51911e-07 0)
(0.00100054 2.43698e-07 0)
(0.000999804 -1.95287e-08 0)
(0.00100017 -6.65091e-08 0)
(0.000999216 -1.51385e-07 0)
(0.000999904 -2.48967e-07 0)
(0.000997521 -5.92705e-07 0)
(0.000998843 -1.13142e-06 0)
(0.000993348 -2.88324e-06 0)
(0.000997532 -5.59292e-06 0)
(0.000991666 -1.15433e-05 0)
(0.000915833 -1.27059e-05 0)
(0.000951469 2.77402e-07 0)
(0.00101022 1.46377e-05 0)
(0.000990955 1.30844e-05 0)
(0.000983978 5.14019e-06 0)
(0.000989587 1.92938e-07 0)
(0.000996281 -7.82477e-07 0)
(0.000999235 -1.12073e-07 0)
(0.000999411 2.4808e-07 0)
(0.000998646 1.74192e-07 0)
(0.000998504 -1.84946e-07 0)
(0.000999804 1.32753e-08 0)
(0.00100017 4.59178e-08 0)
(0.000999215 1.17221e-07 0)
(0.000999902 1.99697e-07 0)
(0.000997518 5.29343e-07 0)
(0.000998838 1.05159e-06 0)
(0.000993339 2.78646e-06 0)
(0.000997519 5.47293e-06 0)
(0.00099165 1.13943e-05 0)
(0.000915809 1.255e-05 0)
(0.000951429 -4.71325e-07 0)
(0.0010102 -1.49063e-05 0)
(0.000990946 -1.34069e-05 0)
(0.000983966 -5.53617e-06 0)
(0.000989567 -6.49014e-07 0)
(0.000996243 2.47419e-07 0)
(0.000999195 -4.73149e-07 0)
(0.000999366 -1.00276e-06 0)
(0.000998633 -9.88812e-07 0)
(0.000998454 -8.88671e-07 0)
(0.000999995 4.26429e-08 0)
(0.000999915 1.83706e-07 0)
(0.000999755 3.53064e-07 0)
(0.00099953 6.87266e-07 0)
(0.000999285 1.27688e-06 0)
(0.00099921 2.40173e-06 0)
(0.000999702 4.58842e-06 0)
(0.00100139 7.94205e-06 0)
(0.0010049 1.31323e-05 0)
(0.00100958 1.47175e-05 0)
(0.00101188 -4.06737e-06 0)
(0.0010089 -1.90036e-05 0)
(0.00100214 -1.60957e-05 0)
(0.000997476 -6.12202e-06 0)
(0.000996815 -8.36493e-08 0)
(0.000998401 7.75155e-07 0)
(0.00100017 -4.27961e-07 0)
(0.00100085 -1.30561e-06 0)
(0.00100088 -1.37953e-06 0)
(0.00100037 -1.25078e-06 0)
(0.000999995 8.59813e-08 0)
(0.000999967 2.69752e-07 0)
(0.000999906 5.4455e-07 0)
(0.000999871 9.10369e-07 0)
(0.00099987 1.51421e-06 0)
(0.00100008 2.26173e-06 0)
(0.00100048 3.29323e-06 0)
(0.00100149 3.99043e-06 0)
(0.00100303 4.21276e-06 0)
(0.00100594 2.36466e-06 0)
(0.00100902 -9.80759e-07 0)
(0.00100906 -4.53887e-06 0)
(0.00100543 -5.01886e-06 0)
(0.00100066 -3.12808e-06 0)
(0.000998056 -1.13064e-06 0)
(0.000998133 -2.5163e-07 0)
(0.000999621 -3.23252e-07 0)
(0.00100064 -7.4177e-07 0)
(0.00100106 -9.67131e-07 0)
(0.00100055 -1.07377e-06 0)
(0.001 9.62579e-08 0)
(0.001 3.15376e-07 0)
(0.00100002 5.71465e-07 0)
(0.00100007 9.17612e-07 0)
(0.0010002 1.33398e-06 0)
(0.00100046 1.87129e-06 0)
(0.00100097 2.399e-06 0)
(0.00100185 2.97504e-06 0)
(0.00100318 3.11118e-06 0)
(0.00100469 2.73329e-06 0)
(0.00100568 5.10358e-07 0)
(0.00100528 -2.75366e-06 0)
(0.00100339 -5.07642e-06 0)
(0.00100096 -5.07044e-06 0)
(0.000999407 -3.44986e-06 0)
(0.00099912 -1.79472e-06 0)
(0.000999744 -1.02129e-06 0)
(0.00100025 -1.05896e-06 0)
(0.00100062 -1.30656e-06 0)
(0.00100024 -1.51518e-06 0)
(0.001 9.76845e-08 0)
(0.00100003 3.02442e-07 0)
(0.00100008 5.35399e-07 0)
(0.00100019 8.05561e-07 0)
(0.00100036 1.12134e-06 0)
(0.00100066 1.45951e-06 0)
(0.00100112 1.77901e-06 0)
(0.00100174 1.95153e-06 0)
(0.00100248 1.78213e-06 0)
(0.00100317 1.03455e-06 0)
(0.00100366 -2.7983e-07 0)
(0.00100363 -1.78101e-06 0)
(0.00100292 -2.71093e-06 0)
(0.00100171 -2.63265e-06 0)
(0.00100058 -1.77991e-06 0)
(0.000999904 -8.95937e-07 0)
(0.000999859 -4.27163e-07 0)
(0.000999983 -4.47495e-07 0)
(0.00100022 -6.15708e-07 0)
(0.00100001 -8.48176e-07 0)
(0.001 8.61766e-08 0)
(0.00100004 2.64122e-07 0)
(0.00100011 4.54155e-07 0)
(0.00100024 6.61288e-07 0)
(0.00100043 8.7708e-07 0)
(0.0010007 1.08397e-06 0)
(0.00100105 1.23052e-06 0)
(0.0010015 1.25399e-06 0)
(0.001002 1.07405e-06 0)
(0.00100248 6.56348e-07 0)
(0.0010028 1.71543e-08 0)
(0.00100274 -7.7147e-07 0)
(0.00100227 -1.45118e-06 0)
(0.00100146 -1.77549e-06 0)
(0.00100062 -1.66879e-06 0)
(0.00100001 -1.34814e-06 0)
(0.000999795 -1.02889e-06 0)
(0.000999767 -9.36535e-07 0)
(0.000999886 -9.44991e-07 0)
(0.000999767 -1.10827e-06 0)
(0.001 6.95565e-08 0)
(0.00100004 2.09852e-07 0)
(0.00100012 3.54165e-07 0)
(0.00100025 5.0136e-07 0)
(0.00100043 6.43331e-07 0)
(0.00100066 7.64639e-07 0)
(0.00100096 8.37092e-07 0)
(0.00100129 8.26545e-07 0)
(0.00100163 6.92207e-07 0)
(0.00100191 4.07014e-07 0)
(0.00100206 -4.62214e-08 0)
(0.001002 -5.75917e-07 0)
(0.00100171 -1.03564e-06 0)
(0.0010012 -1.28138e-06 0)
(0.00100065 -1.22915e-06 0)
(0.00100016 -9.93469e-07 0)
(0.000999916 -7.01241e-07 0)
(0.000999741 -5.5664e-07 0)
(0.000999753 -4.87443e-07 0)
(0.00099956 -5.98393e-07 0)
(0.001 5.05672e-08 0)
(0.00100004 1.50172e-07 0)
(0.00100012 2.47147e-07 0)
(0.00100025 3.38999e-07 0)
(0.00100041 4.21024e-07 0)
(0.00100062 4.81855e-07 0)
(0.00100086 5.07222e-07 0)
(0.00100112 4.72785e-07 0)
(0.00100137 3.61878e-07 0)
(0.00100157 1.56783e-07 0)
(0.00100167 -1.15357e-07 0)
(0.00100161 -4.19844e-07 0)
(0.00100139 -6.80517e-07 0)
(0.00100103 -8.41197e-07 0)
(0.00100064 -8.48942e-07 0)
(0.00100022 -7.69693e-07 0)
(0.000999951 -6.37437e-07 0)
(0.00099969 -5.9694e-07 0)
(0.000999628 -5.61941e-07 0)
(0.000999387 -6.84886e-07 0)
(0.001 3.44766e-08 0)
(0.00100004 1.05059e-07 0)
(0.00100011 1.75052e-07 0)
(0.00100023 2.42002e-07 0)
(0.00100038 3.01849e-07 0)
(0.00100056 3.48505e-07 0)
(0.00100077 3.73775e-07 0)
(0.00100097 3.67696e-07 0)
(0.00100116 3.19566e-07 0)
(0.0010013 2.24348e-07 0)
(0.00100136 8.66909e-08 0)
(0.00100131 -6.96781e-08 0)
(0.00100115 -2.05172e-07 0)
(0.00100086 -2.96142e-07 0)
(0.00100054 -3.11185e-07 0)
(0.00100017 -2.81062e-07 0)
(0.000999901 -2.0268e-07 0)
(0.000999613 -1.69298e-07 0)
(0.000999517 -1.19108e-07 0)
(0.000999249 -1.98474e-07 0)
(0.001 -4.21018e-09 0)
(0.00100004 -9.76665e-09 0)
(0.00100012 -1.26793e-08 0)
(0.00100024 -1.46418e-08 0)
(0.00100038 -1.72486e-08 0)
(0.00100056 -2.33847e-08 0)
(0.00100075 -3.4468e-08 0)
(0.00100094 -5.40196e-08 0)
(0.00100112 -8.21024e-08 0)
(0.00100123 -1.22294e-07 0)
(0.00100128 -1.69974e-07 0)
(0.00100121 -2.31255e-07 0)
(0.00100107 -2.90222e-07 0)
(0.00100081 -3.40813e-07 0)
(0.00100053 -3.5919e-07 0)
(0.00100018 -3.67708e-07 0)
(0.000999945 -3.42483e-07 0)
(0.000999609 -3.53181e-07 0)
(0.000999522 -3.28148e-07 0)
(0.000999131 -4.1064e-07 0)
)
;

boundaryField
{
    sides
    {
        type            slip;
    }
    inlet
    {
        type            fixedValue;
        value           uniform (0.001 0 0);
    }
    outlet
    {
        type            zeroGradient;
    }
    frontAndBack
    {
        type            empty;
    }
}


// ************************************************************************* //
