/*--------------------------------*- C++ -*----------------------------------*\
  =========                 |
  \\      /  F ield         | OpenFOAM: The Open Source CFD Toolbox
   \\    /   O peration     | Website:  https://openfoam.org
    \\  /    A nd           | Version:  9
     \\/     M anipulation  |
\*---------------------------------------------------------------------------*/
FoamFile
{
    format      ascii;
    class       surfaceScalarField;
    location    "97";
    object      phi_0;
}
// * * * * * * * * * * * * * * * * * * * * * * * * * * * * * * * * * * * * * //

dimensions      [0 4 -1 0 0 0 0];

internalField   nonuniform List<scalar> 
760
(
5.00009e-06
-9.59132e-11
5.0004e-06
-3.05601e-10
5.00091e-06
-5.10347e-10
5.00162e-06
-7.05103e-10
5.00249e-06
-8.74427e-10
5.00349e-06
-1.00268e-09
5.00455e-06
-1.05784e-09
5.00557e-06
-1.01154e-09
5.0064e-06
-8.30086e-10
5.00692e-06
-5.24397e-10
5.00705e-06
-1.2575e-10
5.00665e-06
3.94517e-10
5.00579e-06
8.52855e-10
5.00469e-06
1.10223e-09
5.00352e-06
1.1706e-09
5.00257e-06
9.5167e-10
5.00186e-06
7.13967e-10
5.00161e-06
2.43922e-10
5.0015e-06
1.06693e-10
-3.90754e-10
5.00012e-06
-2.16746e-10
5.00045e-06
-6.32791e-10
5.00098e-06
-1.04406e-09
5.00172e-06
-1.44389e-09
5.00265e-06
-1.80578e-09
5.00374e-06
-2.09267e-09
5.00493e-06
-2.24285e-09
5.00611e-06
-2.18792e-09
5.00713e-06
-1.85075e-09
5.00777e-06
-1.16878e-09
5.00774e-06
-9.97422e-11
5.00725e-06
8.82866e-10
5.00626e-06
1.83875e-09
5.00495e-06
2.41103e-09
5.00368e-06
2.44234e-09
5.00277e-06
1.85627e-09
5.00225e-06
1.24253e-09
5.00191e-06
5.77143e-10
5.00165e-06
3.66589e-10
-1.48373e-10
5.00011e-06
-3.22907e-10
5.00043e-06
-9.53316e-10
5.00096e-06
-1.57835e-09
5.00172e-06
-2.20652e-09
5.00272e-06
-2.80525e-09
5.00395e-06
-3.31323e-09
5.00532e-06
-3.61966e-09
5.00672e-06
-3.58852e-09
5.00793e-06
-3.05928e-09
5.00872e-06
-1.9638e-09
5.00893e-06
-3.13344e-10
5.00825e-06
1.55784e-09
5.00687e-06
3.21856e-09
5.00515e-06
4.12555e-09
5.0035e-06
4.08677e-09
5.00231e-06
3.05344e-09
5.00166e-06
1.8872e-09
5.00147e-06
7.66306e-10
5.00144e-06
3.93667e-10
-2.22931e-10
5.0001e-06
-4.20575e-10
5.00041e-06
-1.26306e-09
5.00094e-06
-2.11573e-09
5.00175e-06
-3.01048e-09
5.00286e-06
-3.91132e-09
5.00429e-06
-4.74581e-09
5.00602e-06
-5.34778e-09
5.00795e-06
-5.52898e-09
5.00984e-06
-4.94969e-09
5.01107e-06
-3.2065e-09
5.0112e-06
-4.31158e-10
5.01e-06
2.76429e-09
5.00765e-06
5.55874e-09
5.00514e-06
6.63195e-09
5.00347e-06
5.75756e-09
5.0027e-06
3.82626e-09
5.00248e-06
2.10977e-09
5.00231e-06
9.35619e-10
5.00199e-06
7.07313e-10
3.38233e-10
5.00008e-06
-5.01287e-10
5.00034e-06
-1.52123e-09
5.00083e-06
-2.60886e-09
5.00164e-06
-3.81223e-09
5.00286e-06
-5.13364e-09
5.00458e-06
-6.46429e-09
5.0068e-06
-7.57732e-09
5.00942e-06
-8.14989e-09
5.01238e-06
-7.92855e-09
5.01479e-06
-5.5902e-09
5.01481e-06
-4.80695e-10
5.01285e-06
4.76474e-09
5.00868e-06
9.7448e-09
5.0046e-06
1.07086e-08
5.00224e-06
8.11801e-09
5.00174e-06
4.32541e-09
5.00205e-06
1.80713e-09
5.00226e-06
7.25386e-10
5.00201e-06
9.51047e-10
6.26792e-10
5.00004e-06
-5.42909e-10
5.0002e-06
-1.67662e-09
5.00054e-06
-2.947e-09
5.00121e-06
-4.48304e-09
5.00241e-06
-6.33351e-09
5.00452e-06
-8.58102e-09
5.0076e-06
-1.06576e-08
5.01167e-06
-1.22256e-08
5.01552e-06
-1.17836e-08
5.019e-06
-9.04513e-09
5.02021e-06
-1.67333e-09
5.016e-06
8.94938e-09
5.00951e-06
1.62807e-08
5.00422e-06
1.6016e-08
5.00217e-06
1.01625e-08
5.0025e-06
4.00358e-09
5.00327e-06
1.03413e-09
5.0034e-06
6.00862e-10
5.0028e-06
1.54829e-09
1.42309e-09
4.99998e-06
-5.2344e-10
4.99994e-06
-1.63405e-09
5.00003e-06
-3.03753e-09
5.00036e-06
-4.81149e-09
5.00122e-06
-7.19535e-09
5.00292e-06
-1.02826e-08
5.0068e-06
-1.45394e-08
5.01391e-06
-1.93395e-08
5.02377e-06
-2.15901e-08
5.0309e-06
-1.62582e-08
5.02874e-06
6.31496e-10
5.01673e-06
2.09391e-08
5.00416e-06
2.88117e-08
4.99873e-06
2.14682e-08
5.00058e-06
8.32367e-09
5.00285e-06
1.73387e-09
5.00371e-06
1.66123e-10
5.00366e-06
6.56009e-10
5.00305e-06
2.16569e-09
1.6824e-09
4.99987e-06
-3.89177e-10
4.99955e-06
-1.31972e-09
4.99912e-06
-2.60998e-09
4.99885e-06
-4.54248e-09
4.99933e-06
-7.6704e-09
5.00036e-06
-1.13109e-08
5.00365e-06
-1.78251e-08
5.00982e-06
-2.55036e-08
5.02489e-06
-3.66652e-08
5.05613e-06
-4.74784e-08
5.04992e-06
6.69461e-09
5.02318e-06
4.77967e-08
4.99818e-06
5.3805e-08
4.99349e-06
2.61388e-08
4.99946e-06
2.3499e-09
5.00407e-06
-2.87489e-09
5.0049e-06
-6.67728e-10
5.00372e-06
1.8386e-09
5.00351e-06
2.38358e-09
9.7152e-10
4.99977e-06
-1.56978e-10
4.99915e-06
-7.04262e-10
4.99792e-06
-1.37858e-09
4.99611e-06
-2.73322e-09
4.99401e-06
-5.58016e-09
4.99374e-06
-1.10281e-08
4.99946e-06
-2.3533e-08
5.01714e-06
-4.31969e-08
5.0557e-06
-7.5223e-08
5.06681e-06
-5.86329e-08
5.04984e-06
2.38019e-08
4.9965e-06
1.01016e-07
4.98931e-06
6.09915e-08
4.99591e-06
1.95322e-08
5.00019e-06
-1.93992e-09
5.00292e-06
-5.62095e-09
5.00251e-06
-2.54753e-10
5.00183e-06
2.51814e-09
5.00254e-06
1.67901e-09
8.27945e-11
4.99986e-06
-1.51548e-11
4.99921e-06
-5.14585e-11
4.99791e-06
-8.71728e-11
4.9953e-06
-1.29158e-10
4.98989e-06
-1.69194e-10
4.97909e-06
-2.17165e-10
4.95583e-06
-2.66747e-10
4.91297e-06
-3.39131e-10
4.83811e-06
-4.26205e-10
4.78001e-06
-4.31007e-10
4.80427e-06
-6.18944e-10
4.90604e-06
-7.09226e-10
4.96781e-06
-7.25716e-10
4.98823e-06
-9.00844e-10
4.98745e-06
-1.16794e-09
4.98326e-06
-1.43241e-09
4.98455e-06
-1.56377e-09
4.9889e-06
-1.83034e-09
4.99247e-06
-1.89695e-09
-2.58485e-09
4.99986e-06
1.26201e-10
4.99921e-06
6.005e-10
4.99791e-06
1.20953e-09
4.99529e-06
2.48209e-09
4.98988e-06
5.2521e-09
4.97906e-06
1.0603e-08
4.95578e-06
2.30102e-08
4.9129e-06
4.2541e-08
4.83804e-06
7.44472e-08
4.77973e-06
5.78452e-08
4.80425e-06
-2.50132e-08
4.90599e-06
-1.02469e-07
4.96776e-06
-6.2511e-08
4.98806e-06
-2.11991e-08
4.98736e-06
-4.536e-10
4.98293e-06
2.99433e-09
4.98442e-06
-3.05639e-09
4.98888e-06
-6.28979e-09
4.99235e-06
-5.36107e-09
-4.98501e-09
4.99977e-06
3.56623e-10
4.99915e-06
1.22069e-09
4.99792e-06
2.44123e-09
4.9961e-06
4.29738e-09
4.99402e-06
7.33651e-09
4.99373e-06
1.08876e-08
4.99943e-06
1.73116e-08
5.01707e-06
2.48952e-08
5.05563e-06
3.59243e-08
5.06709e-06
4.63639e-08
5.04945e-06
-8.3597e-09
4.99611e-06
-4.90804e-08
4.98884e-06
-5.52652e-08
4.99569e-06
-2.80388e-08
5.00011e-06
-4.86036e-09
5.00231e-06
7.89535e-10
5.00165e-06
-2.39486e-09
5.0009e-06
-5.53852e-09
5.00168e-06
-6.14033e-09
-5.95244e-09
4.99986e-06
4.90774e-10
4.99955e-06
1.53947e-09
4.99911e-06
2.87813e-09
4.99883e-06
4.57958e-09
4.99927e-06
6.89131e-09
5.00026e-06
9.89488e-09
5.00348e-06
1.41038e-08
5.00961e-06
1.87663e-08
5.02459e-06
2.09192e-08
5.05556e-06
1.54183e-08
5.04979e-06
-1.61078e-09
5.02281e-06
-2.21857e-08
4.99787e-06
-3.02975e-08
4.99315e-06
-2.3329e-08
4.99863e-06
-1.03449e-08
5.00344e-06
-4.02325e-09
5.00373e-06
-2.67455e-09
5.00235e-06
-4.16411e-09
5.00216e-06
-5.94568e-09
-6.53575e-09
4.99998e-06
5.13391e-10
4.99993e-06
1.59023e-09
5.00001e-06
2.80241e-09
5.00031e-06
4.27538e-09
5.00113e-06
6.06471e-09
5.00279e-06
8.23499e-09
5.00668e-06
1.02213e-08
5.01379e-06
1.16659e-08
5.02357e-06
1.11181e-08
5.0307e-06
8.28416e-09
5.02838e-06
6.26536e-10
5.01627e-06
-1.00162e-08
5.0035e-06
-1.7557e-08
4.99776e-06
-1.76133e-08
4.9994e-06
-1.19905e-08
5.0016e-06
-6.22211e-09
5.0024e-06
-3.46826e-09
5.00213e-06
-3.89056e-09
5.0012e-06
-5.00729e-09
-5.97656e-09
5.00004e-06
4.77025e-10
5.00018e-06
1.446e-09
5.00051e-06
2.4819e-09
5.00115e-06
3.62856e-09
5.00232e-06
4.89231e-09
5.00439e-06
6.15927e-09
5.00741e-06
7.20273e-09
5.0114e-06
7.69174e-09
5.01514e-06
7.38562e-09
5.01852e-06
4.87067e-09
5.01956e-06
-4.06417e-10
5.01523e-06
-5.71021e-09
5.00853e-06
-1.08788e-08
5.0031e-06
-1.21865e-08
5.00087e-06
-9.76027e-09
5.001e-06
-6.35256e-09
5.00155e-06
-4.01084e-09
5.00132e-06
-3.65186e-09
5.00035e-06
-4.04498e-09
-4.97668e-09
5.00008e-06
4.00159e-10
5.00032e-06
1.20005e-09
5.00079e-06
2.01157e-09
5.00157e-06
2.85771e-09
5.00275e-06
3.7092e-09
5.00441e-06
4.4959e-09
5.00655e-06
5.05192e-09
5.00909e-06
5.1581e-09
5.01203e-06
4.45547e-09
5.0144e-06
2.50821e-09
5.01414e-06
-1.4073e-10
5.01208e-06
-3.64526e-09
5.00775e-06
-6.54447e-09
5.00348e-06
-7.91823e-09
5.00092e-06
-7.19429e-09
5.00013e-06
-5.55082e-09
5.00011e-06
-3.98241e-09
4.99988e-06
-3.42164e-09
4.99917e-06
-3.34243e-09
-4.17302e-09
5.0001e-06
3.013e-10
5.0004e-06
9.03005e-10
5.00091e-06
1.50148e-09
5.00168e-06
2.0929e-09
5.00274e-06
2.648e-09
5.00412e-06
3.10783e-09
5.00579e-06
3.37792e-09
5.00763e-06
3.31163e-09
5.00933e-06
2.7588e-09
5.01026e-06
1.57738e-09
5.01043e-06
-3.00214e-10
5.00903e-06
-2.23171e-09
5.0065e-06
-4.00775e-09
5.00367e-06
-5.0789e-09
5.00155e-06
-5.05571e-09
5.00035e-06
-4.34832e-09
4.99971e-06
-3.3394e-09
4.99917e-06
-2.886e-09
4.99845e-06
-2.62674e-09
-3.21691e-09
5.0001e-06
1.96995e-10
5.00041e-06
5.95562e-10
5.00093e-06
9.86899e-10
5.00166e-06
1.35992e-09
5.00262e-06
1.69398e-09
5.00378e-06
1.94496e-09
5.00509e-06
2.05873e-09
5.00645e-06
1.95077e-09
5.00765e-06
1.55702e-09
5.00839e-06
8.33657e-10
5.00821e-06
-1.22854e-10
5.00733e-06
-1.35117e-09
5.0057e-06
-2.36915e-09
5.00369e-06
-3.0568e-09
5.0018e-06
-3.16117e-09
5.00034e-06
-2.89103e-09
4.99932e-06
-2.32126e-09
4.99852e-06
-2.09288e-09
4.99772e-06
-1.83348e-09
-2.27913e-09
5.00009e-06
1.12239e-10
5.00038e-06
3.05458e-10
5.00086e-06
4.95527e-10
5.00155e-06
6.75745e-10
5.00241e-06
8.33134e-10
5.00341e-06
9.45113e-10
5.00448e-06
9.88463e-10
5.00551e-06
9.28752e-10
5.00633e-06
7.33199e-10
5.0068e-06
3.61615e-10
5.00681e-06
-1.38827e-10
5.00607e-06
-6.23687e-10
5.00479e-06
-1.08584e-09
5.00315e-06
-1.42221e-09
5.00149e-06
-1.49468e-09
5.00002e-06
-1.43305e-09
4.99888e-06
-1.18471e-09
4.99792e-06
-1.13414e-09
4.99706e-06
-9.7644e-10
-1.42512e-09
5.00012e-06
5.00042e-06
5.00091e-06
5.00158e-06
5.00241e-06
5.00336e-06
5.00436e-06
5.0053e-06
5.00603e-06
5.0064e-06
5.00625e-06
5.00562e-06
5.00453e-06
5.0031e-06
5.0016e-06
5.00016e-06
4.99898e-06
4.99784e-06
4.99687e-06
)
;

boundaryField
{
    sides
    {
        type            calculated;
        value           uniform 0;
    }
    inlet
    {
        type            calculated;
        value           nonuniform List<scalar> 
20
(
-5e-06
-5e-06
-5e-06
-5e-06
-5e-06
-5e-06
-5e-06
-5e-06
-5e-06
-5e-06
-5e-06
-5e-06
-5e-06
-5e-06
-5e-06
-5e-06
-5e-06
-5e-06
-5e-06
-5e-06
)
;
    }
    outlet
    {
        type            calculated;
        value           nonuniform List<scalar> 
20
(
5.0019e-06
5.0014e-06
5.00151e-06
5.00143e-06
5.00172e-06
5.002e-06
5.00279e-06
5.00422e-06
5.00343e-06
4.99514e-06
4.99475e-06
5.00265e-06
5.00275e-06
5.00064e-06
4.99935e-06
4.99836e-06
4.99749e-06
4.99679e-06
4.99621e-06
4.99544e-06
)
;
    }
    frontAndBack
    {
        type            empty;
        value           nonuniform List<scalar> 0();
    }
}


// ************************************************************************* //
