/*--------------------------------*- C++ -*----------------------------------*\
  =========                 |
  \\      /  F ield         | OpenFOAM: The Open Source CFD Toolbox
   \\    /   O peration     | Website:  https://openfoam.org
    \\  /    A nd           | Version:  9
     \\/     M anipulation  |
\*---------------------------------------------------------------------------*/
FoamFile
{
    format      ascii;
    class       volVectorField;
    location    "97";
    object      U;
}
// * * * * * * * * * * * * * * * * * * * * * * * * * * * * * * * * * * * * * //

dimensions      [0 1 -1 0 0 0 0];

internalField   nonuniform List<vector> 
400
(
(0.0999964 -2.4578e-06 0)
(0.100001 -7.05237e-06 0)
(0.100009 -1.1312e-05 0)
(0.100023 -1.52394e-05 0)
(0.10004 -1.87214e-05 0)
(0.100061 -2.16665e-05 0)
(0.100083 -2.36713e-05 0)
(0.100107 -2.45192e-05 0)
(0.100128 -2.36192e-05 0)
(0.100144 -2.11298e-05 0)
(0.100152 -1.68711e-05 0)
(0.100152 -1.28642e-05 0)
(0.10014 -9.91844e-06 0)
(0.10012 -9.31966e-06 0)
(0.100093 -9.98946e-06 0)
(0.100068 -1.35811e-05 0)
(0.100045 -1.56606e-05 0)
(0.100034 -2.00946e-05 0)
(0.100025 -1.88313e-05 0)
(0.100033 -2.68287e-05 0)
(0.099997 -2.72007e-06 0)
(0.100002 -7.87812e-06 0)
(0.100011 -1.28166e-05 0)
(0.100025 -1.74113e-05 0)
(0.100044 -2.13193e-05 0)
(0.100066 -2.40095e-05 0)
(0.100091 -2.45366e-05 0)
(0.100117 -2.19913e-05 0)
(0.100141 -1.54371e-05 0)
(0.100161 -4.788e-06 0)
(0.100171 9.32536e-06 0)
(0.100169 2.47002e-05 0)
(0.100154 3.89101e-05 0)
(0.100129 4.76277e-05 0)
(0.1001 5.04597e-05 0)
(0.100071 4.5149e-05 0)
(0.10005 3.78245e-05 0)
(0.100037 2.5727e-05 0)
(0.100033 2.05689e-05 0)
(0.100029 8.12839e-06 0)
(0.0999969 -5.28711e-06 0)
(0.100002 -1.59203e-05 0)
(0.100011 -2.67003e-05 0)
(0.100025 -3.73731e-05 0)
(0.100044 -4.73417e-05 0)
(0.100068 -5.55134e-05 0)
(0.100096 -6.02993e-05 0)
(0.100127 -5.97239e-05 0)
(0.100156 -5.18053e-05 0)
(0.10018 -3.52559e-05 0)
(0.100193 -1.10413e-05 0)
(0.100192 1.61364e-05 0)
(0.100174 4.00972e-05 0)
(0.100142 5.19365e-05 0)
(0.100102 4.98903e-05 0)
(0.100066 3.53482e-05 0)
(0.100038 2.02898e-05 0)
(0.100026 4.59019e-06 0)
(0.100021 -3.35299e-07 0)
(0.100029 -1.17198e-05 0)
(0.0999963 -7.37777e-06 0)
(0.100001 -2.22739e-05 0)
(0.10001 -3.75215e-05 0)
(0.100025 -5.30454e-05 0)
(0.100046 -6.80374e-05 0)
(0.100073 -8.09536e-05 0)
(0.100107 -8.88748e-05 0)
(0.100146 -8.85807e-05 0)
(0.100186 -7.56181e-05 0)
(0.100222 -4.76368e-05 0)
(0.100243 -2.38503e-06 0)
(0.10024 4.92568e-05 0)
(0.100211 9.35799e-05 0)
(0.100159 0.000113893 0)
(0.100104 0.000105426 0)
(0.100061 7.42843e-05 0)
(0.100041 4.23686e-05 0)
(0.100035 1.69829e-05 0)
(0.10004 1.01638e-05 0)
(0.100035 1.38352e-08 0)
(0.0999953 -9.10177e-06 0)
(0.0999994 -2.78327e-05 0)
(0.100008 -4.77365e-05 0)
(0.100023 -6.93977e-05 0)
(0.100045 -9.20542e-05 0)
(0.100076 -0.000113909 0)
(0.100117 -0.000129927 0)
(0.100168 -0.000133788 0)
(0.100225 -0.00011769 0)
(0.100281 -7.78034e-05 0)
(0.100318 -1.71235e-05 0)
(0.100316 5.8046e-05 0)
(0.100267 0.000123196 0)
(0.100182 0.000151158 0)
(0.100091 0.000137522 0)
(0.100029 9.64768e-05 0)
(0.10001 5.81404e-05 0)
(0.100019 3.14101e-05 0)
(0.100036 2.61649e-05 0)
(0.100043 1.67637e-05 0)
(0.0999939 -1.03101e-05 0)
(0.0999968 -3.18485e-05 0)
(0.100003 -5.62251e-05 0)
(0.100015 -8.44711e-05 0)
(0.100036 -0.000117296 0)
(0.10007 -0.000152569 0)
(0.100122 -0.000186016 0)
(0.100192 -0.00020555 0)
(0.100277 -0.000191256 0)
(0.100357 -0.000119828 0)
(0.100414 8.7579e-06 0)
(0.100415 0.000154527 0)
(0.100339 0.000243776 0)
(0.100208 0.000230691 0)
(0.100085 0.000143083 0)
(0.100015 4.92939e-05 0)
(0.100012 1.34913e-06 0)
(0.100035 -8.55324e-06 0)
(0.100065 5.97558e-06 0)
(0.100055 4.97214e-06 0)
(0.0999923 -1.02155e-05 0)
(0.0999928 -3.33102e-05 0)
(0.0999949 -6.01663e-05 0)
(0.100001 -9.6208e-05 0)
(0.100016 -0.000139313 0)
(0.100046 -0.000194751 0)
(0.100103 -0.00024904 0)
(0.100202 -0.000308499 0)
(0.10035 -0.000323332 0)
(0.10052 -0.000288116 0)
(0.100632 -6.60194e-05 0)
(0.10059 0.000255879 0)
(0.100383 0.000483002 0)
(0.100117 0.000473834 0)
(0.0999477 0.000302922 0)
(0.0999219 0.000126465 0)
(0.0999926 4.31623e-05 0)
(0.100056 3.26959e-05 0)
(0.100095 5.62085e-05 0)
(0.100067 5.33917e-05 0)
(0.0999905 -9.20198e-06 0)
(0.0999874 -2.88177e-05 0)
(0.0999807 -5.76563e-05 0)
(0.0999769 -9.56967e-05 0)
(0.0999774 -0.000157841 0)
(0.100001 -0.000234595 0)
(0.100047 -0.00034029 0)
(0.10016 -0.000412371 0)
(0.100335 -0.000437276 0)
(0.10066 -0.000255211 0)
(0.101007 7.4298e-05 0)
(0.101012 0.00042673 0)
(0.100606 0.00047194 0)
(0.100072 0.000278159 0)
(0.099782 7.3573e-05 0)
(0.0997968 -2.73582e-05 0)
(0.0999671 -2.8494e-05 0)
(0.100089 -8.9699e-07 0)
(0.100138 2.12473e-05 0)
(0.100087 1.03041e-05 0)
(0.0999895 -4.87111e-06 0)
(0.0999806 -2.03294e-05 0)
(0.0999628 -3.86225e-05 0)
(0.0999377 -7.35274e-05 0)
(0.0999105 -0.000133911 0)
(0.0999019 -0.000248156 0)
(0.0999569 -0.000468674 0)
(0.100145 -0.000806772 0)
(0.100537 -0.00132912 0)
(0.101061 -0.00149301 0)
(0.101323 0.000383433 0)
(0.100998 0.00187444 0)
(0.100241 0.00157815 0)
(0.0997201 0.000573781 0)
(0.0996446 -3.16787e-05 0)
(0.099822 -0.000126331 0)
(0.100024 -9.40052e-06 0)
(0.100107 6.35106e-05 0)
(0.100113 6.52202e-05 0)
(0.100055 2.4379e-05 0)
(0.0999703 -1.94529e-06 0)
(0.100006 -6.64205e-06 0)
(0.0999077 -1.51414e-05 0)
(0.0999716 -2.49011e-05 0)
(0.0997258 -5.92401e-05 0)
(0.0998441 -0.000113081 0)
(0.0992767 -0.000288189 0)
(0.0996752 -0.000558912 0)
(0.099118 -0.00115371 0)
(0.102003 -0.00141514 0)
(0.10628 3.15328e-05 0)
(0.101267 0.00146768 0)
(0.0990077 0.00130734 0)
(0.0982227 0.000513201 0)
(0.0988556 1.93187e-05 0)
(0.0996052 -7.82389e-05 0)
(0.0999351 -1.12241e-05 0)
(0.0999521 2.47901e-05 0)
(0.0998669 1.74045e-05 0)
(0.0998489 -1.85029e-05 0)
(0.099971 1.31482e-06 0)
(0.100006 4.58054e-06 0)
(0.0999083 1.17185e-05 0)
(0.0999721 1.99765e-05 0)
(0.0997262 5.29389e-05 0)
(0.0998442 0.000105115 0)
(0.0992763 0.000278463 0)
(0.0996745 0.000546809 0)
(0.0991171 0.00113907 0)
(0.102001 0.00139777 0)
(0.106277 -5.19824e-05 0)
(0.101265 -0.00149417 0)
(0.0990079 -0.00133935 0)
(0.0982222 -0.000552424 0)
(0.0988538 -6.47601e-05 0)
(0.0996016 2.47357e-05 0)
(0.0999311 -4.73489e-05 0)
(0.0999478 -0.000100326 0)
(0.0998658 -9.89168e-05 0)
(0.0998442 -8.88755e-05 0)
(0.0999915 4.24811e-06 0)
(0.0999825 1.83477e-05 0)
(0.0999647 3.53035e-05 0)
(0.0999397 6.8733e-05 0)
(0.0999124 0.00012767 0)
(0.0999038 0.000240109 0)
(0.0999583 0.000458792 0)
(0.100146 0.000794337 0)
(0.100537 0.0013138 0)
(0.101064 0.0014734 0)
(0.101325 -0.000407745 0)
(0.100995 -0.00190246 0)
(0.100235 -0.00160985 0)
(0.099712 -0.000612001 0)
(0.0996386 -8.34609e-06 0)
(0.0998173 7.75303e-05 0)
(0.100015 -4.27854e-05 0)
(0.100092 -0.000130584 0)
(0.100093 -0.000137986 0)
(0.100038 -0.000125092 0)
(0.0999938 8.59385e-06 0)
(0.0999906 2.69533e-05 0)
(0.0999838 5.44471e-05 0)
(0.0999798 9.10428e-05 0)
(0.0999799 0.000151402 0)
(0.100003 0.000226134 0)
(0.100048 0.000329322 0)
(0.100159 0.000399175 0)
(0.100332 0.000421379 0)
(0.100654 0.000236532 0)
(0.101 -9.85059e-05 0)
(0.101008 -0.000454478 0)
(0.100601 -0.0005023 0)
(0.100067 -0.00031287 0)
(0.099775 -0.000113006 0)
(0.0997846 -2.51172e-05 0)
(0.0999509 -3.23026e-05 0)
(0.100066 -7.41838e-05 0)
(0.100111 -9.67432e-05 0)
(0.100057 -0.000107395 0)
(0.0999971 9.63262e-06 0)
(0.0999974 3.15245e-05 0)
(0.0999992 5.71322e-05 0)
(0.100005 9.17676e-05 0)
(0.100019 0.000133402 0)
(0.100049 0.000187114 0)
(0.100105 0.000239889 0)
(0.100203 0.000297541 0)
(0.100351 0.000311307 0)
(0.100519 0.000273383 0)
(0.100631 5.14372e-05 0)
(0.100586 -0.000275409 0)
(0.100375 -0.000507814 0)
(0.100105 -0.000507011 0)
(0.0999303 -0.000344904 0)
(0.0998988 -0.000179444 0)
(0.0999681 -0.000102137 0)
(0.100026 -0.000105925 0)
(0.100065 -0.000130698 0)
(0.100025 -0.000151541 0)
(0.1 9.76993e-06 0)
(0.100003 3.0242e-05 0)
(0.100009 5.35278e-05 0)
(0.100021 8.05642e-05 0)
(0.10004 0.000112166 0)
(0.100073 0.000145975 0)
(0.100124 0.00017788 0)
(0.100194 0.000195112 0)
(0.100276 0.000178233 0)
(0.100353 0.000103613 0)
(0.100407 -2.79836e-05 0)
(0.100405 -0.000178131 0)
(0.100326 -0.000271043 0)
(0.10019 -0.000263253 0)
(0.100064 -0.000177995 0)
(0.0999889 -8.96234e-05 0)
(0.0999835 -4.27639e-05 0)
(0.0999983 -4.47952e-05 0)
(0.100024 -6.16046e-05 0)
(0.100002 -8.48307e-05 0)
(0.100003 8.6046e-06 0)
(0.100007 2.6419e-05 0)
(0.100015 4.5421e-05 0)
(0.100029 6.61342e-05 0)
(0.10005 8.77487e-05 0)
(0.10008 0.000108448 0)
(0.10012 0.000123066 0)
(0.10017 0.000125338 0)
(0.100225 0.000107339 0)
(0.100279 6.56199e-05 0)
(0.100315 1.68829e-06 0)
(0.100309 -7.71437e-05 0)
(0.100256 -0.000145169 0)
(0.100166 -0.000177618 0)
(0.100072 -0.000166948 0)
(0.100003 -0.000134878 0)
(0.0999793 -0.000102946 0)
(0.0999768 -9.36847e-05 0)
(0.0999895 -9.44953e-05 0)
(0.0999775 -0.000110816 0)
(0.100005 6.9445e-06 0)
(0.10001 2.09946e-05 0)
(0.100019 3.54329e-05 0)
(0.100033 5.01319e-05 0)
(0.100053 6.43453e-05 0)
(0.100079 7.65113e-05 0)
(0.100111 8.37604e-05 0)
(0.100148 8.26553e-05 0)
(0.100186 6.91786e-05 0)
(0.100218 4.06441e-05 0)
(0.100235 -4.66925e-06 0)
(0.100228 -5.76678e-05 0)
(0.100195 -0.000103672 0)
(0.100138 -0.000128246 0)
(0.100077 -0.000122998 0)
(0.100023 -9.93948e-05 0)
(0.0999952 -7.0145e-05 0)
(0.0999764 -5.56507e-05 0)
(0.0999769 -4.86978e-05 0)
(0.0999569 -5.9809e-05 0)
(0.100007 5.07162e-06 0)
(0.100012 1.50266e-05 0)
(0.100021 2.47143e-05 0)
(0.100034 3.38836e-05 0)
(0.100053 4.20787e-05 0)
(0.100076 4.82029e-05 0)
(0.100103 5.07732e-05 0)
(0.100131 4.73409e-05 0)
(0.100159 3.62193e-05 0)
(0.100182 1.56949e-05 0)
(0.100193 -1.15599e-05 0)
(0.100186 -4.20418e-05 0)
(0.100162 -6.81268e-05 0)
(0.100122 -8.41866e-05 0)
(0.100078 -8.49239e-05 0)
(0.100032 -7.6964e-05 0)
(0.100001 -6.37069e-05 0)
(0.0999728 -5.9634e-05 0)
(0.099965 -5.6136e-05 0)
(0.0999395 -6.8464e-05 0)
(0.100009 3.48034e-06 0)
(0.100013 1.05165e-05 0)
(0.100021 1.74856e-05 0)
(0.100034 2.41777e-05 0)
(0.100051 3.01537e-05 0)
(0.100071 3.48411e-05 0)
(0.100094 3.74078e-05 0)
(0.100117 3.68311e-05 0)
(0.100138 3.20245e-05 0)
(0.100153 2.25006e-05 0)
(0.10016 8.71367e-06 0)
(0.100155 -6.95306e-06 0)
(0.100137 -2.05217e-05 0)
(0.100105 -2.96055e-05 0)
(0.100068 -3.10903e-05 0)
(0.100027 -2.80633e-05 0)
(0.0999972 -2.01997e-05 0)
(0.0999658 -1.68569e-05 0)
(0.0999541 -1.18716e-05 0)
(0.0999258 -1.98409e-05 0)
(0.10001 -4.04686e-07 0)
(0.100015 -9.71557e-07 0)
(0.100023 -1.2806e-06 0)
(0.100036 -1.47708e-06 0)
(0.100053 -1.73975e-06 0)
(0.100072 -2.3488e-06 0)
(0.100094 -3.44073e-06 0)
(0.100115 -5.38279e-06 0)
(0.100134 -8.1827e-06 0)
(0.100147 -1.22005e-05 0)
(0.100152 -1.69601e-05 0)
(0.100145 -2.31048e-05 0)
(0.100129 -2.9014e-05 0)
(0.1001 -3.40682e-05 0)
(0.100069 -3.59025e-05 0)
(0.10003 -3.67509e-05 0)
(0.100003 -3.42176e-05 0)
(0.0999669 -3.52882e-05 0)
(0.0999557 -3.28036e-05 0)
(0.0999144 -4.10654e-05 0)
)
;

boundaryField
{
    sides
    {
        type            calculated;
        value           nonuniform List<vector> 
40
(
(0.10001 0 0)
(0.100015 0 0)
(0.100023 0 0)
(0.100036 0 0)
(0.100053 0 0)
(0.100072 0 0)
(0.100094 0 0)
(0.100115 0 0)
(0.100134 0 0)
(0.100147 0 0)
(0.100152 0 0)
(0.100145 0 0)
(0.100129 0 0)
(0.1001 0 0)
(0.100069 0 0)
(0.10003 0 0)
(0.100003 0 0)
(0.0999669 0 0)
(0.0999557 0 0)
(0.0999144 0 0)
(0.0999964 0 0)
(0.100001 0 0)
(0.100009 0 0)
(0.100023 0 0)
(0.10004 0 0)
(0.100061 0 0)
(0.100083 0 0)
(0.100107 0 0)
(0.100128 0 0)
(0.100144 0 0)
(0.100152 0 0)
(0.100152 0 0)
(0.10014 0 0)
(0.10012 0 0)
(0.100093 0 0)
(0.100068 0 0)
(0.100045 0 0)
(0.100034 0 0)
(0.100025 0 0)
(0.100033 0 0)
)
;
    }
    inlet
    {
        type            calculated;
        value           nonuniform List<vector> 
20
(
(0.0999962 0 0)
(0.0999968 0 0)
(0.0999967 0 0)
(0.0999961 0 0)
(0.0999951 0 0)
(0.0999938 0 0)
(0.0999923 0 0)
(0.0999909 0 0)
(0.0999899 0 0)
(0.0999899 0 0)
(0.0999906 0 0)
(0.099992 0 0)
(0.0999943 0 0)
(0.0999971 0 0)
(0.0999999 0 0)
(0.100003 0 0)
(0.100005 0 0)
(0.100007 0 0)
(0.100009 0 0)
(0.10001 0 0)
)
;
    }
    outlet
    {
        type            calculated;
        value           nonuniform List<vector> 
20
(
(0.100033 -2.68288e-05 0)
(0.100029 8.12837e-06 0)
(0.10003 -1.17198e-05 0)
(0.100035 1.38351e-08 0)
(0.100043 1.67637e-05 0)
(0.100055 4.9721e-06 0)
(0.100066 5.33911e-05 0)
(0.100085 1.03039e-05 0)
(0.100054 2.43787e-05 0)
(0.0998504 -1.85032e-05 0)
(0.0998454 -8.88766e-05 0)
(0.100037 -0.00012509 0)
(0.100055 -0.000107393 0)
(0.100024 -0.000151539 0)
(0.100001 -8.48297e-05 0)
(0.0999768 -0.000110815 0)
(0.0999561 -5.98085e-05 0)
(0.0999387 -6.84634e-05 0)
(0.0999249 -1.98408e-05 0)
(0.099913 -4.10648e-05 0)
)
;
    }
    frontAndBack
    {
        type            empty;
    }
}


// ************************************************************************* //
