/*--------------------------------*- C++ -*----------------------------------*\
  =========                 |
  \\      /  F ield         | OpenFOAM: The Open Source CFD Toolbox
   \\    /   O peration     | Website:  https://openfoam.org
    \\  /    A nd           | Version:  9
     \\/     M anipulation  |
\*---------------------------------------------------------------------------*/
FoamFile
{
    format      ascii;
    class       volScalarField;
    location    "88";
    object      ddt0(h);
}
// * * * * * * * * * * * * * * * * * * * * * * * * * * * * * * * * * * * * * //

dimensions      [0 1 -1 0 0 0 0];

internalField   nonuniform List<scalar> 
400
(
9.00353e-10
1.88525e-09
5.63795e-09
-2.81517e-09
-7.75756e-09
-1.35078e-08
-3.08947e-09
-1.91678e-08
-6.384e-09
5.92683e-09
4.18857e-08
1.31088e-08
1.16714e-08
2.08248e-08
1.37039e-08
1.51703e-08
2.02137e-08
1.34343e-08
1.48726e-08
9.10251e-09
-5.8119e-09
5.19557e-09
7.35737e-09
-7.14876e-09
-1.29752e-08
2.19657e-09
7.23154e-09
-1.79219e-08
8.90325e-10
2.85545e-09
4.9811e-09
2.16185e-08
-1.14163e-08
1.30576e-08
6.51728e-09
-1.1033e-08
-8.82119e-09
7.15343e-09
1.85528e-08
1.39455e-08
-2.9097e-09
1.1621e-08
1.02864e-10
-1.70689e-08
-8.03405e-09
2.74189e-08
-1.40745e-08
7.07215e-09
-2.09816e-08
2.00021e-08
-3.26275e-08
1.23995e-08
-3.59321e-09
-1.43108e-08
1.07628e-08
-1.31543e-08
-3.00254e-08
-1.09518e-09
2.72324e-08
1.41168e-08
6.19526e-09
1.10403e-08
-1.57115e-08
-1.98237e-08
1.71545e-08
6.99436e-09
-1.59836e-08
2.97304e-08
-6.85257e-09
-1.78479e-08
3.15334e-08
-5.96073e-08
2.10768e-08
-1.48453e-08
-1.75815e-08
-5.06471e-09
-1.56573e-08
-9.35881e-09
1.50366e-09
2.40142e-09
1.62638e-08
-1.41228e-09
-2.71377e-08
-3.48927e-09
2.04152e-08
-1.95864e-08
3.10918e-08
-9.36354e-10
3.82573e-08
-7.05839e-08
-4.14742e-08
2.84635e-08
-7.08786e-08
-6.70913e-09
-1.04258e-08
-1.16159e-08
-1.38653e-09
-7.06627e-09
-2.02322e-08
-1.33447e-08
1.80805e-08
-1.54866e-08
-2.36045e-08
1.15135e-08
7.19746e-09
1.81551e-10
7.8691e-09
4.55463e-08
-1.12522e-07
1.47709e-07
-1.84382e-07
5.91296e-08
4.9267e-08
-6.21375e-08
-2.99715e-08
3.08655e-09
1.19961e-08
-7.92707e-09
-3.38006e-08
-2.20714e-08
7.4818e-09
-1.9294e-08
-1.06634e-08
1.58142e-08
7.98547e-09
-7.83813e-09
3.65693e-08
-7.30087e-08
5.19685e-08
-5.97163e-08
3.05059e-07
-2.8574e-07
8.00925e-08
6.10787e-08
-1.96544e-08
-4.57543e-09
1.07931e-08
-8.68839e-09
-3.15672e-08
-1.86832e-08
-4.56865e-09
-1.30168e-08
3.87065e-09
1.45378e-08
1.70532e-10
7.84947e-09
-2.71509e-08
9.01006e-10
5.07684e-08
-5.31387e-07
4.14471e-06
1.26513e-07
-1.04463e-07
2.05036e-08
2.531e-08
1.15777e-08
1.11376e-08
-6.65739e-09
-2.00012e-08
-1.01343e-08
-9.77797e-09
1.93111e-09
1.23103e-08
6.17769e-09
1.68253e-09
-1.58408e-08
-9.45092e-09
-1.01128e-08
-1.40123e-08
5.75268e-07
-4.17073e-06
-9.65415e-08
1.36956e-07
1.78257e-08
2.96179e-08
2.7992e-08
-1.0363e-09
1.79643e-09
-3.13457e-09
1.68835e-08
-7.79242e-09
1.35839e-08
1.79808e-08
-8.28361e-09
-6.88169e-09
-7.11533e-09
-3.42665e-08
8.27073e-08
-3.59981e-08
7.15721e-08
-2.90194e-07
2.52969e-07
-1.0031e-07
-4.37707e-08
2.03066e-08
2.43882e-08
2.86081e-08
1.35692e-08
1.78374e-08
-8.69186e-09
-4.57434e-09
1.72163e-08
1.78703e-08
-1.28369e-08
-2.03219e-08
-8.74072e-10
6.75911e-09
-6.00445e-10
1.14413e-07
-3.63327e-07
4.11315e-07
-1.91203e-07
-1.18718e-07
1.02468e-09
-3.13777e-09
-7.6923e-09
-1.84909e-09
1.33427e-08
2.21545e-08
1.08895e-08
-2.37842e-09
7.38024e-09
1.71467e-08
-7.08727e-09
-2.23432e-08
-1.67404e-09
1.09952e-08
3.04026e-08
-9.14233e-08
2.51291e-07
-2.13355e-06
1.12458e-07
-7.76492e-09
-2.9298e-08
-7.46203e-09
-1.2862e-08
1.49579e-09
1.24611e-08
1.37012e-08
6.07267e-09
-9.66711e-10
-8.59788e-09
6.43949e-09
1.26685e-08
-1.25272e-08
1.74861e-09
-8.64083e-09
-2.02661e-08
7.99776e-08
-2.15005e-07
2.27479e-06
-1.76468e-07
6.47743e-08
5.3952e-08
1.81453e-08
3.19849e-09
6.87385e-09
3.32304e-09
-6.28583e-09
-4.60802e-09
1.08116e-09
-2.06176e-08
-7.05748e-09
2.41648e-08
1.86583e-08
-9.75404e-09
-5.52262e-09
-4.66787e-08
2.15961e-09
2.63571e-07
-4.62989e-07
1.85103e-07
7.69433e-08
5.17884e-08
1.65352e-08
3.0307e-09
-4.07562e-09
-1.36374e-08
-2.48041e-08
-1.39594e-08
4.60549e-09
-1.9826e-08
-1.6619e-08
1.63863e-08
3.03954e-08
9.62552e-09
-1.21373e-08
-3.20886e-08
-8.5128e-09
-3.82728e-08
6.19688e-08
2.13413e-08
3.43441e-08
1.17688e-08
-7.3539e-09
-6.41606e-09
-1.41428e-08
-2.0724e-08
-2.54285e-08
-1.37927e-08
1.04161e-08
-6.52288e-09
-2.3857e-08
-2.87899e-09
1.49822e-08
1.85927e-08
1.39494e-08
-8.78493e-09
-2.80984e-08
-2.60941e-08
3.60485e-08
-1.70491e-08
-1.17004e-08
-2.78237e-08
-2.44344e-08
-2.56533e-08
-2.1762e-08
-8.21666e-09
-6.71656e-09
-5.92172e-09
1.27495e-08
1.02565e-08
-2.36384e-08
-2.58668e-08
-1.86036e-09
1.06749e-08
2.97161e-08
2.35469e-08
-1.24726e-09
-2.17055e-08
-4.40899e-08
-3.17173e-08
-3.00983e-08
-4.13275e-08
-4.11198e-08
-2.75346e-08
-1.23825e-08
7.51642e-09
1.27956e-08
4.07187e-09
2.21438e-09
1.85695e-08
-8.009e-09
-2.95383e-08
-1.3389e-08
8.41378e-09
1.69387e-08
2.75304e-08
9.76923e-09
6.97828e-09
-6.01556e-12
-4.92333e-09
-1.56106e-08
-2.83716e-08
-1.94352e-08
-8.75081e-09
-3.35256e-09
9.28858e-09
1.99667e-08
1.05425e-08
-1.57422e-08
7.69712e-09
1.66945e-08
-7.15587e-10
-1.00278e-08
-5.3331e-09
-2.40001e-09
-3.58733e-09
-1.84252e-09
1.40956e-08
2.5011e-08
1.7275e-08
1.64986e-09
3.83777e-09
1.32373e-08
1.65886e-08
9.78361e-09
5.96393e-09
1.7562e-08
1.28429e-08
-3.20672e-08
-9.2911e-09
3.12955e-08
3.38865e-08
3.02202e-09
-1.56447e-08
-2.26852e-08
-3.02658e-08
-2.33297e-08
1.93203e-09
2.22857e-08
1.52658e-08
7.1408e-09
1.9324e-08
3.27213e-08
3.59161e-08
1.72673e-08
-4.22444e-09
4.24925e-09
9.45601e-09
)
;

boundaryField
{
    sides
    {
        type            calculated;
        value           nonuniform List<scalar> 
40
(
-3.20672e-08
-9.2911e-09
3.12955e-08
3.38865e-08
3.02202e-09
-1.56447e-08
-2.26852e-08
-3.02658e-08
-2.33297e-08
1.93203e-09
2.22857e-08
1.52658e-08
7.1408e-09
1.9324e-08
3.27213e-08
3.59161e-08
1.72673e-08
-4.22444e-09
4.24925e-09
9.45601e-09
9.00353e-10
1.88525e-09
5.63795e-09
-2.81517e-09
-7.75756e-09
-1.35078e-08
-3.08947e-09
-1.91678e-08
-6.384e-09
5.92683e-09
4.18857e-08
1.31088e-08
1.16714e-08
2.08248e-08
1.37039e-08
1.51703e-08
2.02137e-08
1.34343e-08
1.48726e-08
9.10251e-09
)
;
    }
    inlet
    {
        type            calculated;
        value           nonuniform List<scalar> 
20
(
9.00353e-10
-5.8119e-09
-2.9097e-09
6.19526e-09
1.62638e-08
1.80805e-08
7.4818e-09
-4.56865e-09
-9.77797e-09
-7.79242e-09
-4.57434e-09
-2.37842e-09
-9.66711e-10
1.08116e-09
4.60549e-09
1.04161e-08
1.27495e-08
2.21438e-09
-1.57422e-08
-3.20672e-08
)
;
    }
    outlet
    {
        type            calculated;
        value           uniform 0;
    }
    frontAndBack
    {
        type            empty;
    }
}


// ************************************************************************* //
