/*--------------------------------*- C++ -*----------------------------------*\
  =========                 |
  \\      /  F ield         | OpenFOAM: The Open Source CFD Toolbox
   \\    /   O peration     | Website:  https://openfoam.org
    \\  /    A nd           | Version:  9
     \\/     M anipulation  |
\*---------------------------------------------------------------------------*/
FoamFile
{
    format      ascii;
    class       volVectorField;
    location    "88";
    object      ddt0(hU);
}
// * * * * * * * * * * * * * * * * * * * * * * * * * * * * * * * * * * * * * //

dimensions      [0 2 -2 0 0 0 0];

internalField   nonuniform List<vector> 
400
(
(8.08421e-10 8.57188e-10 0)
(-1.34063e-10 -2.9324e-10 0)
(-1.0134e-09 -3.88906e-10 0)
(2.01317e-10 -4.86701e-11 0)
(2.5543e-09 9.04417e-10 0)
(1.80349e-09 -1.91668e-10 0)
(-1.91817e-11 -2.27278e-09 0)
(-1.81946e-09 -1.33365e-09 0)
(-1.25685e-09 -2.92093e-09 0)
(-3.16257e-09 -9.41057e-10 0)
(1.46752e-09 -1.8074e-09 0)
(2.08202e-09 2.58809e-10 0)
(4.92193e-09 5.23502e-10 0)
(4.74889e-09 -1.53088e-09 0)
(-6.3947e-10 -8.8456e-11 0)
(7.81491e-11 6.94762e-10 0)
(4.37901e-09 -4.47227e-10 0)
(5.32669e-09 -2.13018e-09 0)
(2.44092e-09 -3.11591e-09 0)
(-3.45157e-09 -1.59086e-09 0)
(-7.53313e-10 1.99111e-09 0)
(-9.27071e-10 -8.68102e-10 0)
(-6.73991e-10 -9.49592e-10 0)
(1.01896e-09 7.89011e-10 0)
(2.00758e-09 2.06832e-09 0)
(2.8278e-10 -2.27567e-09 0)
(-1.87348e-10 -4.85682e-09 0)
(-2.3917e-09 -2.89053e-09 0)
(-3.09268e-10 -5.0363e-09 0)
(-2.22229e-09 -2.17301e-09 0)
(-9.53197e-10 1.86163e-09 0)
(5.41153e-09 -2.7459e-10 0)
(7.42404e-10 1.87335e-09 0)
(3.13125e-09 -2.92014e-09 0)
(8.7918e-10 -1.86196e-09 0)
(-2.77951e-09 1.58158e-09 0)
(-1.22923e-09 -4.72546e-11 0)
(1.96762e-09 -4.39173e-09 0)
(3.10026e-09 -6.60156e-09 0)
(1.10925e-09 -3.21985e-09 0)
(-1.92448e-09 7.8021e-10 0)
(-2.19436e-09 -1.36736e-09 0)
(-8.34635e-11 3.93637e-12 0)
(1.73589e-09 2.89597e-09 0)
(-2.74504e-10 8.45058e-10 0)
(-8.84065e-10 -4.74562e-09 0)
(-1.77492e-09 -1.16352e-09 0)
(4.61417e-10 -4.42681e-09 0)
(-2.3742e-09 -5.89308e-10 0)
(5.30889e-09 -4.52555e-09 0)
(-3.62779e-09 5.72235e-09 0)
(2.10119e-09 1.34168e-09 0)
(7.04165e-10 -1.38396e-09 0)
(-3.04195e-09 -1.18438e-09 0)
(3.47342e-09 -4.05812e-09 0)
(-5.97577e-10 -1.08515e-09 0)
(-6.25761e-09 6.98352e-10 0)
(-2.87394e-09 -2.45412e-09 0)
(4.17659e-09 -5.71489e-09 0)
(6.04825e-09 -3.49064e-09 0)
(-1.40946e-09 -2.3713e-09 0)
(-1.63688e-09 -1.21512e-09 0)
(9.95498e-10 2.43425e-09 0)
(5.8738e-10 3.82466e-09 0)
(-2.38097e-09 -2.01967e-09 0)
(-1.07422e-09 -1.23795e-09 0)
(-1.97379e-09 7.13838e-10 0)
(2.38943e-09 -2.39051e-09 0)
(-1.36824e-09 -1.4157e-09 0)
(1.87559e-09 4.27431e-09 0)
(8.50838e-09 -5.92982e-09 0)
(-9.74221e-09 7.10612e-09 0)
(1.18476e-09 -9.12335e-11 0)
(-2.76835e-09 -2.18104e-09 0)
(-1.78303e-09 -1.78403e-09 0)
(2.98761e-09 -2.58113e-09 0)
(-2.65232e-09 -7.01408e-10 0)
(-6.27985e-09 -9.92878e-10 0)
(-8.99093e-10 -2.97542e-09 0)
(7.48756e-09 -2.08843e-09 0)
(1.04287e-09 -3.96235e-09 0)
(8.81272e-10 -3.91355e-10 0)
(1.76921e-09 3.78005e-09 0)
(-1.39008e-09 1.81589e-09 0)
(-2.3606e-09 -1.50905e-09 0)
(-2.34417e-09 1.96595e-09 0)
(1.70229e-09 -7.81908e-10 0)
(-3.11287e-09 6.02954e-10 0)
(9.7888e-09 9.80373e-10 0)
(-7.83925e-09 8.109e-09 0)
(-1.52907e-09 2.4736e-09 0)
(1.05421e-08 -6.79267e-09 0)
(-1.60045e-08 8.43069e-09 0)
(-4.60367e-09 3.455e-09 0)
(7.30225e-10 5.604e-10 0)
(9.76195e-10 -8.51691e-10 0)
(-1.03947e-09 -1.48922e-09 0)
(-5.85387e-09 -4.84846e-10 0)
(-3.2462e-09 1.32542e-09 0)
(6.40761e-09 1.22427e-09 0)
(3.07618e-09 -2.59923e-09 0)
(3.47332e-09 6.90298e-10 0)
(1.85376e-09 2.35605e-09 0)
(-1.75585e-09 -4.23513e-10 0)
(-2.98437e-09 8.61128e-11 0)
(-3.6222e-10 1.15894e-09 0)
(-1.06293e-09 -5.11316e-10 0)
(5.20163e-09 7.24831e-10 0)
(-5.07429e-09 1.60788e-08 0)
(2.05295e-08 -1.5974e-08 0)
(-2.74271e-08 3.65994e-08 0)
(8.17934e-09 -1.85982e-09 0)
(1.44994e-08 -6.65719e-09 0)
(-1.63919e-08 8.57551e-09 0)
(-7.65809e-09 6.21387e-09 0)
(2.18254e-09 1.94889e-09 0)
(1.22648e-09 -1.09572e-11 0)
(-3.3869e-09 1.48671e-09 0)
(-4.01391e-09 5.04029e-09 0)
(1.79357e-09 3.4074e-09 0)
(3.2667e-09 3.27444e-10 0)
(4.50327e-09 1.53897e-09 0)
(1.75769e-09 -1.67733e-10 0)
(-1.98952e-09 -1.85242e-09 0)
(-1.63599e-09 2.6987e-10 0)
(-1.22371e-09 -1.81152e-10 0)
(1.7134e-09 2.89648e-10 0)
(5.56592e-09 5.98341e-09 0)
(-5.36686e-09 4.90978e-10 0)
(1.23318e-08 8.39262e-09 0)
(5.07955e-08 -8.05257e-08 0)
(-6.5587e-08 4.46564e-08 0)
(9.23904e-09 -7.38998e-09 0)
(1.49471e-08 -5.82508e-09 0)
(-7.36229e-09 4.42296e-09 0)
(-4.22039e-09 4.18232e-09 0)
(4.24272e-10 2.20675e-09 0)
(-9.70959e-10 3.21968e-09 0)
(-3.14864e-09 5.47459e-09 0)
(-2.11505e-09 3.31686e-09 0)
(1.91319e-09 3.07508e-09 0)
(3.66352e-09 1.82412e-09 0)
(8.42657e-10 -2.20647e-09 0)
(-1.24548e-09 -2.46533e-09 0)
(-1.63207e-09 -1.30062e-10 0)
(8.16323e-10 -6.21955e-10 0)
(1.48329e-09 2.45993e-09 0)
(6.89286e-10 3.80538e-09 0)
(1.26075e-08 -8.46677e-09 0)
(-1.27536e-07 4.63016e-10 0)
(4.44299e-07 4.23144e-08 0)
(9.35868e-08 -5.11033e-08 0)
(-5.53575e-08 -4.01222e-09 0)
(3.6561e-09 -9.06281e-09 0)
(7.9299e-09 -6.05243e-09 0)
(1.03003e-09 1.87127e-09 0)
(7.28273e-10 4.4955e-09 0)
(1.72253e-12 2.85616e-09 0)
(-2.60565e-09 2.98687e-09 0)
(-4.22418e-09 2.03345e-09 0)
(1.57657e-10 4.02953e-09 0)
(1.25808e-09 1.42727e-09 0)
(-3.25601e-10 -3.15367e-09 0)
(-1.03993e-09 -2.52882e-09 0)
(-1.40393e-10 3.18938e-10 0)
(8.11461e-10 2.65247e-10 0)
(1.63606e-09 2.83666e-09 0)
(7.14092e-10 -1.69063e-09 0)
(-1.56174e-08 -1.20576e-08 0)
(1.26373e-07 -3.3474e-09 0)
(-4.52008e-07 4.11846e-08 0)
(-9.53668e-08 -4.82717e-08 0)
(6.00235e-08 -2.28559e-09 0)
(7.15038e-09 -8.33465e-09 0)
(8.24104e-09 -6.68095e-09 0)
(9.96538e-09 -1.83124e-09 0)
(7.00508e-10 -1.64628e-09 0)
(-1.54758e-09 -9.57969e-10 0)
(-8.88501e-10 -3.08403e-10 0)
(-1.73361e-09 -3.47821e-10 0)
(-1.16413e-09 2.45482e-09 0)
(-1.44714e-09 4.94359e-10 0)
(-1.6051e-09 -2.36834e-09 0)
(-1.66969e-10 -2.23942e-09 0)
(6.25271e-10 1.21987e-09 0)
(1.97389e-09 2.00813e-09 0)
(-1.00062e-09 -1.9708e-10 0)
(-6.40992e-09 -2.66271e-09 0)
(2.57357e-09 -9.53078e-09 0)
(-9.74396e-09 8.61367e-09 0)
(-4.77333e-08 -7.70244e-08 0)
(5.88102e-08 6.56418e-08 0)
(-1.20854e-08 -1.59969e-09 0)
(-8.02719e-09 -4.25229e-09 0)
(1.37477e-08 -6.97527e-12 0)
(7.55719e-09 -3.35959e-09 0)
(3.54861e-09 -5.97111e-09 0)
(3.26527e-09 -3.5201e-09 0)
(2.09448e-09 -1.60612e-09 0)
(-1.83689e-09 -8.50093e-10 0)
(-1.38795e-09 -4.48307e-10 0)
(-2.61924e-09 -3.34287e-10 0)
(-2.38979e-09 -2.93817e-10 0)
(5.23884e-10 -9.25765e-10 0)
(1.98971e-09 6.10202e-11 0)
(9.68724e-10 2.63553e-09 0)
(-1.5168e-09 -9.15866e-10 0)
(-7.44609e-09 -2.26246e-09 0)
(9.33014e-09 6.83849e-09 0)
(-4.38309e-08 4.78589e-09 0)
(6.38013e-08 1.12542e-07 0)
(-1.38996e-08 3.87651e-09 0)
(-4.07821e-08 5.36552e-09 0)
(7.70638e-09 8.72034e-09 0)
(6.16004e-09 1.44837e-09 0)
(2.97337e-10 -3.64892e-09 0)
(3.39888e-10 -2.92689e-09 0)
(3.87404e-09 -1.48079e-09 0)
(4.50504e-09 7.82259e-11 0)
(9.85297e-10 6.18924e-10 0)
(-4.40848e-10 -2.50123e-09 0)
(-1.9715e-09 -1.11467e-09 0)
(-2.27158e-09 2.02026e-09 0)
(2.10393e-10 8.2993e-10 0)
(2.51946e-09 -1.6809e-09 0)
(1.53499e-09 -5.253e-10 0)
(-1.5473e-09 -8.22574e-10 0)
(-4.03319e-09 4.8316e-09 0)
(5.26662e-09 1.35025e-08 0)
(1.23702e-07 -1.7372e-08 0)
(-2.32027e-07 -5.99562e-08 0)
(-8.18631e-08 -2.09819e-08 0)
(3.74841e-09 3.11185e-09 0)
(-9.69484e-09 8.90083e-09 0)
(-1.4972e-09 4.4331e-09 0)
(-8.29438e-10 1.68415e-09 0)
(2.80999e-09 1.67123e-09 0)
(6.13014e-09 3.06755e-09 0)
(3.80409e-09 2.83987e-09 0)
(-1.16848e-09 1.08308e-09 0)
(7.57356e-10 -2.32206e-09 0)
(-1.24409e-10 -1.49787e-09 0)
(-1.62194e-09 2.6089e-09 0)
(-7.04426e-10 2.80815e-09 0)
(1.10411e-09 -2.53976e-09 0)
(1.8688e-09 -3.86494e-09 0)
(2.17677e-09 -2.42748e-09 0)
(5.42012e-09 4.88697e-09 0)
(-1.5988e-08 1.25528e-08 0)
(-1.03579e-07 -1.04898e-08 0)
(2.48524e-07 -9.66662e-08 0)
(5.28843e-08 -9.12703e-09 0)
(7.28049e-09 -6.99199e-10 0)
(1.45221e-08 7.43747e-09 0)
(9.44483e-10 7.58759e-09 0)
(-1.7161e-09 5.03358e-09 0)
(2.20333e-09 5.22021e-09 0)
(4.09995e-09 4.53041e-09 0)
(-4.46601e-10 1.98352e-09 0)
(-5.31122e-09 1.46443e-10 0)
(1.41417e-09 -1.36952e-10 0)
(9.42176e-10 -1.40011e-09 0)
(-3.42545e-10 8.33427e-10 0)
(-1.82479e-09 2.885e-09 0)
(-5.19395e-10 -1.04814e-10 0)
(4.48851e-10 -4.56376e-09 0)
(5.49289e-09 -3.13874e-09 0)
(3.75914e-09 -4.46522e-09 0)
(1.73553e-10 -1.8327e-09 0)
(1.62113e-08 2.6883e-08 0)
(-6.50053e-08 7.90269e-08 0)
(2.43334e-08 9.92312e-09 0)
(2.84088e-08 1.42524e-08 0)
(7.14503e-09 6.32251e-09 0)
(-1.4965e-09 1.70502e-09 0)
(-2.11626e-09 1.30059e-09 0)
(1.18877e-09 2.59894e-09 0)
(2.90417e-10 5.68098e-10 0)
(-4.52831e-09 -2.94681e-09 0)
(-6.55511e-09 -2.26318e-09 0)
(7.83753e-10 2.13712e-09 0)
(1.96069e-10 -1.36704e-09 0)
(5.94647e-10 -2.01167e-09 0)
(-1.24794e-09 1.1077e-09 0)
(-2.51776e-09 2.89314e-09 0)
(-9.55894e-10 2.98934e-10 0)
(2.04997e-09 -2.73995e-09 0)
(5.85611e-09 -7.73684e-09 0)
(6.67175e-09 -7.97297e-09 0)
(-4.68569e-09 -2.38791e-09 0)
(9.10585e-09 7.0433e-09 0)
(5.16199e-09 2.07604e-08 0)
(2.12614e-09 4.36207e-09 0)
(-1.89501e-09 -8.78142e-10 0)
(-6.49353e-09 -3.04336e-09 0)
(-2.27057e-09 -1.68512e-09 0)
(-1.32749e-09 -1.87999e-09 0)
(-3.94495e-09 -4.72039e-09 0)
(-5.01611e-09 -7.1673e-09 0)
(-2.10904e-09 -3.84594e-09 0)
(-6.81021e-10 2.53439e-09 0)
(-1.88464e-09 -1.10704e-09 0)
(8.9927e-10 -3.83425e-09 0)
(3.94605e-10 -6.42115e-10 0)
(-2.12303e-09 3.64105e-09 0)
(-2.90677e-09 5.06725e-09 0)
(-5.79412e-10 2.30444e-09 0)
(2.81321e-09 -3.59057e-09 0)
(2.92765e-09 -9.97204e-09 0)
(1.98247e-09 -9.56156e-09 0)
(7.94532e-09 -5.10325e-09 0)
(1.4068e-09 -8.22341e-09 0)
(-2.40511e-09 -6.33543e-09 0)
(-7.48469e-09 -8.10113e-09 0)
(-6.18552e-09 -5.94746e-09 0)
(-4.29849e-09 -4.49925e-09 0)
(-4.45082e-09 -4.6552e-09 0)
(-4.63154e-09 -5.47396e-09 0)
(-1.19315e-09 -5.88724e-09 0)
(5.08076e-09 -2.93231e-09 0)
(-2.00539e-09 7.97502e-10 0)
(-3.41153e-09 1.36804e-10 0)
(8.64164e-10 -2.94758e-09 0)
(2.0221e-09 -2.02504e-09 0)
(-4.63221e-10 2.13455e-09 0)
(-2.6711e-09 4.70049e-09 0)
(-2.41399e-09 5.81315e-09 0)
(-3.1339e-10 2.85344e-09 0)
(1.8457e-09 -2.16503e-09 0)
(1.78149e-09 -4.86395e-09 0)
(-6.96022e-10 -5.95667e-09 0)
(-1.92116e-09 -7.72053e-09 0)
(-3.72636e-09 -8.3229e-09 0)
(-6.26692e-09 -6.8853e-09 0)
(-5.97973e-09 -4.64826e-09 0)
(-3.61708e-09 -3.28376e-09 0)
(-2.99072e-09 -2.56334e-09 0)
(-2.48737e-09 -6.75987e-10 0)
(2.41874e-09 8.19331e-10 0)
(9.35398e-09 5.03808e-10 0)
(-2.44565e-09 -1.72373e-09 0)
(-2.666e-09 1.63557e-09 0)
(6.8138e-10 4.97553e-10 0)
(2.77519e-09 -2.7126e-09 0)
(1.39116e-09 -1.84793e-09 0)
(-7.00476e-10 1.59184e-09 0)
(-2.07829e-09 4.12961e-09 0)
(-1.03137e-09 6.79108e-09 0)
(-5.65405e-10 4.94746e-09 0)
(1.39503e-09 2.75995e-09 0)
(8.92225e-10 -1.94722e-09 0)
(-9.52942e-11 -2.83661e-09 0)
(-1.62708e-09 -1.71334e-09 0)
(-3.25005e-09 -3.19799e-10 0)
(-1.85112e-09 1.10758e-09 0)
(-1.01143e-09 1.21149e-09 0)
(-7.97149e-10 1.69949e-09 0)
(4.92197e-10 5.57981e-09 0)
(3.89025e-09 8.87024e-09 0)
(6.91249e-09 4.72921e-09 0)
(-1.74328e-09 -3.18713e-09 0)
(5.94607e-11 1.50776e-09 0)
(6.86892e-10 3.27246e-09 0)
(2.05053e-09 -1.83297e-09 0)
(2.68442e-09 -4.31683e-09 0)
(1.38857e-09 -1.65612e-09 0)
(-4.20759e-10 1.8655e-09 0)
(-1.72397e-09 4.90317e-09 0)
(-1.91526e-09 6.36726e-09 0)
(-1.60369e-09 5.45506e-09 0)
(6.83932e-11 2.77761e-09 0)
(2.98262e-09 2.03861e-09 0)
(2.28106e-09 3.26745e-09 0)
(1.56686e-09 5.16178e-09 0)
(1.16615e-09 4.94523e-09 0)
(9.55093e-10 3.63267e-09 0)
(2.92775e-09 4.17002e-09 0)
(4.68393e-09 8.00104e-09 0)
(3.17679e-09 1.12805e-08 0)
(-1.70188e-09 6.05397e-09 0)
(-1.19073e-09 -1.71407e-09 0)
(2.84967e-09 4.21357e-10 0)
(1.24208e-09 1.91879e-09 0)
(1.36448e-09 -4.35353e-10 0)
(2.95314e-09 -2.16307e-09 0)
(2.90566e-09 -1.38349e-09 0)
(5.47084e-10 4.37694e-10 0)
(-2.0422e-09 1.5947e-09 0)
(-3.07993e-09 2.72592e-09 0)
(-2.76901e-09 2.48943e-09 0)
(-6.35591e-10 2.81189e-09 0)
(2.24952e-09 2.12315e-09 0)
(3.96594e-09 2.36313e-09 0)
(3.54502e-09 3.21056e-09 0)
(1.92358e-09 2.67198e-09 0)
(2.38495e-09 1.99706e-09 0)
(5.22189e-09 2.25236e-09 0)
(6.4422e-09 3.66806e-09 0)
(1.05397e-09 4.96036e-09 0)
(-9.45221e-09 2.70507e-09 0)
)
;

boundaryField
{
    sides
    {
        type            calculated;
        value           nonuniform List<vector> 
40
(
(-1.19073e-09 0 0)
(2.84967e-09 0 0)
(1.24208e-09 0 0)
(1.36448e-09 0 0)
(2.95314e-09 0 0)
(2.90566e-09 0 0)
(5.47084e-10 0 0)
(-2.0422e-09 0 0)
(-3.07993e-09 0 0)
(-2.76901e-09 0 0)
(-6.35591e-10 0 0)
(2.24952e-09 0 0)
(3.96594e-09 0 0)
(3.54502e-09 0 0)
(1.92358e-09 0 0)
(2.38495e-09 0 0)
(5.22189e-09 0 0)
(6.4422e-09 0 0)
(1.05397e-09 0 0)
(-9.45221e-09 0 0)
(8.08421e-10 0 0)
(-1.34063e-10 0 0)
(-1.0134e-09 0 0)
(2.01317e-10 0 0)
(2.5543e-09 0 0)
(1.80349e-09 0 0)
(-1.91817e-11 0 0)
(-1.81946e-09 0 0)
(-1.25685e-09 0 0)
(-3.16257e-09 0 0)
(1.46752e-09 0 0)
(2.08202e-09 0 0)
(4.92193e-09 0 0)
(4.74889e-09 0 0)
(-6.3947e-10 0 0)
(7.81491e-11 0 0)
(4.37901e-09 0 0)
(5.32669e-09 0 0)
(2.44092e-09 0 0)
(-3.45157e-09 0 0)
)
;
    }
    inlet
    {
        type            calculated;
        value           uniform (0 0 0);
    }
    outlet
    {
        type            calculated;
        value           nonuniform List<vector> 
20
(
(-3.45157e-09 -1.59086e-09 0)
(1.10925e-09 -3.21985e-09 0)
(6.04825e-09 -3.49064e-09 0)
(7.48756e-09 -2.08843e-09 0)
(6.40761e-09 1.22427e-09 0)
(1.79357e-09 3.4074e-09 0)
(-2.11505e-09 3.31686e-09 0)
(-4.22418e-09 2.03345e-09 0)
(-1.73361e-09 -3.47821e-10 0)
(-1.83689e-09 -8.50093e-10 0)
(9.85297e-10 6.18924e-10 0)
(-1.16848e-09 1.08308e-09 0)
(-5.31122e-09 1.46443e-10 0)
(-6.55511e-09 -2.26318e-09 0)
(-2.10904e-09 -3.84594e-09 0)
(5.08076e-09 -2.93231e-09 0)
(9.35398e-09 5.03808e-10 0)
(6.91249e-09 4.72921e-09 0)
(-1.70188e-09 6.05397e-09 0)
(-9.45221e-09 2.70507e-09 0)
)
;
    }
    frontAndBack
    {
        type            empty;
    }
}


// ************************************************************************* //
