/*--------------------------------*- C++ -*----------------------------------*\
  =========                 |
  \\      /  F ield         | OpenFOAM: The Open Source CFD Toolbox
   \\    /   O peration     | Website:  https://openfoam.org
    \\  /    A nd           | Version:  9
     \\/     M anipulation  |
\*---------------------------------------------------------------------------*/
FoamFile
{
    format      ascii;
    class       surfaceScalarField;
    location    "88";
    object      ddtCorrDdt0(phi);
}
// * * * * * * * * * * * * * * * * * * * * * * * * * * * * * * * * * * * * * //

dimensions      [0 4 -2 0 0 0 0];

internalField   nonuniform List<scalar> 
760
(
8.34231e-12
9.21223e-12
-9.74866e-12
-3.65764e-12
-4.42317e-12
-5.27229e-12
7.7422e-12
-6.86505e-13
1.95098e-11
1.09995e-11
1.82096e-12
-3.82173e-12
-9.97663e-12
-2.88828e-11
8.82177e-13
-1.22523e-11
-1.15215e-11
-3.02659e-11
-1.58503e-11
3.99108e-12
1.03081e-11
1.13969e-11
1.82921e-11
5.61003e-12
3.70039e-11
8.67007e-12
4.37865e-12
-1.32337e-11
-9.164e-12
3.49275e-12
1.20631e-11
1.35246e-11
2.9973e-11
4.11696e-13
2.51627e-11
-2.15356e-11
-5.32323e-12
-3.05131e-11
-1.49573e-11
-1.8116e-12
1.10733e-11
-1.08462e-11
-7.09305e-12
-1.57585e-12
-6.30287e-12
1.60452e-11
9.24185e-12
1.11369e-11
1.29544e-11
-1.31071e-11
-2.33001e-11
2.83601e-12
-2.66739e-11
-1.38743e-11
-1.39509e-11
7.02773e-12
-1.75906e-11
-3.10014e-11
-1.25291e-11
2.62683e-11
3.78468e-11
1.34213e-11
-1.0623e-11
1.01958e-11
1.71493e-11
1.32753e-11
-1.25689e-11
-9.6883e-12
-1.64946e-11
-1.09108e-11
1.18216e-11
4.30275e-12
1.29956e-11
1.33408e-11
-1.28819e-11
1.02064e-11
-3.26116e-11
-2.08632e-11
-1.7721e-11
-3.64158e-12
-1.14806e-11
-8.5189e-12
9.13324e-12
5.74758e-12
1.86085e-11
2.17324e-11
-1.56519e-11
-4.38182e-12
-1.52798e-11
-2.78359e-11
1.41038e-11
1.69569e-11
-2.1823e-11
-2.97363e-11
1.6364e-11
1.49452e-11
1.24099e-11
-3.42833e-11
-2.38191e-11
2.18575e-11
3.06207e-11
1.9567e-11
-2.4364e-11
-2.7044e-11
4.46825e-12
1.5143e-13
1.56177e-11
-2.22378e-11
-1.93361e-11
-2.06522e-11
-2.69171e-11
-1.20898e-12
-2.67807e-12
-6.61559e-12
2.8265e-11
-2.11375e-11
-1.01975e-11
-2.24313e-11
-2.06722e-11
-1.53508e-12
-4.43206e-12
2.04744e-11
1.94648e-11
-2.30485e-12
1.769e-11
-3.74292e-11
-1.83437e-11
2.41752e-11
1.67221e-11
-2.60441e-11
-8.46916e-12
2.72795e-11
4.57736e-12
-3.49291e-11
-3.28953e-11
7.32715e-11
7.56206e-11
-2.72881e-11
-8.98242e-11
-2.36932e-11
5.28844e-11
4.59614e-12
2.58004e-11
-2.60948e-11
-1.90568e-11
1.47163e-11
4.88847e-12
8.3155e-12
-4.73697e-12
-3.01431e-11
-1.21748e-11
-3.09225e-11
-6.33567e-12
1.79666e-11
6.21048e-13
1.88629e-12
-7.94999e-12
-1.96687e-11
1.67577e-11
8.80691e-13
1.88552e-11
1.96179e-11
-3.51939e-11
-6.87057e-14
-6.9914e-12
2.5677e-12
8.26227e-12
4.16694e-12
-1.27321e-11
9.09159e-13
-2.68434e-12
-3.09798e-12
6.34974e-11
4.55143e-11
-1.05887e-10
-1.03159e-11
1.07549e-10
2.13165e-10
-5.38896e-11
-1.37501e-10
-6.22388e-11
5.81938e-11
5.44467e-13
6.61413e-11
6.11716e-12
2.03037e-12
7.57424e-12
-4.97602e-12
-2.4095e-11
-5.75654e-12
-3.66096e-11
2.62626e-12
1.13484e-11
2.24407e-11
1.60145e-11
1.12036e-11
-5.89564e-12
3.29562e-11
7.53877e-12
1.17127e-12
4.41042e-12
-3.27828e-11
-4.93373e-12
6.03174e-13
-1.56512e-12
2.25065e-12
6.69491e-12
-9.7781e-12
-7.37849e-12
1.50189e-11
1.50523e-11
4.40306e-11
1.22098e-10
3.17814e-12
-2.20133e-10
-1.26614e-10
3.63782e-10
1.51949e-10
1.53229e-10
-4.87146e-11
-1.55761e-10
-7.13424e-11
3.7373e-12
-7.0453e-13
5.40094e-11
1.28609e-11
2.13237e-11
-1.19335e-11
5.74412e-12
-2.28169e-11
1.27676e-11
-2.199e-12
2.96376e-11
1.86032e-11
2.49721e-11
1.04125e-11
3.10797e-11
9.0007e-12
-6.15703e-12
-6.59068e-12
-2.68785e-11
-1.42668e-11
9.00825e-12
4.4121e-12
-7.19603e-12
-9.84132e-12
-1.54925e-11
9.93349e-12
1.33846e-10
5.30624e-11
-2.46948e-10
-1.43308e-10
5.02947e-10
4.39381e-10
-2.68514e-10
-3.40034e-09
-1.2353e-10
2.16483e-10
1.21668e-10
9.05132e-11
-2.47299e-12
-7.01252e-11
-3.6093e-11
-2.22899e-11
-6.24112e-12
5.98512e-12
-3.8779e-12
1.49862e-11
-6.16209e-12
1.48342e-11
-1.08522e-11
2.30769e-11
1.27888e-11
2.47208e-11
2.0487e-11
1.88616e-11
8.0201e-12
-1.18857e-11
-1.68654e-11
-9.27185e-12
-1.02e-11
-2.13794e-12
-6.18581e-12
-8.575e-14
5.5197e-12
3.5357e-11
1.27264e-11
-4.48111e-11
-1.88629e-11
4.8101e-11
1.09473e-10
1.7361e-11
-4.26128e-10
2.16185e-09
3.61387e-08
-2.93138e-10
-7.03454e-10
-8.42857e-11
-9.60785e-11
5.30274e-11
-1.43967e-11
1.75494e-11
-2.75531e-11
-1.26517e-12
-6.85167e-12
1.58526e-12
1.54294e-11
1.86344e-13
6.31636e-12
-1.59769e-11
5.31364e-12
5.97543e-12
1.39103e-11
1.8047e-11
-2.58137e-12
3.6032e-12
-6.45873e-12
-1.64073e-11
-4.51384e-12
-1.28892e-11
-7.15394e-14
1.04414e-11
1.62442e-11
-4.90949e-12
-1.6611e-12
2.08472e-11
2.96757e-11
-1.66968e-11
-8.14546e-11
-1.80568e-10
-2.27401e-11
4.39764e-10
-2.20131e-09
-3.00617e-09
3.11272e-10
2.69713e-10
1.17201e-10
1.58106e-10
2.50287e-11
1.35917e-11
5.67184e-11
-3.27425e-11
3.04296e-11
-1.3126e-11
-1.58386e-11
-2.00588e-09
1.03484e-12
-1.7413e-11
-2.22332e-12
-1.31096e-11
-6.29665e-10
-6.33889e-13
5.1423e-12
-1.97401e-11
-2.98951e-13
-7.35589e-12
-8.46726e-12
1.44565e-11
-7.47512e-12
-8.3215e-12
5.36095e-12
2.5274e-11
1.97394e-11
1.05725e-12
-2.21468e-11
-1.31252e-10
-1.32008e-11
2.05463e-10
5.84328e-11
-4.27567e-10
-1.14789e-10
2.28162e-10
1.57937e-10
9.83757e-11
2.80357e-10
-1.15224e-10
-1.05444e-10
5.00162e-11
2.39398e-11
6.28371e-11
2.1099e-11
1.18808e-11
-1.15705e-11
2.06832e-11
-1.09344e-11
1.62464e-11
-1.51619e-11
-3.25204e-12
-5.7738e-12
2.03502e-12
-6.05005e-12
-9.08882e-12
-2.69365e-11
-2.75267e-12
-8.95517e-12
5.33765e-12
2.27402e-11
-2.02433e-12
7.32588e-12
-1.91692e-12
-4.69762e-13
7.7291e-12
-1.66214e-11
4.08229e-12
-4.33531e-11
-2.32431e-11
-5.81692e-12
5.69261e-11
-9.74539e-11
1.24381e-10
3.67823e-10
3.33776e-09
-3.54616e-10
-2.79169e-10
-1.48805e-11
1.67659e-10
4.67285e-11
8.74828e-11
1.15287e-11
1.60618e-11
-4.08077e-12
-1.853e-11
1.05804e-11
-1.35461e-11
2.5657e-11
-2.67303e-13
1.28413e-11
9.70501e-12
5.28319e-12
-2.03474e-13
-1.45979e-11
-1.9682e-11
-5.99604e-12
-1.52106e-11
1.64658e-11
2.06845e-11
8.06436e-12
1.70498e-11
-1.4958e-11
-1.78582e-12
-1.30543e-11
-1.63449e-11
-5.56011e-12
-5.70807e-11
5.70357e-11
2.19484e-10
3.43169e-11
3.23032e-10
-3.72829e-10
-1.46168e-09
-4.51061e-08
8.14239e-11
1.63458e-10
-5.85886e-11
-1.35779e-10
-1.6938e-11
1.62513e-12
-3.98069e-12
3.10741e-11
1.20253e-12
8.09911e-12
2.62737e-11
1.87749e-11
3.14783e-11
2.8365e-11
4.61484e-12
2.07008e-11
6.94096e-12
7.52175e-12
-7.62417e-12
-1.11799e-12
-6.13081e-12
-1.88833e-11
1.22511e-11
2.24486e-12
1.92231e-11
2.01135e-11
-1.48878e-11
-9.59509e-12
-2.73573e-11
3.50218e-11
-1.16575e-11
4.31854e-11
1.09726e-12
-2.96325e-10
1.42695e-11
-2.63373e-11
2.24129e-10
1.24272e-09
1.4312e-09
-5.26791e-11
-1.56589e-10
9.86958e-11
1.14522e-10
2.48517e-11
4.27895e-11
-9.05143e-12
2.33131e-11
-2.10561e-12
1.55187e-11
2.21292e-11
2.34105e-11
1.66022e-11
2.07107e-11
-1.68332e-11
2.49354e-12
-3.77653e-12
8.70493e-12
6.51797e-12
1.32857e-11
-6.79035e-12
-1.05829e-11
-2.58128e-12
-2.12294e-11
1.09342e-11
8.45181e-12
1.13467e-11
3.52052e-12
-2.07745e-11
4.21268e-11
-2.07332e-11
3.19005e-11
-4.91854e-11
1.09541e-11
-5.95743e-12
-1.16283e-10
7.91592e-11
-1.58188e-10
2.43015e-11
2.13532e-10
2.30923e-10
6.74129e-11
4.87333e-11
1.03932e-11
3.53636e-11
-1.87203e-11
1.43247e-12
1.1635e-12
4.31922e-12
9.62581e-12
6.09897e-12
-7.40687e-12
-1.09074e-11
-2.99859e-11
-2.9767e-11
-1.78019e-11
-3.44127e-12
1.4709e-11
1.66274e-11
-8.16323e-12
3.32897e-13
-1.81501e-11
-2.06101e-11
1.02037e-12
-1.73876e-11
1.98894e-11
6.82871e-12
2.37083e-11
1.67067e-11
-1.17361e-11
5.61998e-11
-3.28376e-11
-3.46673e-12
-6.54324e-11
-1.05305e-11
-5.8671e-11
6.41134e-11
1.76195e-10
-1.07787e-12
-1.13941e-11
1.47809e-11
-1.42648e-12
-3.45741e-11
-3.01115e-11
-2.29997e-11
-1.96449e-11
-1.38057e-12
-1.14142e-11
-1.21686e-11
-2.05692e-11
-2.67202e-11
-3.59041e-11
-1.76082e-11
-4.29272e-11
-2.1166e-11
-2.36286e-11
1.04311e-11
8.19897e-12
-5.44809e-12
1.41145e-11
-2.20257e-11
-1.11364e-11
-6.4107e-12
-1.64616e-11
2.03037e-11
-1.66035e-11
3.02722e-11
6.04683e-12
3.21312e-11
2.45696e-11
-6.82913e-12
1.10159e-11
-3.70751e-11
2.43303e-11
-5.05765e-11
2.75781e-11
-3.65677e-11
-6.17296e-13
-4.61207e-11
-3.16437e-11
-5.57777e-11
-3.71813e-11
-4.49676e-11
-2.45009e-11
-3.35434e-11
-1.6373e-11
-2.67169e-11
-2.56828e-11
-2.46732e-11
-2.47209e-11
-2.29739e-11
1.24206e-11
-2.08719e-11
-9.74913e-12
-3.56692e-11
-2.26373e-12
-5.01111e-12
5.7423e-12
2.40457e-11
-9.23262e-12
5.37833e-12
-1.37303e-11
-1.39752e-11
3.53049e-12
-1.28272e-11
1.9013e-11
-1.98048e-11
2.76823e-11
1.19681e-11
3.61206e-11
7.91388e-12
1.20899e-11
1.08939e-11
-8.95811e-12
-6.55203e-12
-4.27547e-11
-1.68805e-11
-4.28496e-11
-2.67416e-11
-3.20022e-11
-3.15777e-11
-2.53089e-11
-2.31042e-11
-1.34099e-11
-1.22302e-11
-5.78718e-12
-1.68836e-11
-3.04226e-12
-1.29805e-11
1.22263e-11
3.18614e-11
2.53852e-11
1.3564e-11
-2.43332e-11
-1.29867e-11
-1.44768e-11
1.36861e-11
2.1985e-11
1.24702e-11
1.89004e-11
-1.86816e-11
-2.84853e-12
-2.45524e-11
-9.00726e-12
-1.33479e-12
-1.31318e-11
1.78219e-11
-5.25614e-12
3.8996e-11
5.10823e-12
4.0129e-11
8.87906e-12
2.44886e-11
-1.07852e-12
7.45061e-12
-1.70933e-12
-2.49471e-12
-1.43717e-11
5.23831e-12
-1.13674e-11
1.42209e-11
-6.75152e-12
1.66011e-11
-5.27967e-12
1.10992e-11
-8.15339e-14
1.59062e-11
4.10035e-12
4.22907e-11
2.67867e-11
6.30673e-11
3.32943e-11
3.41239e-12
-1.37739e-11
-8.70806e-12
9.49224e-12
5.07779e-12
1.86015e-11
1.85669e-11
-1.17847e-11
1.39849e-11
-2.74347e-11
-5.58404e-13
-1.3526e-11
-5.68993e-12
9.20695e-12
-1.05941e-11
2.10405e-11
-3.49354e-12
3.28002e-11
-1.46081e-11
2.91424e-11
8.59431e-12
1.35679e-11
1.86419e-11
1.80882e-11
1.08761e-11
2.13829e-11
8.0918e-12
2.81988e-11
4.06668e-13
1.96937e-11
5.20902e-12
1.23297e-11
2.66143e-11
1.82083e-11
2.52121e-11
3.80852e-11
-3.32076e-13
5.42831e-11
2.91669e-11
2.52137e-11
5.70688e-12
-8.57019e-12
1.16759e-11
2.33603e-11
1.05274e-11
-5.31105e-12
-1.04136e-11
-1.4429e-11
-1.65085e-11
8.77652e-15
2.30146e-11
2.49825e-11
1.14672e-11
2.70933e-12
1.32161e-11
4.03318e-11
3.45272e-11
-2.63792e-11
)
;

boundaryField
{
    sides
    {
        type            calculated;
        value           uniform 0;
    }
    inlet
    {
        type            calculated;
        value           uniform 0;
    }
    outlet
    {
        type            calculated;
        value           nonuniform List<scalar> 
20
(
-2.55144e-11
5.11518e-12
3.99284e-11
5.79713e-11
4.96382e-11
1.25685e-11
-1.84735e-11
-3.27278e-11
-2.22167e-11
-7.05719e-12
2.19971e-12
-1.36971e-11
-3.84849e-11
-4.15986e-11
-8.83179e-12
3.85339e-11
6.66651e-11
4.81069e-11
-1.35315e-11
-6.98184e-11
)
;
    }
    frontAndBack
    {
        type            empty;
        value           nonuniform List<scalar> 0();
    }
}


// ************************************************************************* //
