/*--------------------------------*- C++ -*----------------------------------*\
  =========                 |
  \\      /  F ield         | OpenFOAM: The Open Source CFD Toolbox
   \\    /   O peration     | Website:  https://openfoam.org
    \\  /    A nd           | Version:  9
     \\/     M anipulation  |
\*---------------------------------------------------------------------------*/
FoamFile
{
    format      ascii;
    class       volVectorField;
    location    "88";
    object      hU;
}
// * * * * * * * * * * * * * * * * * * * * * * * * * * * * * * * * * * * * * //

dimensions      [0 2 -1 0 0 0 0];

internalField   nonuniform List<vector> 
400
(
(0.001 -2.42635e-08 0)
(0.00100004 -7.05851e-08 0)
(0.00100012 -1.13264e-07 0)
(0.00100024 -1.52353e-07 0)
(0.00100039 -1.87069e-07 0)
(0.00100058 -2.16509e-07 0)
(0.00100078 -2.36873e-07 0)
(0.00100099 -2.45271e-07 0)
(0.00100118 -2.36451e-07 0)
(0.00100133 -2.11487e-07 0)
(0.0010014 -1.69061e-07 0)
(0.0010014 -1.28777e-07 0)
(0.00100129 -9.92191e-08 0)
(0.00100111 -9.34269e-08 0)
(0.00100087 -1.00011e-07 0)
(0.00100065 -1.35946e-07 0)
(0.00100044 -1.5688e-07 0)
(0.00100034 -2.01456e-07 0)
(0.00100026 -1.8902e-07 0)
(0.00100033 -2.68599e-07 0)
(0.001 -2.66245e-08 0)
(0.00100005 -7.89222e-08 0)
(0.00100013 -1.28399e-07 0)
(0.00100026 -1.73927e-07 0)
(0.00100042 -2.12783e-07 0)
(0.00100062 -2.39992e-07 0)
(0.00100084 -2.45872e-07 0)
(0.00100108 -2.20255e-07 0)
(0.0010013 -1.54876e-07 0)
(0.00100147 -4.82756e-08 0)
(0.00100156 9.30643e-08 0)
(0.00100154 2.46869e-07 0)
(0.00100141 3.89202e-07 0)
(0.00100119 4.76029e-07 0)
(0.00100092 5.04362e-07 0)
(0.00100067 4.51305e-07 0)
(0.00100048 3.77822e-07 0)
(0.00100036 2.56542e-07 0)
(0.00100033 2.04777e-07 0)
(0.00100029 8.07739e-08 0)
(0.001 -5.24625e-08 0)
(0.00100004 -1.59276e-07 0)
(0.00100013 -2.6706e-07 0)
(0.00100026 -3.73376e-07 0)
(0.00100043 -4.7308e-07 0)
(0.00100064 -5.5553e-07 0)
(0.0010009 -6.03433e-07 0)
(0.00100117 -5.97569e-07 0)
(0.00100143 -5.18023e-07 0)
(0.00100164 -3.52377e-07 0)
(0.00100176 -1.10016e-07 0)
(0.00100176 1.62121e-07 0)
(0.00100159 4.01556e-07 0)
(0.00100131 5.19766e-07 0)
(0.00100095 4.98935e-07 0)
(0.00100062 3.53461e-07 0)
(0.00100037 2.02857e-07 0)
(0.00100026 4.56427e-08 0)
(0.00100022 -3.88753e-09 0)
(0.0010003 -1.1759e-07 0)
(0.001 -7.36437e-08 0)
(0.00100004 -2.22674e-07 0)
(0.00100013 -3.74949e-07 0)
(0.00100026 -5.30027e-07 0)
(0.00100045 -6.80503e-07 0)
(0.00100069 -8.10023e-07 0)
(0.001001 -8.88823e-07 0)
(0.00100134 -8.85509e-07 0)
(0.00100171 -7.55496e-07 0)
(0.00100203 -4.74927e-07 0)
(0.00100222 -2.34497e-08 0)
(0.00100219 4.93278e-07 0)
(0.00100192 9.37035e-07 0)
(0.00100146 1.1397e-06 0)
(0.00100097 1.05459e-06 0)
(0.00100058 7.43001e-07 0)
(0.00100041 4.23868e-07 0)
(0.00100035 1.69853e-07 0)
(0.0010004 1.01411e-07 0)
(0.00100035 -7.65726e-11 0)
(0.001 -9.11931e-08 0)
(0.00100004 -2.78244e-07 0)
(0.00100012 -4.76836e-07 0)
(0.00100025 -6.93644e-07 0)
(0.00100044 -9.20785e-07 0)
(0.00100072 -1.13918e-06 0)
(0.00100109 -1.29888e-06 0)
(0.00100155 -1.33714e-06 0)
(0.00100207 -1.17496e-06 0)
(0.00100257 -7.77606e-07 0)
(0.0010029 -1.70109e-07 0)
(0.00100288 5.78994e-07 0)
(0.00100244 1.232e-06 0)
(0.00100167 1.51248e-06 0)
(0.00100086 1.37571e-06 0)
(0.00100031 9.64962e-07 0)
(0.00100013 5.81508e-07 0)
(0.00100021 3.14301e-07 0)
(0.00100037 2.62035e-07 0)
(0.00100043 1.67763e-07 0)
(0.001 -1.03478e-07 0)
(0.00100003 -3.18471e-07 0)
(0.00100009 -5.61821e-07 0)
(0.00100019 -8.44531e-07 0)
(0.00100038 -1.1729e-06 0)
(0.00100068 -1.52527e-06 0)
(0.00100115 -1.85957e-06 0)
(0.00100179 -2.05416e-06 0)
(0.00100254 -1.91041e-06 0)
(0.00100326 -1.19974e-06 0)
(0.00100377 8.7287e-08 0)
(0.00100378 1.54404e-06 0)
(0.0010031 2.43509e-06 0)
(0.00100192 2.3067e-06 0)
(0.00100082 1.43146e-06 0)
(0.00100019 4.93134e-07 0)
(0.00100017 1.33526e-08 0)
(0.00100037 -8.54108e-08 0)
(0.00100064 6.04259e-08 0)
(0.00100055 5.00897e-08 0)
(0.001 -1.02501e-07 0)
(0.001 -3.33132e-07 0)
(0.00100002 -6.01584e-07 0)
(0.00100008 -9.6207e-07 0)
(0.00100021 -1.39279e-06 0)
(0.00100048 -1.94693e-06 0)
(0.001001 -2.48982e-06 0)
(0.00100188 -3.08372e-06 0)
(0.00100321 -3.23319e-06 0)
(0.00100473 -2.87857e-06 0)
(0.00100574 -6.68779e-07 0)
(0.00100535 2.55821e-06 0)
(0.0010035 4.82779e-06 0)
(0.00100112 4.73703e-06 0)
(0.000999607 3.02948e-06 0)
(0.000999371 1.26483e-06 0)
(0.00100001 4.31417e-07 0)
(0.00100056 3.26995e-07 0)
(0.00100093 5.62646e-07 0)
(0.00100066 5.34206e-07 0)
(0.000999996 -9.21321e-08 0)
(0.000999969 -2.88176e-07 0)
(0.000999908 -5.76769e-07 0)
(0.000999876 -9.57096e-07 0)
(0.000999878 -1.5781e-06 0)
(0.0010001 -2.3457e-06 0)
(0.0010005 -3.4027e-06 0)
(0.00100152 -4.12388e-06 0)
(0.00100308 -4.37256e-06 0)
(0.00100601 -2.55075e-06 0)
(0.00100911 7.49268e-07 0)
(0.00100914 4.26211e-06 0)
(0.0010055 4.71759e-06 0)
(0.00100074 2.78162e-06 0)
(0.000998151 7.3539e-07 0)
(0.000998274 -2.73983e-07 0)
(0.000999797 -2.85305e-07 0)
(0.00100087 -9.24617e-09 0)
(0.00100133 2.12654e-07 0)
(0.00100085 1.03125e-07 0)
(0.000999995 -4.85978e-08 0)
(0.000999915 -2.032e-07 0)
(0.000999756 -3.86443e-07 0)
(0.000999531 -7.35425e-07 0)
(0.000999287 -1.33911e-06 0)
(0.000999211 -2.48195e-06 0)
(0.000999707 -4.68737e-06 0)
(0.00100139 -8.0679e-06 0)
(0.00100491 -1.32859e-05 0)
(0.00100958 -1.49149e-05 0)
(0.00101189 3.83643e-06 0)
(0.00100893 1.87241e-05 0)
(0.00100222 1.57796e-05 0)
(0.000997568 5.74034e-06 0)
(0.000996887 -3.16867e-07 0)
(0.000998461 -1.26363e-06 0)
(0.00100027 -9.43659e-08 0)
(0.001001 6.34912e-07 0)
(0.00100107 6.52289e-07 0)
(0.00100054 2.43852e-07 0)
(0.000999804 -1.93039e-08 0)
(0.00100017 -6.62428e-08 0)
(0.000999216 -1.51383e-07 0)
(0.000999904 -2.49062e-07 0)
(0.000997521 -5.92581e-07 0)
(0.000998844 -1.13147e-06 0)
(0.000993347 -2.8836e-06 0)
(0.000997531 -5.59288e-06 0)
(0.000991667 -1.15436e-05 0)
(0.000915831 -1.27058e-05 0)
(0.000951464 2.74619e-07 0)
(0.00101023 1.46426e-05 0)
(0.000990951 1.30836e-05 0)
(0.000983976 5.14003e-06 0)
(0.000989588 1.93557e-07 0)
(0.000996282 -7.82162e-07 0)
(0.000999237 -1.12086e-07 0)
(0.000999412 2.48233e-07 0)
(0.000998647 1.7437e-07 0)
(0.000998504 -1.84948e-07 0)
(0.000999804 1.31479e-08 0)
(0.00100017 4.59873e-08 0)
(0.000999215 1.17511e-07 0)
(0.000999903 1.99916e-07 0)
(0.000997519 5.29278e-07 0)
(0.000998838 1.05148e-06 0)
(0.000993339 2.78628e-06 0)
(0.000997519 5.47305e-06 0)
(0.000991651 1.13969e-05 0)
(0.000915808 1.25487e-05 0)
(0.000951433 -4.68416e-07 0)
(0.0010102 -1.4907e-05 0)
(0.000990944 -1.34074e-05 0)
(0.000983968 -5.53466e-06 0)
(0.000989568 -6.48072e-07 0)
(0.000996244 2.47879e-07 0)
(0.000999195 -4.72819e-07 0)
(0.000999367 -1.00267e-06 0)
(0.000998633 -9.88831e-07 0)
(0.000998454 -8.88779e-07 0)
(0.000999995 4.2332e-08 0)
(0.000999915 1.83546e-07 0)
(0.000999755 3.53493e-07 0)
(0.00099953 6.87686e-07 0)
(0.000999286 1.27673e-06 0)
(0.000999211 2.40148e-06 0)
(0.000999702 4.58857e-06 0)
(0.00100139 7.94249e-06 0)
(0.0010049 1.31333e-05 0)
(0.00100958 1.4719e-05 0)
(0.00101189 -4.06624e-06 0)
(0.0010089 -1.90041e-05 0)
(0.00100214 -1.60938e-05 0)
(0.000997478 -6.12097e-06 0)
(0.000996815 -8.32871e-08 0)
(0.000998401 7.75673e-07 0)
(0.00100017 -4.27251e-07 0)
(0.00100085 -1.3052e-06 0)
(0.00100088 -1.3796e-06 0)
(0.00100037 -1.25099e-06 0)
(0.000999996 8.58263e-08 0)
(0.000999968 2.69437e-07 0)
(0.000999906 5.44805e-07 0)
(0.000999871 9.1088e-07 0)
(0.00099987 1.51414e-06 0)
(0.00100008 2.26141e-06 0)
(0.00100048 3.29316e-06 0)
(0.00100149 3.99077e-06 0)
(0.00100303 4.21278e-06 0)
(0.00100594 2.36575e-06 0)
(0.00100902 -9.81033e-07 0)
(0.00100906 -4.53754e-06 0)
(0.00100543 -5.01795e-06 0)
(0.00100066 -3.12787e-06 0)
(0.000998057 -1.13046e-06 0)
(0.000998134 -2.51129e-07 0)
(0.000999622 -3.22635e-07 0)
(0.00100064 -7.41607e-07 0)
(0.00100106 -9.67633e-07 0)
(0.00100055 -1.07421e-06 0)
(0.001 9.64388e-08 0)
(0.001 3.15051e-07 0)
(0.00100002 5.71317e-07 0)
(0.00100007 9.17976e-07 0)
(0.0010002 1.3342e-06 0)
(0.00100046 1.87095e-06 0)
(0.00100097 2.3986e-06 0)
(0.00100185 2.97454e-06 0)
(0.00100318 3.11088e-06 0)
(0.00100469 2.73314e-06 0)
(0.00100568 5.10077e-07 0)
(0.00100528 -2.75274e-06 0)
(0.00100339 -5.07634e-06 0)
(0.00100096 -5.07036e-06 0)
(0.000999408 -3.44976e-06 0)
(0.000999121 -1.79448e-06 0)
(0.000999744 -1.02104e-06 0)
(0.00100025 -1.05929e-06 0)
(0.00100061 -1.30762e-06 0)
(0.00100024 -1.51589e-06 0)
(0.001 9.80643e-08 0)
(0.00100003 3.0223e-07 0)
(0.00100008 5.3485e-07 0)
(0.00100019 8.05536e-07 0)
(0.00100036 1.12177e-06 0)
(0.00100066 1.45961e-06 0)
(0.00100112 1.77845e-06 0)
(0.00100174 1.95062e-06 0)
(0.00100248 1.78135e-06 0)
(0.00100317 1.03383e-06 0)
(0.00100366 -2.78823e-07 0)
(0.00100363 -1.7807e-06 0)
(0.00100292 -2.71062e-06 0)
(0.00100171 -2.63269e-06 0)
(0.00100058 -1.78002e-06 0)
(0.000999904 -8.9599e-07 0)
(0.000999858 -4.27281e-07 0)
(0.000999981 -4.48027e-07 0)
(0.00100022 -6.16794e-07 0)
(0.00100001 -8.48838e-07 0)
(0.001 8.63975e-08 0)
(0.00100004 2.64095e-07 0)
(0.00100011 4.5349e-07 0)
(0.00100024 6.60849e-07 0)
(0.00100043 8.77496e-07 0)
(0.0010007 1.08459e-06 0)
(0.00100106 1.23047e-06 0)
(0.0010015 1.25316e-06 0)
(0.001002 1.07295e-06 0)
(0.00100248 6.55733e-07 0)
(0.0010028 1.6672e-08 0)
(0.00100274 -7.71677e-07 0)
(0.00100227 -1.45132e-06 0)
(0.00100146 -1.7758e-06 0)
(0.00100062 -1.66912e-06 0)
(0.00100001 -1.34857e-06 0)
(0.000999794 -1.02927e-06 0)
(0.000999766 -9.36836e-07 0)
(0.000999885 -9.45446e-07 0)
(0.000999768 -1.10856e-06 0)
(0.001 6.93576e-08 0)
(0.00100004 2.09914e-07 0)
(0.00100012 3.53771e-07 0)
(0.00100025 5.00727e-07 0)
(0.00100043 6.43523e-07 0)
(0.00100066 7.65453e-07 0)
(0.00100096 8.37725e-07 0)
(0.00100129 8.26366e-07 0)
(0.00100163 6.91584e-07 0)
(0.00100191 4.06342e-07 0)
(0.00100206 -4.68566e-08 0)
(0.001002 -5.76561e-07 0)
(0.00100171 -1.03637e-06 0)
(0.0010012 -1.28197e-06 0)
(0.00100065 -1.22968e-06 0)
(0.00100016 -9.93909e-07 0)
(0.000999915 -7.01426e-07 0)
(0.000999741 -5.56401e-07 0)
(0.000999753 -4.87002e-07 0)
(0.000999562 -5.98173e-07 0)
(0.001 5.00704e-08 0)
(0.00100004 1.50116e-07 0)
(0.00100012 2.47139e-07 0)
(0.00100025 3.38585e-07 0)
(0.00100041 4.20866e-07 0)
(0.00100062 4.82475e-07 0)
(0.00100086 5.08019e-07 0)
(0.00100112 4.73337e-07 0)
(0.00100137 3.61963e-07 0)
(0.00100157 1.56731e-07 0)
(0.00100167 -1.15891e-07 0)
(0.00100161 -4.20567e-07 0)
(0.00100139 -6.81051e-07 0)
(0.00100103 -8.41509e-07 0)
(0.00100064 -8.49034e-07 0)
(0.00100022 -7.69588e-07 0)
(0.000999951 -6.37127e-07 0)
(0.00099969 -5.96218e-07 0)
(0.000999629 -5.60906e-07 0)
(0.000999388 -6.84348e-07 0)
(0.001 3.40057e-08 0)
(0.00100004 1.04823e-07 0)
(0.00100011 1.75191e-07 0)
(0.00100023 2.41952e-07 0)
(0.00100038 3.01557e-07 0)
(0.00100056 3.48703e-07 0)
(0.00100077 3.74366e-07 0)
(0.00100097 3.6835e-07 0)
(0.00100116 3.20071e-07 0)
(0.0010013 2.24747e-07 0)
(0.00100136 8.67318e-08 0)
(0.00100131 -6.98564e-08 0)
(0.00100115 -2.05232e-07 0)
(0.00100086 -2.95895e-07 0)
(0.00100054 -3.10713e-07 0)
(0.00100017 -2.80464e-07 0)
(0.000999901 -2.01955e-07 0)
(0.000999614 -1.68425e-07 0)
(0.000999517 -1.18151e-07 0)
(0.000999249 -1.97995e-07 0)
(0.001 -4.40325e-09 0)
(0.00100004 -9.91888e-09 0)
(0.00100012 -1.26207e-08 0)
(0.00100024 -1.45936e-08 0)
(0.00100038 -1.73697e-08 0)
(0.00100056 -2.33795e-08 0)
(0.00100075 -3.42497e-08 0)
(0.00100094 -5.37406e-08 0)
(0.00100111 -8.18191e-08 0)
(0.00100123 -1.2205e-07 0)
(0.00100128 -1.69721e-07 0)
(0.00100122 -2.31154e-07 0)
(0.00100107 -2.9013e-07 0)
(0.00100081 -3.40571e-07 0)
(0.00100053 -3.58873e-07 0)
(0.00100018 -3.67351e-07 0)
(0.000999946 -3.42087e-07 0)
(0.00099961 -3.52805e-07 0)
(0.000999522 -3.27815e-07 0)
(0.00099913 -4.10475e-07 0)
)
;

boundaryField
{
    sides
    {
        type            slip;
    }
    inlet
    {
        type            fixedValue;
        value           uniform (0.001 0 0);
    }
    outlet
    {
        type            zeroGradient;
    }
    frontAndBack
    {
        type            empty;
    }
}


// ************************************************************************* //
