/*--------------------------------*- C++ -*----------------------------------*\
  =========                 |
  \\      /  F ield         | OpenFOAM: The Open Source CFD Toolbox
   \\    /   O peration     | Website:  https://openfoam.org
    \\  /    A nd           | Version:  9
     \\/     M anipulation  |
\*---------------------------------------------------------------------------*/
FoamFile
{
    format      ascii;
    class       volVectorField;
    location    "88";
    object      hU_0;
}
// * * * * * * * * * * * * * * * * * * * * * * * * * * * * * * * * * * * * * //

dimensions      [0 2 -1 0 0 0 0];

internalField   nonuniform List<vector> 
400
(
(0.001 -2.43567e-08 0)
(0.00100004 -7.05578e-08 0)
(0.00100012 -1.13228e-07 0)
(0.00100024 -1.52373e-07 0)
(0.00100039 -1.87156e-07 0)
(0.00100058 -2.16426e-07 0)
(0.00100078 -2.36654e-07 0)
(0.00100099 -2.45112e-07 0)
(0.00100118 -2.36189e-07 0)
(0.00100133 -2.11373e-07 0)
(0.0010014 -1.69047e-07 0)
(0.0010014 -1.28769e-07 0)
(0.00100129 -9.93349e-08 0)
(0.00100111 -9.33615e-08 0)
(0.00100087 -1.00014e-07 0)
(0.00100065 -1.36088e-07 0)
(0.00100044 -1.56969e-07 0)
(0.00100034 -2.01328e-07 0)
(0.00100026 -1.88754e-07 0)
(0.00100033 -2.68438e-07 0)
(0.001 -2.6787e-08 0)
(0.00100005 -7.88338e-08 0)
(0.00100013 -1.28351e-07 0)
(0.00100026 -1.74059e-07 0)
(0.00100042 -2.12936e-07 0)
(0.00100062 -2.39659e-07 0)
(0.00100084 -2.45492e-07 0)
(0.00100108 -2.19842e-07 0)
(0.0010013 -1.54483e-07 0)
(0.00100147 -4.80135e-08 0)
(0.00100156 9.26874e-08 0)
(0.00100154 2.46791e-07 0)
(0.00100141 3.89021e-07 0)
(0.00100119 4.76098e-07 0)
(0.00100092 5.04495e-07 0)
(0.00100067 4.51106e-07 0)
(0.00100048 3.77634e-07 0)
(0.00100036 2.56828e-07 0)
(0.00100033 2.05383e-07 0)
(0.00100029 8.10795e-08 0)
(0.001 -5.24592e-08 0)
(0.00100004 -1.5915e-07 0)
(0.00100013 -2.67158e-07 0)
(0.00100026 -3.73667e-07 0)
(0.00100043 -4.73048e-07 0)
(0.00100065 -5.55152e-07 0)
(0.0010009 -6.03322e-07 0)
(0.00100117 -5.97032e-07 0)
(0.00100143 -5.17877e-07 0)
(0.00100164 -3.5217e-07 0)
(0.00100176 -1.10351e-07 0)
(0.00100176 1.61668e-07 0)
(0.00100159 4.01679e-07 0)
(0.00100131 5.19787e-07 0)
(0.00100095 4.99146e-07 0)
(0.00100062 3.53572e-07 0)
(0.00100037 2.02803e-07 0)
(0.00100026 4.57994e-08 0)
(0.00100022 -3.46772e-09 0)
(0.0010003 -1.17336e-07 0)
(0.001 -7.33714e-08 0)
(0.00100004 -2.22603e-07 0)
(0.00100013 -3.75253e-07 0)
(0.00100026 -5.30302e-07 0)
(0.00100045 -6.8029e-07 0)
(0.00100069 -8.10053e-07 0)
(0.001001 -8.8869e-07 0)
(0.00100134 -8.85303e-07 0)
(0.00100171 -7.55217e-07 0)
(0.00100203 -4.75463e-07 0)
(0.00100222 -2.3296e-08 0)
(0.00100219 4.92871e-07 0)
(0.00100192 9.36743e-07 0)
(0.00100146 1.13981e-06 0)
(0.00100097 1.05466e-06 0)
(0.00100058 7.43207e-07 0)
(0.00100041 4.24054e-07 0)
(0.00100035 1.69946e-07 0)
(0.0010004 1.01479e-07 0)
(0.00100035 -1.05471e-11 0)
(0.001 -9.08344e-08 0)
(0.00100004 -2.78277e-07 0)
(0.00100012 -4.7717e-07 0)
(0.00100025 -6.93711e-07 0)
(0.00100044 -9.20717e-07 0)
(0.00100072 -1.13934e-06 0)
(0.00100109 -1.29874e-06 0)
(0.00100155 -1.33714e-06 0)
(0.00100207 -1.17546e-06 0)
(0.00100257 -7.7768e-07 0)
(0.0010029 -1.71035e-07 0)
(0.00100288 5.79595e-07 0)
(0.00100244 1.23163e-06 0)
(0.00100167 1.51204e-06 0)
(0.00100086 1.37556e-06 0)
(0.00100031 9.65038e-07 0)
(0.00100013 5.81741e-07 0)
(0.00100021 3.14372e-07 0)
(0.00100037 2.61799e-07 0)
(0.00100043 1.67562e-07 0)
(0.001 -1.03312e-07 0)
(0.00100003 -3.18575e-07 0)
(0.00100009 -5.61954e-07 0)
(0.00100019 -8.44443e-07 0)
(0.00100038 -1.17294e-06 0)
(0.00100068 -1.52531e-06 0)
(0.00100115 -1.85953e-06 0)
(0.00100178 -2.05455e-06 0)
(0.00100254 -1.91152e-06 0)
(0.00100326 -1.19909e-06 0)
(0.00100377 8.65892e-08 0)
(0.00100378 1.5431e-06 0)
(0.00100309 2.43589e-06 0)
(0.00100192 2.30642e-06 0)
(0.00100082 1.43094e-06 0)
(0.00100019 4.92953e-07 0)
(0.00100017 1.33743e-08 0)
(0.00100037 -8.55442e-08 0)
(0.00100064 5.99539e-08 0)
(0.00100055 4.97692e-08 0)
(0.001 -1.02626e-07 0)
(0.001 -3.33256e-07 0)
(0.00100002 -6.01473e-07 0)
(0.00100008 -9.61897e-07 0)
(0.00100021 -1.39281e-06 0)
(0.00100048 -1.94691e-06 0)
(0.001001 -2.49001e-06 0)
(0.00100188 -3.08434e-06 0)
(0.00100321 -3.23287e-06 0)
(0.00100473 -2.8808e-06 0)
(0.00100573 -6.62308e-07 0)
(0.00100535 2.556e-06 0)
(0.0010035 4.82769e-06 0)
(0.00100112 4.73773e-06 0)
(0.000999607 3.02943e-06 0)
(0.000999372 1.26454e-06 0)
(0.00100001 4.31211e-07 0)
(0.00100056 3.26711e-07 0)
(0.00100093 5.62217e-07 0)
(0.00100066 5.33952e-07 0)
(0.000999996 -9.24554e-08 0)
(0.000999968 -2.88274e-07 0)
(0.000999908 -5.76503e-07 0)
(0.000999876 -9.56901e-07 0)
(0.000999878 -1.5781e-06 0)
(0.0010001 -2.3457e-06 0)
(0.0010005 -3.40308e-06 0)
(0.00100152 -4.12395e-06 0)
(0.00100308 -4.37206e-06 0)
(0.00100602 -2.54879e-06 0)
(0.00100911 7.44692e-07 0)
(0.00100913 4.26607e-06 0)
(0.0010055 4.71858e-06 0)
(0.00100074 2.7823e-06 0)
(0.00099815 7.36113e-07 0)
(0.000998274 -2.73939e-07 0)
(0.000999797 -2.85599e-07 0)
(0.00100087 -9.46069e-09 0)
(0.00100133 2.12496e-07 0)
(0.00100085 1.03024e-07 0)
(0.000999995 -4.89396e-08 0)
(0.000999915 -2.03249e-07 0)
(0.000999756 -3.86131e-07 0)
(0.000999531 -7.35268e-07 0)
(0.000999287 -1.33916e-06 0)
(0.000999211 -2.48205e-06 0)
(0.000999707 -4.68761e-06 0)
(0.00100139 -8.06748e-06 0)
(0.00100491 -1.32851e-05 0)
(0.00100957 -1.49129e-05 0)
(0.00101188 3.83192e-06 0)
(0.00100894 1.87276e-05 0)
(0.00100222 1.57802e-05 0)
(0.000997567 5.74087e-06 0)
(0.000996886 -3.16304e-07 0)
(0.00099846 -1.26337e-06 0)
(0.00100027 -9.42463e-08 0)
(0.001001 6.35084e-07 0)
(0.00100107 6.52472e-07 0)
(0.00100054 2.43944e-07 0)
(0.000999804 -1.94825e-08 0)
(0.00100017 -6.62432e-08 0)
(0.000999216 -1.51163e-07 0)
(0.000999904 -2.48936e-07 0)
(0.000997521 -5.92747e-07 0)
(0.000998843 -1.1316e-06 0)
(0.000993347 -2.88352e-06 0)
(0.000997531 -5.59257e-06 0)
(0.000991668 -1.15426e-05 0)
(0.00091583 -1.27086e-05 0)
(0.00095147 2.80647e-07 0)
(0.00101023 1.46383e-05 0)
(0.00099095 1.30824e-05 0)
(0.000983977 5.14015e-06 0)
(0.000989587 1.93448e-07 0)
(0.000996281 -7.82024e-07 0)
(0.000999236 -1.11694e-07 0)
(0.000999412 2.48598e-07 0)
(0.000998647 1.74628e-07 0)
(0.000998504 -1.84835e-07 0)
(0.000999804 1.32046e-08 0)
(0.00100017 4.59974e-08 0)
(0.000999215 1.17534e-07 0)
(0.000999903 1.99995e-07 0)
(0.000997519 5.2922e-07 0)
(0.000998838 1.05131e-06 0)
(0.000993339 2.78648e-06 0)
(0.00099752 5.47302e-06 0)
(0.000991649 1.13962e-05 0)
(0.000915811 1.25483e-05 0)
(0.000951432 -4.74838e-07 0)
(0.0010102 -1.49087e-05 0)
(0.000990948 -1.34078e-05 0)
(0.000983968 -5.53534e-06 0)
(0.000989568 -6.48332e-07 0)
(0.000996244 2.48002e-07 0)
(0.000999195 -4.72581e-07 0)
(0.000999367 -1.00254e-06 0)
(0.000998633 -9.88845e-07 0)
(0.000998454 -8.88827e-07 0)
(0.000999995 4.25448e-08 0)
(0.000999915 1.83558e-07 0)
(0.000999755 3.53289e-07 0)
(0.00099953 6.87696e-07 0)
(0.000999285 1.2769e-06 0)
(0.00099921 2.40157e-06 0)
(0.000999703 4.58859e-06 0)
(0.00100139 7.94195e-06 0)
(0.0010049 1.31321e-05 0)
(0.00100957 1.47208e-05 0)
(0.00101188 -4.06215e-06 0)
(0.0010089 -1.90021e-05 0)
(0.00100214 -1.60932e-05 0)
(0.000997478 -6.1214e-06 0)
(0.000996815 -8.3621e-08 0)
(0.000998401 7.75519e-07 0)
(0.00100017 -4.2739e-07 0)
(0.00100085 -1.30551e-06 0)
(0.00100088 -1.37997e-06 0)
(0.00100037 -1.25116e-06 0)
(0.000999996 8.60248e-08 0)
(0.000999968 2.69466e-07 0)
(0.000999906 5.44504e-07 0)
(0.000999871 9.10754e-07 0)
(0.00099987 1.51449e-06 0)
(0.00100008 2.26174e-06 0)
(0.00100048 3.29331e-06 0)
(0.00100149 3.99011e-06 0)
(0.00100303 4.212e-06 0)
(0.00100595 2.36681e-06 0)
(0.00100902 -9.75404e-07 0)
(0.00100906 -4.53585e-06 0)
(0.00100543 -5.0175e-06 0)
(0.00100066 -3.12816e-06 0)
(0.000998057 -1.13103e-06 0)
(0.000998134 -2.51548e-07 0)
(0.000999622 -3.23129e-07 0)
(0.00100064 -7.42118e-07 0)
(0.00100106 -9.67985e-07 0)
(0.00100055 -1.07432e-06 0)
(0.001 9.64767e-08 0)
(0.001 3.15123e-07 0)
(0.00100002 5.71159e-07 0)
(0.00100007 9.17751e-07 0)
(0.0010002 1.33435e-06 0)
(0.00100046 1.87136e-06 0)
(0.00100097 2.39891e-06 0)
(0.00100185 2.97485e-06 0)
(0.00100318 3.11072e-06 0)
(0.00100469 2.73158e-06 0)
(0.00100568 5.04294e-07 0)
(0.00100528 -2.75362e-06 0)
(0.00100338 -5.07755e-06 0)
(0.00100096 -5.07114e-06 0)
(0.000999408 -3.45009e-06 0)
(0.000999121 -1.79466e-06 0)
(0.000999744 -1.02134e-06 0)
(0.00100025 -1.05945e-06 0)
(0.00100061 -1.30747e-06 0)
(0.00100024 -1.51573e-06 0)
(0.001 9.79418e-08 0)
(0.00100003 3.02383e-07 0)
(0.00100008 5.34954e-07 0)
(0.00100019 8.0534e-07 0)
(0.00100036 1.12151e-06 0)
(0.00100066 1.45967e-06 0)
(0.00100112 1.77877e-06 0)
(0.00100174 1.95142e-06 0)
(0.00100248 1.78192e-06 0)
(0.00100317 1.03304e-06 0)
(0.00100366 -2.78566e-07 0)
(0.00100363 -1.78284e-06 0)
(0.00100292 -2.71159e-06 0)
(0.00100171 -2.63305e-06 0)
(0.00100058 -1.77999e-06 0)
(0.000999904 -8.95956e-07 0)
(0.000999858 -4.27184e-07 0)
(0.000999982 -4.47616e-07 0)
(0.00100022 -6.16106e-07 0)
(0.00100001 -8.48459e-07 0)
(0.001 8.62356e-08 0)
(0.00100004 2.64285e-07 0)
(0.00100011 4.53788e-07 0)
(0.00100024 6.60757e-07 0)
(0.00100043 8.77055e-07 0)
(0.0010007 1.08415e-06 0)
(0.00100106 1.23041e-06 0)
(0.0010015 1.25369e-06 0)
(0.001002 1.07384e-06 0)
(0.00100248 6.56528e-07 0)
(0.0010028 1.67738e-08 0)
(0.00100274 -7.71338e-07 0)
(0.00100227 -1.45106e-06 0)
(0.00100146 -1.77537e-06 0)
(0.00100062 -1.66873e-06 0)
(0.00100001 -1.34824e-06 0)
(0.000999795 -1.02885e-06 0)
(0.000999767 -9.36247e-07 0)
(0.000999886 -9.44768e-07 0)
(0.000999768 -1.10821e-06 0)
(0.001 6.92572e-08 0)
(0.00100004 2.09997e-07 0)
(0.00100012 3.54084e-07 0)
(0.00100025 5.00825e-07 0)
(0.00100043 6.43245e-07 0)
(0.00100066 7.64981e-07 0)
(0.00100096 8.37221e-07 0)
(0.00100129 8.26232e-07 0)
(0.00100163 6.91906e-07 0)
(0.00100191 4.06924e-07 0)
(0.00100206 -4.63323e-08 0)
(0.001002 -5.75862e-07 0)
(0.00100171 -1.03566e-06 0)
(0.0010012 -1.28134e-06 0)
(0.00100065 -1.22921e-06 0)
(0.00100016 -9.93518e-07 0)
(0.000999916 -7.01105e-07 0)
(0.000999742 -5.5625e-07 0)
(0.000999753 -4.86954e-07 0)
(0.000999561 -5.98151e-07 0)
(0.001 5.00774e-08 0)
(0.00100004 1.4999e-07 0)
(0.00100012 2.47261e-07 0)
(0.00100025 3.38928e-07 0)
(0.00100041 4.21017e-07 0)
(0.00100062 4.82276e-07 0)
(0.00100086 5.07499e-07 0)
(0.00100112 4.72622e-07 0)
(0.00100137 3.61489e-07 0)
(0.00100157 1.56621e-07 0)
(0.00100167 -1.15468e-07 0)
(0.00100161 -4.20091e-07 0)
(0.00100139 -6.80718e-07 0)
(0.00100103 -8.41254e-07 0)
(0.00100064 -8.4886e-07 0)
(0.00100022 -7.6947e-07 0)
(0.000999951 -6.37163e-07 0)
(0.000999691 -5.9669e-07 0)
(0.000999629 -5.61653e-07 0)
(0.000999387 -6.84736e-07 0)
(0.001 3.41026e-08 0)
(0.00100004 1.04616e-07 0)
(0.00100011 1.75086e-07 0)
(0.00100023 2.42346e-07 0)
(0.00100038 3.02003e-07 0)
(0.00100056 3.48773e-07 0)
(0.00100077 3.74034e-07 0)
(0.00100097 3.67664e-07 0)
(0.00100116 3.19346e-07 0)
(0.0010013 2.24225e-07 0)
(0.00100136 8.65586e-08 0)
(0.00100131 -6.99317e-08 0)
(0.00100115 -2.05392e-07 0)
(0.00100086 -2.96116e-07 0)
(0.00100054 -3.10905e-07 0)
(0.00100017 -2.8059e-07 0)
(0.000999901 -2.0223e-07 0)
(0.000999614 -1.69167e-07 0)
(0.000999517 -1.19195e-07 0)
(0.000999249 -1.98537e-07 0)
(0.001 -4.34118e-09 0)
(0.00100004 -1.00082e-08 0)
(0.00100012 -1.27139e-08 0)
(0.00100024 -1.44295e-08 0)
(0.00100038 -1.71316e-08 0)
(0.00100056 -2.32919e-08 0)
(0.00100075 -3.43638e-08 0)
(0.00100094 -5.40038e-08 0)
(0.00100111 -8.2155e-08 0)
(0.00100123 -1.22329e-07 0)
(0.00100128 -1.69991e-07 0)
(0.00100121 -2.31351e-07 0)
(0.00100107 -2.90312e-07 0)
(0.00100081 -3.40774e-07 0)
(0.00100053 -3.59026e-07 0)
(0.00100018 -3.67452e-07 0)
(0.000999945 -3.42254e-07 0)
(0.000999609 -3.53164e-07 0)
(0.000999522 -3.28301e-07 0)
(0.00099913 -4.10727e-07 0)
)
;

boundaryField
{
    sides
    {
        type            slip;
    }
    inlet
    {
        type            fixedValue;
        value           uniform (0.001 0 0);
    }
    outlet
    {
        type            zeroGradient;
    }
    frontAndBack
    {
        type            empty;
    }
}


// ************************************************************************* //
