/*--------------------------------*- C++ -*----------------------------------*\
  =========                 |
  \\      /  F ield         | OpenFOAM: The Open Source CFD Toolbox
   \\    /   O peration     | Website:  https://openfoam.org
    \\  /    A nd           | Version:  9
     \\/     M anipulation  |
\*---------------------------------------------------------------------------*/
FoamFile
{
    format      ascii;
    class       volVectorField;
    location    "88";
    object      U;
}
// * * * * * * * * * * * * * * * * * * * * * * * * * * * * * * * * * * * * * //

dimensions      [0 1 -1 0 0 0 0];

internalField   nonuniform List<vector> 
400
(
(0.0999964 -2.42626e-06 0)
(0.100001 -7.05828e-06 0)
(0.100009 -1.13261e-05 0)
(0.100023 -1.52351e-05 0)
(0.10004 -1.87071e-05 0)
(0.100061 -2.16515e-05 0)
(0.100083 -2.36885e-05 0)
(0.100107 -2.45289e-05 0)
(0.100128 -2.36474e-05 0)
(0.100144 -2.11511e-05 0)
(0.100152 -1.69082e-05 0)
(0.100152 -1.28792e-05 0)
(0.10014 -9.923e-06 0)
(0.10012 -9.34352e-06 0)
(0.100093 -1.00017e-05 0)
(0.100068 -1.35951e-05 0)
(0.100045 -1.56882e-05 0)
(0.100034 -2.01456e-05 0)
(0.100025 -1.89019e-05 0)
(0.100033 -2.68598e-05 0)
(0.099997 -2.66236e-06 0)
(0.100002 -7.892e-06 0)
(0.100011 -1.28397e-05 0)
(0.100025 -1.73926e-05 0)
(0.100044 -2.12786e-05 0)
(0.100066 -2.40001e-05 0)
(0.100091 -2.45887e-05 0)
(0.100117 -2.20275e-05 0)
(0.100141 -1.54893e-05 0)
(0.100161 -4.82821e-06 0)
(0.100171 9.30779e-06 0)
(0.100169 2.46905e-05 0)
(0.100154 3.89252e-05 0)
(0.100129 4.76078e-05 0)
(0.1001 5.04398e-05 0)
(0.100071 4.51325e-05 0)
(0.10005 3.7783e-05 0)
(0.100037 2.56544e-05 0)
(0.100033 2.04778e-05 0)
(0.100029 8.0774e-06 0)
(0.0999968 -5.24607e-06 0)
(0.100001 -1.59271e-05 0)
(0.100011 -2.67055e-05 0)
(0.100025 -3.73374e-05 0)
(0.100044 -4.73087e-05 0)
(0.100068 -5.55552e-05 0)
(0.100096 -6.03474e-05 0)
(0.100127 -5.97628e-05 0)
(0.100156 -5.18089e-05 0)
(0.10018 -3.52432e-05 0)
(0.100193 -1.10035e-05 0)
(0.100192 1.62148e-05 0)
(0.100174 4.01616e-05 0)
(0.100142 5.19826e-05 0)
(0.100102 4.98972e-05 0)
(0.100066 3.53474e-05 0)
(0.100038 2.02858e-05 0)
(0.100026 4.56424e-06 0)
(0.100021 -3.88749e-07 0)
(0.100029 -1.17589e-05 0)
(0.0999962 -7.36408e-06 0)
(0.100001 -2.22666e-05 0)
(0.10001 -3.74939e-05 0)
(0.100025 -5.30022e-05 0)
(0.100046 -6.8051e-05 0)
(0.100073 -8.10054e-05 0)
(0.100107 -8.88888e-05 0)
(0.100146 -8.85608e-05 0)
(0.100186 -7.55613e-05 0)
(0.100222 -4.75018e-05 0)
(0.100243 -2.34548e-06 0)
(0.10024 4.93382e-05 0)
(0.100211 9.37204e-05 0)
(0.100159 0.000113985 0)
(0.100104 0.000105467 0)
(0.100061 7.43021e-05 0)
(0.100041 4.2387e-05 0)
(0.100035 1.69853e-05 0)
(0.10004 1.01411e-05 0)
(0.100035 -7.65729e-09 0)
(0.0999952 -9.11886e-06 0)
(0.0999994 -2.78231e-05 0)
(0.100008 -4.76819e-05 0)
(0.100023 -6.93629e-05 0)
(0.100044 -9.20785e-05 0)
(0.100076 -0.000113922 0)
(0.100117 -0.000129897 0)
(0.100168 -0.00013373 0)
(0.100225 -0.000117518 0)
(0.100281 -7.77796e-05 0)
(0.100318 -1.70157e-05 0)
(0.100316 5.79157e-05 0)
(0.100267 0.000123229 0)
(0.100181 0.00015127 0)
(0.100091 0.000137578 0)
(0.100029 9.64946e-05 0)
(0.10001 5.81487e-05 0)
(0.100019 3.14293e-05 0)
(0.100036 2.62033e-05 0)
(0.100043 1.67764e-05 0)
(0.0999939 -1.03471e-05 0)
(0.0999968 -3.18452e-05 0)
(0.100003 -5.61792e-05 0)
(0.100015 -8.44497e-05 0)
(0.100036 -0.000117288 0)
(0.10007 -0.000152529 0)
(0.100122 -0.000185969 0)
(0.100192 -0.000205445 0)
(0.100277 -0.000191085 0)
(0.100357 -0.000120011 0)
(0.100414 8.73193e-06 0)
(0.100415 0.000154462 0)
(0.100339 0.000243581 0)
(0.100208 0.000230707 0)
(0.100084 0.000143149 0)
(0.100015 4.93112e-05 0)
(0.100012 1.33519e-06 0)
(0.100035 -8.54093e-06 0)
(0.100065 6.04264e-06 0)
(0.100055 5.00901e-06 0)
(0.0999923 -1.02493e-05 0)
(0.0999928 -3.33107e-05 0)
(0.0999949 -6.0154e-05 0)
(0.100001 -9.62004e-05 0)
(0.100016 -0.000139271 0)
(0.100046 -0.000194689 0)
(0.100103 -0.00024899 0)
(0.100202 -0.000308413 0)
(0.10035 -0.000323411 0)
(0.10052 -0.000287991 0)
(0.100632 -6.69169e-05 0)
(0.10059 0.000255961 0)
(0.100383 0.000482939 0)
(0.100117 0.000473728 0)
(0.0999477 0.000302909 0)
(0.0999219 0.000126464 0)
(0.0999926 4.31383e-05 0)
(0.100056 3.26994e-05 0)
(0.100095 5.62661e-05 0)
(0.100067 5.34213e-05 0)
(0.0999905 -9.21237e-06 0)
(0.0999874 -2.88148e-05 0)
(0.0999807 -5.76711e-05 0)
(0.0999769 -9.56994e-05 0)
(0.0999774 -0.000157794 0)
(0.100001 -0.00023455 0)
(0.100047 -0.000340259 0)
(0.10016 -0.000412418 0)
(0.100335 -0.00043737 0)
(0.100659 -0.000255221 0)
(0.101007 7.4998e-05 0)
(0.101013 0.000426628 0)
(0.100606 0.00047202 0)
(0.100072 0.000278157 0)
(0.099782 7.35147e-05 0)
(0.0997968 -2.73899e-05 0)
(0.0999671 -2.85269e-05 0)
(0.100089 -9.24631e-07 0)
(0.100138 2.12665e-05 0)
(0.100087 1.03127e-05 0)
(0.0999894 -4.85929e-06 0)
(0.0999805 -2.03178e-05 0)
(0.0999628 -3.86393e-05 0)
(0.0999377 -7.35312e-05 0)
(0.0999106 -0.000133886 0)
(0.0999019 -0.000248147 0)
(0.0999568 -0.000468672 0)
(0.100145 -0.000806832 0)
(0.100536 -0.00132919 0)
(0.101061 -0.00149302 0)
(0.101323 0.000384151 0)
(0.100997 0.00187433 0)
(0.100241 0.00157827 0)
(0.0997201 0.000573822 0)
(0.0996446 -3.16727e-05 0)
(0.099822 -0.000126332 0)
(0.100024 -9.43632e-06 0)
(0.100107 6.34954e-05 0)
(0.100113 6.52326e-05 0)
(0.100055 2.43855e-05 0)
(0.0999703 -1.93019e-06 0)
(0.100006 -6.62352e-06 0)
(0.0999077 -1.51361e-05 0)
(0.0999716 -2.49016e-05 0)
(0.0997258 -5.92425e-05 0)
(0.0998441 -0.000113101 0)
(0.0992766 -0.000288191 0)
(0.0996751 -0.000558851 0)
(0.0991181 -0.00115379 0)
(0.102003 -0.00141514 0)
(0.10628 3.06754e-05 0)
(0.101267 0.00146781 0)
(0.0990078 0.00130721 0)
(0.0982226 0.000513089 0)
(0.0988555 1.93355e-05 0)
(0.0996052 -7.81982e-05 0)
(0.0999352 -1.12099e-05 0)
(0.0999522 2.48261e-05 0)
(0.0998669 1.74374e-05 0)
(0.0998489 -1.84945e-05 0)
(0.0999709 1.31466e-06 0)
(0.100006 4.59823e-06 0)
(0.0999083 1.17495e-05 0)
(0.0999722 1.9988e-05 0)
(0.0997262 5.29142e-05 0)
(0.0998442 0.000105106 0)
(0.0992763 0.000278467 0)
(0.0996744 0.00054688 0)
(0.0991169 0.00113913 0)
(0.102001 0.00139765 0)
(0.106277 -5.23228e-05 0)
(0.101265 -0.00149432 0)
(0.0990077 -0.00133957 0)
(0.0982224 -0.000552485 0)
(0.098854 -6.47398e-05 0)
(0.0996016 2.47823e-05 0)
(0.0999311 -4.72874e-05 0)
(0.0999478 -0.000100278 0)
(0.0998658 -9.88856e-05 0)
(0.0998442 -8.88768e-05 0)
(0.0999914 4.23286e-06 0)
(0.0999825 1.8353e-05 0)
(0.0999647 3.53455e-05 0)
(0.0999397 6.87594e-05 0)
(0.0999124 0.000127652 0)
(0.0999039 0.000240107 0)
(0.0999583 0.000458802 0)
(0.100146 0.000794305 0)
(0.100537 0.00131395 0)
(0.101064 0.00147344 0)
(0.101325 -0.000407171 0)
(0.100995 -0.0019024 0)
(0.100235 -0.00160971 0)
(0.0997122 -0.000611878 0)
(0.0996386 -8.32513e-06 0)
(0.0998173 7.75496e-05 0)
(0.100015 -4.27242e-05 0)
(0.100092 -0.000130529 0)
(0.100093 -0.000137968 0)
(0.100038 -0.000125101 0)
(0.0999938 8.58214e-06 0)
(0.0999906 2.6942e-05 0)
(0.0999838 5.44769e-05 0)
(0.0999798 9.10813e-05 0)
(0.0999799 0.000151403 0)
(0.100003 0.000226129 0)
(0.100048 0.000329315 0)
(0.100159 0.000399118 0)
(0.100332 0.0004214 0)
(0.100654 0.000236716 0)
(0.101 -9.81987e-05 0)
(0.101007 -0.000454209 0)
(0.100601 -0.000502084 0)
(0.100067 -0.000312789 0)
(0.099775 -0.000113011 0)
(0.0997846 -2.51057e-05 0)
(0.099951 -3.22599e-05 0)
(0.100066 -7.41624e-05 0)
(0.100111 -9.67685e-05 0)
(0.100057 -0.000107423 0)
(0.0999971 9.64359e-06 0)
(0.0999974 3.15042e-05 0)
(0.0999992 5.71301e-05 0)
(0.100005 9.17956e-05 0)
(0.100019 0.000133419 0)
(0.100049 0.000187099 0)
(0.100105 0.000239879 0)
(0.100203 0.000297507 0)
(0.100351 0.00031119 0)
(0.100519 0.000273451 0)
(0.100631 5.10397e-05 0)
(0.100586 -0.000275435 0)
(0.100375 -0.00050782 0)
(0.100105 -0.000507078 0)
(0.0999303 -0.00034494 0)
(0.0998988 -0.000179424 0)
(0.0999681 -0.000102097 0)
(0.100026 -0.00010593 0)
(0.100065 -0.000130767 0)
(0.100025 -0.000151592 0)
(0.1 9.80642e-06 0)
(0.100003 3.02231e-05 0)
(0.100009 5.34855e-05 0)
(0.100021 8.05552e-05 0)
(0.10004 0.000112182 0)
(0.100073 0.000145972 0)
(0.100124 0.000177868 0)
(0.100194 0.0001951 0)
(0.100276 0.000178185 0)
(0.100354 0.00010342 0)
(0.100408 -2.78939e-05 0)
(0.100405 -0.000178144 0)
(0.100326 -0.000271153 0)
(0.10019 -0.000263321 0)
(0.100064 -0.000178013 0)
(0.099989 -8.95978e-05 0)
(0.0999835 -4.27271e-05 0)
(0.0999983 -4.48028e-05 0)
(0.100024 -6.16805e-05 0)
(0.100002 -8.48848e-05 0)
(0.100003 8.63997e-06 0)
(0.100007 2.64103e-05 0)
(0.100015 4.53508e-05 0)
(0.100029 6.60884e-05 0)
(0.10005 8.77561e-05 0)
(0.10008 0.000108471 0)
(0.10012 0.000123065 0)
(0.10017 0.000125341 0)
(0.100225 0.000107322 0)
(0.100279 6.55936e-05 0)
(0.100315 1.66778e-06 0)
(0.100309 -7.71941e-05 0)
(0.100256 -0.000145174 0)
(0.100166 -0.000177615 0)
(0.100072 -0.000166928 0)
(0.100003 -0.000134861 0)
(0.0999793 -0.000102927 0)
(0.0999767 -9.36837e-05 0)
(0.0999895 -9.45455e-05 0)
(0.0999775 -0.000110856 0)
(0.100005 6.93611e-06 0)
(0.10001 2.09925e-05 0)
(0.100019 3.53794e-05 0)
(0.100033 5.00766e-05 0)
(0.100053 6.43587e-05 0)
(0.100079 7.65548e-05 0)
(0.100111 8.37857e-05 0)
(0.100148 8.26527e-05 0)
(0.100186 6.91746e-05 0)
(0.100218 4.0645e-05 0)
(0.100235 -4.687e-06 0)
(0.100228 -5.76723e-05 0)
(0.100195 -0.000103662 0)
(0.100138 -0.000128221 0)
(0.100077 -0.000122983 0)
(0.100023 -9.93977e-05 0)
(0.0999952 -7.01452e-05 0)
(0.0999764 -5.56414e-05 0)
(0.0999769 -4.8701e-05 0)
(0.099957 -5.98178e-05 0)
(0.100007 5.00738e-06 0)
(0.100012 1.50127e-05 0)
(0.100021 2.4716e-05 0)
(0.100034 3.38618e-05 0)
(0.100053 4.20915e-05 0)
(0.100076 4.82543e-05 0)
(0.100103 5.08104e-05 0)
(0.100131 4.73429e-05 0)
(0.100159 3.62044e-05 0)
(0.100182 1.5677e-05 0)
(0.100193 -1.15921e-05 0)
(0.100186 -4.20673e-05 0)
(0.100162 -6.81207e-05 0)
(0.100122 -8.41668e-05 0)
(0.100078 -8.49153e-05 0)
(0.100032 -7.69662e-05 0)
(0.100001 -6.37166e-05 0)
(0.0999727 -5.9624e-05 0)
(0.099965 -5.60917e-05 0)
(0.0999396 -6.84353e-05 0)
(0.100009 3.40086e-06 0)
(0.100013 1.04832e-05 0)
(0.100021 1.75208e-05 0)
(0.100034 2.41979e-05 0)
(0.100051 3.01596e-05 0)
(0.100071 3.48755e-05 0)
(0.100094 3.74431e-05 0)
(0.100117 3.68422e-05 0)
(0.100138 3.20141e-05 0)
(0.100153 2.24799e-05 0)
(0.10016 8.67526e-06 0)
(0.100155 -6.98729e-06 0)
(0.100137 -2.05276e-05 0)
(0.100105 -2.9595e-05 0)
(0.100068 -3.10758e-05 0)
(0.100027 -2.80494e-05 0)
(0.0999972 -2.01969e-05 0)
(0.0999658 -1.68432e-05 0)
(0.0999542 -1.18154e-05 0)
(0.0999257 -1.97997e-05 0)
(0.10001 -4.40368e-07 0)
(0.100015 -9.9199e-07 0)
(0.100023 -1.26221e-06 0)
(0.100036 -1.45954e-06 0)
(0.100053 -1.73721e-06 0)
(0.100072 -2.33833e-06 0)
(0.100094 -3.4256e-06 0)
(0.100115 -5.37517e-06 0)
(0.100134 -8.18376e-06 0)
(0.100147 -1.22079e-05 0)
(0.100152 -1.69762e-05 0)
(0.100145 -2.31208e-05 0)
(0.100129 -2.90194e-05 0)
(0.1001 -3.40637e-05 0)
(0.100069 -3.58929e-05 0)
(0.10003 -3.67395e-05 0)
(0.100003 -3.42117e-05 0)
(0.099967 -3.52826e-05 0)
(0.0999558 -3.27827e-05 0)
(0.0999143 -4.10481e-05 0)
)
;

boundaryField
{
    sides
    {
        type            calculated;
        value           nonuniform List<vector> 
40
(
(0.10001 0 0)
(0.100015 0 0)
(0.100023 0 0)
(0.100036 0 0)
(0.100053 0 0)
(0.100072 0 0)
(0.100094 0 0)
(0.100115 0 0)
(0.100134 0 0)
(0.100147 0 0)
(0.100152 0 0)
(0.100145 0 0)
(0.100129 0 0)
(0.1001 0 0)
(0.100069 0 0)
(0.10003 0 0)
(0.100003 0 0)
(0.099967 0 0)
(0.0999558 0 0)
(0.0999143 0 0)
(0.0999964 0 0)
(0.100001 0 0)
(0.100009 0 0)
(0.100023 0 0)
(0.10004 0 0)
(0.100061 0 0)
(0.100083 0 0)
(0.100107 0 0)
(0.100128 0 0)
(0.100144 0 0)
(0.100152 0 0)
(0.100152 0 0)
(0.10014 0 0)
(0.10012 0 0)
(0.100093 0 0)
(0.100068 0 0)
(0.100045 0 0)
(0.100034 0 0)
(0.100025 0 0)
(0.100033 0 0)
)
;
    }
    inlet
    {
        type            calculated;
        value           nonuniform List<vector> 
20
(
(0.0999962 0 0)
(0.0999967 0 0)
(0.0999966 0 0)
(0.0999961 0 0)
(0.0999951 0 0)
(0.0999938 0 0)
(0.0999923 0 0)
(0.0999909 0 0)
(0.0999899 0 0)
(0.0999899 0 0)
(0.0999906 0 0)
(0.099992 0 0)
(0.0999943 0 0)
(0.099997 0 0)
(0.0999999 0 0)
(0.100003 0 0)
(0.100005 0 0)
(0.100007 0 0)
(0.100009 0 0)
(0.10001 0 0)
)
;
    }
    outlet
    {
        type            calculated;
        value           nonuniform List<vector> 
20
(
(0.100033 -2.68599e-05 0)
(0.100029 8.07739e-06 0)
(0.10003 -1.1759e-05 0)
(0.100035 -7.65726e-09 0)
(0.100043 1.67763e-05 0)
(0.100055 5.00897e-06 0)
(0.100066 5.34206e-05 0)
(0.100085 1.03125e-05 0)
(0.100054 2.43852e-05 0)
(0.0998504 -1.84948e-05 0)
(0.0998454 -8.88779e-05 0)
(0.100037 -0.000125099 0)
(0.100055 -0.000107421 0)
(0.100024 -0.000151589 0)
(0.100001 -8.48838e-05 0)
(0.0999768 -0.000110856 0)
(0.0999562 -5.98173e-05 0)
(0.0999388 -6.84348e-05 0)
(0.0999249 -1.97995e-05 0)
(0.099913 -4.10475e-05 0)
)
;
    }
    frontAndBack
    {
        type            empty;
    }
}


// ************************************************************************* //
