# vtk DataFile Version 2.0
sampleSurface
ASCII
DATASET POLYDATA
POINTS 189 float
-4 0 0 -5 0 0 -5 0 1 -4 0
1 -3 0 0 -3 0 1 -2 0 0
-2 0 1 -1 0 0 -1 0 1 0
0 0 0 0 1 1 0 0 1 0
1 2 0 0 2 0 1 3 0 0
3 0 1 4 0 0 4 0 1 5
0 0 5 0 1 6 0 0 6 0
1 7 0 0 7 0 1 8 0 0
8 0 1 9 0 0 9 0 1 10
0 0 10 0 1 11 0 0 11 0
1 12 0 0 12 0 1 13 0 0
13 0 1 14 0 0 14 0 1 15
0 1 15 0 0 -5 0 2 -4 0
2 -3 0 2 -2 0 2 -1 0 2
0 0 2 1 0 2 2 0 2 3
0 2 4 0 2 5 0 2 6 0
2 7 0 2 8 0 2 9 0 2
10 0 2 11 0 2 12 0 2 13
0 2 14 0 2 15 0 2 -5 0
3 -4 0 3 -3 0 3 -2 0 3
-1 0 3 0 0 3 1 0 3 2
0 3 3 0 3 4 0 3 5 0
3 6 0 3 7 0 3 8 0 3
9 0 3 10 0 3 11 0 3 12
0 3 13 0 3 14 0 3 15 0
3 -5 0 4 -4 0 4 -3 0 4
-2 0 4 -1 0 4 0 0 4 1
0 4 2 0 4 3 0 4 4 0
4 5 0 4 6 0 4 7 0 4
8 0 4 9 0 4 10 0 4 11
0 4 12 0 4 13 0 4 14 0
4 15 0 4 -5 0 5 -4 0 5
-3 0 5 -2 0 5 -1 0 5 0
0 5 1 0 5 2 0 5 3 0
5 4 0 5 5 0 5 6 0 5
7 0 5 8 0 5 9 0 5 10
0 5 11 0 5 12 0 5 13 0
5 14 0 5 15 0 5 -5 0 6
-4 0 6 -3 0 6 -2 0 6 -1
0 6 0 0 6 1 0 6 2 0
6 3 0 6 4 0 6 5 0 6
6 0 6 7 0 6 8 0 6 9
0 6 10 0 6 11 0 6 12 0
6 13 0 6 14 0 6 15 0 6
-5 0 7 -4 0 7 -3 0 7 -2
0 7 -1 0 7 0 0 7 1 0
7 2 0 7 3 0 7 4 0 7
5 0 7 6 0 7 7 0 7 8
0 7 9 0 7 10 0 7 11 0
7 12 0 7 13 0 7 14 0 7
15 0 7 -5 0 8 -4 0 8 -3
0 8 -2 0 8 -1 0 8 0 0
8 1 0 8 2 0 8 3 0 8
4 0 8 5 0 8 6 0 8 7
0 8 8 0 8 9 0 8 10 0
8 11 0 8 12 0 8 13 0 8
14 0 8 15 0 8 
POLYGONS 160 800
4 0 1 2 3 4 4 0 3 5 4
6 4 5 7 4 8 6 7 9 4
10 8 9 11 4 12 10 11 13 4
14 12 13 15 4 16 14 15 17 4
18 16 17 19 4 20 18 19 21 4
22 20 21 23 4 24 22 23 25 4
26 24 25 27 4 28 26 27 29 4
30 28 29 31 4 32 30 31 33 4
34 32 33 35 4 36 34 35 37 4
38 36 37 39 4 40 41 38 39 4
3 2 42 43 4 5 3 43 44 4
7 5 44 45 4 9 7 45 46 4
11 9 46 47 4 13 11 47 48 4
15 13 48 49 4 17 15 49 50 4
19 17 50 51 4 21 19 51 52 4
23 21 52 53 4 25 23 53 54 4
27 25 54 55 4 29 27 55 56 4
31 29 56 57 4 33 31 57 58 4
35 33 58 59 4 37 35 59 60 4
39 37 60 61 4 62 40 39 61 4
43 42 63 64 4 44 43 64 65 4
45 44 65 66 4 46 45 66 67 4
47 46 67 68 4 48 47 68 69 4
49 48 69 70 4 50 49 70 71 4
51 50 71 72 4 52 51 72 73 4
53 52 73 74 4 54 53 74 75 4
55 54 75 76 4 56 55 76 77 4
57 56 77 78 4 58 57 78 79 4
59 58 79 80 4 60 59 80 81 4
61 60 81 82 4 83 62 61 82 4
64 63 84 85 4 65 64 85 86 4
66 65 86 87 4 67 66 87 88 4
68 67 88 89 4 69 68 89 90 4
70 69 90 91 4 71 70 91 92 4
72 71 92 93 4 73 72 93 94 4
74 73 94 95 4 75 74 95 96 4
76 75 96 97 4 77 76 97 98 4
78 77 98 99 4 79 78 99 100 4
80 79 100 101 4 81 80 101 102 4
82 81 102 103 4 104 83 82 103 4
85 84 105 106 4 86 85 106 107 4
87 86 107 108 4 88 87 108 109 4
89 88 109 110 4 90 89 110 111 4
91 90 111 112 4 92 91 112 113 4
93 92 113 114 4 94 93 114 115 4
95 94 115 116 4 96 95 116 117 4
97 96 117 118 4 98 97 118 119 4
99 98 119 120 4 100 99 120 121 4
101 100 121 122 4 102 101 122 123 4
103 102 123 124 4 125 104 103 124 4
106 105 126 127 4 107 106 127 128 4
108 107 128 129 4 109 108 129 130 4
110 109 130 131 4 111 110 131 132 4
112 111 132 133 4 113 112 133 134 4
114 113 134 135 4 115 114 135 136 4
116 115 136 137 4 117 116 137 138 4
118 117 138 139 4 119 118 139 140 4
120 119 140 141 4 121 120 141 142 4
122 121 142 143 4 123 122 143 144 4
124 123 144 145 4 146 125 124 145 4
127 126 147 148 4 128 127 148 149 4
129 128 149 150 4 130 129 150 151 4
131 130 151 152 4 132 131 152 153 4
133 132 153 154 4 134 133 154 155 4
135 134 155 156 4 136 135 156 157 4
137 136 157 158 4 138 137 158 159 4
139 138 159 160 4 140 139 160 161 4
141 140 161 162 4 142 141 162 163 4
143 142 163 164 4 144 143 164 165 4
145 144 165 166 4 167 146 145 166 4
148 147 168 169 4 149 148 169 170 4
150 149 170 171 4 151 150 171 172 4
152 151 172 173 4 153 152 173 174 4
154 153 174 175 4 155 154 175 176 4
156 155 176 177 4 157 156 177 178 4
158 157 178 179 4 159 158 179 180 4
160 159 180 181 4 161 160 181 182 4
162 161 182 183 4 163 162 183 184 4
164 163 184 185 4 165 164 185 186 4
166 165 186 187 4 167 166 187 188 
POINT_DATA 189
FIELD attributes 1
U 3 189 float
20 0 0 20 0 0 20 0 0 20 4.42188e-16
-7.96252e-16 20 0 0 20 -1.89477e-16 -1.49059e-15 20 0 0
20 -7.53845e-16 -1.31255e-15 20 0 0 20 -7.09289e-16 -6.57142e-16 20
0 0 20 -3.76003e-16 -1.47688e-16 20 0 0 20 -7.1943e-17
-6.65897e-16 20 0 0 20 -3.51379e-16 -1.52912e-15 20 0 0
20 -5.36274e-16 -1.58298e-15 20 0 0 20 -2.88735e-16 -9.56933e-16 20
0 0 20 -1.34599e-16 -1.79211e-16 20 0 0 20 5.02149e-17
4.1215e-16 20 0 0 20 7.21356e-16 1.9907e-16 20 0 0
20 1.32009e-15 -3.00272e-16 20 0 0 20 1.12183e-15 -3.54072e-16 20
0 0 20 5.1041e-16 1.50203e-16 20 0 0 20 1.69329e-17
4.78833e-16 20 0 0 20 -7.17513e-16 7.6609e-16 20 0 0
20 -6.25887e-16 1.29113e-15 20 0 0 20 6.37568e-17 1.06986e-15 20
1.4169e-16 7.20009e-16 20 1.70927e-16 7.98709e-17 20 0 0 20 7.77772e-17
-7.65395e-16 20 -4.32467e-16 -8.793e-16 20 -9.43629e-16 -5.7774e-16 20 -7.10392e-16 -1.84915e-16
20 -2.13005e-16 2.12598e-16 20 -2.59354e-17 -4.36319e-17 20 -3.52481e-16 -5.1166e-16 20
-3.69575e-16 -7.77996e-16 20 -4.05393e-18 -2.47695e-16 20 2.53789e-17 4.32429e-16 20 1.18981e-16
6.44072e-16 20 5.5066e-16 4.63229e-16 20 7.90835e-16 3.89359e-16 20 7.92881e-16 4.55253e-16
20 6.1364e-16 6.03566e-16 20 3.04645e-16 3.98525e-16 20 -2.87962e-16 2.92617e-16 20
-5.04157e-16 1.11441e-15 20 -9.24102e-17 1.4269e-15 20 1.13392e-16 1.18581e-15 20 0
0 20 -2.03825e-16 -5.65995e-16 20 -3.56374e-16 -6.48783e-17 20 -4.586e-16 2.18405e-16
20 -1.98067e-16 -1.20916e-16 20 4.69569e-17 -3.15725e-16 20 -1.71e-17 -4.4099e-16 20
-1.05897e-16 -6.84065e-16 20 -1.47637e-16 -8.07677e-16 20 -7.15954e-17 -2.34359e-16 20 9.12443e-17
1.26385e-16 20 2.89444e-16 1.1079e-16 20 3.66302e-16 4.76388e-16 20 2.72804e-16 9.10223e-16
20 2.26517e-16 1.06208e-15 20 1.99641e-16 8.952e-16 20 1.27454e-16 3.72976e-16 20
-5.09614e-17 -3.67917e-17 20 -2.61419e-16 3.40211e-16 20 -1.87214e-16 6.21188e-16 20 1.33044e-17
3.96252e-16 20 0 0 20 8.96653e-17 -3.47961e-17 20 9.14249e-17 7.51151e-16
20 -4.35133e-19 1.21782e-15 20 1.43216e-16 4.34338e-16 20 2.0939e-16 -3.2174e-16 20
1.09869e-16 -5.61085e-16 20 9.52797e-17 -7.85283e-16 20 -3.34908e-16 -8.38388e-16 20 -9.07305e-16
-6.89261e-16 20 -6.68602e-16 -4.40165e-16 20 -8.53761e-17 -8.8025e-17 20 -9.24205e-17 4.39987e-16
20 -2.32312e-16 8.13688e-16 20 -1.18807e-16 9.20426e-16 20 -4.7153e-17 6.4939e-16 20
-7.97002e-17 2.84407e-16 20 -3.4517e-16 7.27638e-17 20 -3.95172e-16 -1.99729e-16 20 7.04758e-18
-3.02701e-16 20 2.5387e-16 -2.77022e-16 20 0 0 20 5.37917e-16 -9.03003e-17
20 5.88251e-16 5.21472e-16 20 8.24176e-17 1.02758e-15 20 6.41581e-17 7.36425e-16 20
2.12651e-16 7.12419e-17 20 1.58927e-16 -3.11625e-16 20 -1.23881e-16 8.95514e-17 20 -8.10982e-16
3.62097e-16 20 -1.50995e-15 -2.22725e-16 20 -1.35752e-15 -4.29743e-16 20 -9.21193e-16 -4.01799e-17
20 -9.72069e-16 2.9438e-16 20 -1.13141e-15 5.27072e-16 20 -1.01734e-15 4.97967e-16 20
-5.91615e-16 1.90783e-16 20 -4.0199e-16 1.34686e-18 20 -5.90507e-16 -3.00499e-16 20 -4.32476e-16
-7.35843e-16 20 9.18467e-17 -6.12192e-16 20 3.68075e-16 -2.74063e-16 20 0 0
20 4.73459e-16 -5.55104e-16 20 2.46856e-16 -5.1646e-16 20 -2.16025e-16 -3.46448e-16 20
-1.58534e-16 -9.1112e-17 20 1.05952e-16 -2.94873e-16 20 1.69871e-16 -8.05048e-16 20 -3.89465e-16
-1.34649e-16 20 -1.22058e-15 7.30164e-16 20 -1.60311e-15 2.16535e-16 20 -1.20871e-15 -3.13212e-16
20 -9.89295e-16 -7.59114e-17 20 -1.20378e-15 3.53286e-16 20 -1.41803e-15 5.83785e-16 20
-1.75239e-15 4.11858e-16 20 -1.44189e-15 -8.81084e-17 20 -6.88835e-16 -4.52037e-16 20 -5.60803e-16
-8.66065e-16 20 -7.76974e-16 -1.28287e-15 20 -6.45176e-16 -1.06958e-15 20 -4.40227e-16 -8.24302e-16
20 0 0 20 3.88061e-16 -1.29551e-17 20 1.96025e-16 -3.09298e-16 20
3.09894e-17 -4.43758e-16 20 1.0766e-16 -3.47949e-16 20 2.02039e-16 -4.1149e-16 20 1.45199e-16
-7.83181e-16 20 -6.72557e-16 -5.18779e-16 20 -1.74708e-15 2.16493e-16 20 -1.89097e-15 1.32745e-17
20 -1.09892e-15 -2.65557e-16 20 -7.54915e-16 -4.2152e-17 20 -8.67309e-16 2.81309e-16 20
-1.09112e-15 5.31115e-16 20 -1.62097e-15 4.4741e-16 20 -1.22123e-15 -1.4113e-16 20 -1.05656e-16
-6.88594e-16 20 -7.52062e-17 -8.36564e-16 20 -8.46569e-16 -1.08914e-15 20 -9.26438e-16 -1.15899e-15
20 -6.64134e-16 -1.12267e-15 20 9.57978e-17 0 20 4.97256e-16 0 20
5.9127e-16 0 20 4.61622e-16 0 20 2.88891e-16 0 20 1.4513e-16
0 20 -2.36608e-17 0 20 -1.00682e-15 0 20 -2.13956e-15 0
20 -2.03281e-15 0 20 -1.12993e-15 0 20 -9.24561e-16 0 20
-9.70122e-16 0 20 -1.22288e-15 0 20 -1.66281e-15 0 20 -9.16793e-16
0 20 1.94968e-16 0 20 4.62958e-17 0 20 -7.75519e-16 0
20 -8.16147e-16 0 20 -4.78057e-16 -4.44835e-16 
