/*--------------------------------*- C++ -*----------------------------------*\
  =========                 |
  \\      /  F ield         | OpenFOAM: The Open Source CFD Toolbox
   \\    /   O peration     | Website:  https://openfoam.org
    \\  /    A nd           | Version:  9
     \\/     M anipulation  |
\*---------------------------------------------------------------------------*/
FoamFile
{
    format      ascii;
    class       volScalarField;
    location    "76";
    object      ddt0(h);
}
// * * * * * * * * * * * * * * * * * * * * * * * * * * * * * * * * * * * * * //

dimensions      [0 1 -1 0 0 0 0];

internalField   nonuniform List<scalar> 
400
(
-1.06516e-08
1.58122e-08
1.36928e-09
-1.8272e-08
-5.25244e-09
-1.00129e-08
8.42659e-09
-1.42302e-09
7.7252e-09
-1.0589e-08
-3.55169e-10
7.24932e-09
7.71459e-09
2.68378e-09
-1.60347e-08
-1.51827e-08
-9.09249e-09
1.37448e-08
3.00827e-08
1.56237e-08
4.22566e-09
-1.29023e-09
-8.38518e-09
5.30684e-09
-2.95352e-10
8.51826e-11
5.88009e-09
2.77188e-09
-6.09354e-09
2.12397e-09
-8.28047e-09
3.76717e-09
-9.96821e-10
-5.18094e-09
-2.8508e-09
-1.37297e-08
-1.62022e-08
-8.69503e-09
-2.83297e-09
-3.68382e-09
3.49712e-09
-2.22682e-08
-2.6512e-09
2.48746e-08
2.31057e-09
1.40556e-08
-2.95768e-09
9.7577e-10
-9.50347e-09
-5.8097e-09
1.29119e-08
-1.66711e-08
2.66607e-09
-1.89277e-09
4.61703e-09
-1.58941e-09
-8.05533e-09
-1.30548e-08
-2.82681e-08
-1.6965e-08
1.54143e-09
-2.06522e-08
5.04769e-09
1.38028e-08
7.51225e-09
5.22636e-09
-2.03766e-09
-1.24286e-08
2.34866e-08
-6.10609e-09
2.02161e-08
3.87212e-08
-2.63149e-08
1.55452e-08
1.77072e-08
6.18278e-09
5.49906e-09
-6.31758e-09
-2.47553e-08
-1.49209e-08
4.4339e-09
-3.25514e-09
7.66226e-09
-4.21436e-09
-1.34928e-08
-2.03408e-10
-1.95886e-08
4.36218e-08
-3.39624e-08
1.3783e-07
-1.17504e-07
5.84988e-08
3.96908e-08
-3.10281e-08
1.26846e-08
2.29476e-08
1.85114e-08
1.13907e-08
3.41628e-09
7.02613e-10
8.74209e-09
1.26613e-08
9.89285e-09
-2.74427e-08
-2.10277e-08
-1.9739e-08
1.96785e-08
-7.57315e-10
5.63578e-08
-1.41952e-08
5.97176e-08
-2.25777e-07
5.31564e-08
3.98227e-08
-2.16091e-08
4.44668e-10
2.4281e-08
3.14459e-08
3.17386e-08
1.58743e-08
1.06814e-08
1.86498e-08
8.16753e-10
-2.95582e-08
-2.55463e-08
7.77975e-09
6.87349e-09
5.45403e-09
1.14932e-07
-4.45441e-07
2.51698e-07
-6.51298e-08
-2.20104e-07
-1.68679e-08
5.28158e-09
-1.16266e-08
3.83098e-09
2.57447e-08
3.71267e-08
1.98741e-08
9.64394e-09
9.22718e-09
-9.87552e-09
-2.55388e-08
4.58539e-09
1.10914e-08
3.24089e-09
1.98074e-08
-1.56155e-07
8.12076e-08
3.63356e-06
2.5239e-07
-3.61392e-08
-7.51034e-08
-2.30036e-08
-2.58892e-08
-2.51331e-08
-1.4006e-09
1.89892e-08
1.11702e-08
4.52525e-09
-6.17093e-09
-2.06042e-08
-4.34569e-09
1.83566e-08
2.64427e-08
-3.02717e-08
-6.38206e-08
1.30407e-07
-1.45511e-07
-3.58302e-06
-2.58395e-07
4.05234e-08
7.09182e-08
5.71346e-09
-2.50223e-08
-7.77476e-09
-2.95747e-08
-8.42415e-09
1.33675e-08
-2.35144e-09
-1.62596e-08
-1.86419e-08
1.18046e-08
2.98636e-08
-7.60663e-09
-2.16625e-08
-1.28471e-08
-1.26907e-07
4.92252e-07
-3.8129e-07
1.25257e-07
2.49351e-07
4.60085e-08
9.12361e-09
-7.21259e-09
-5.85744e-08
-2.91365e-08
-2.81106e-08
-2.57814e-08
-5.09069e-09
-1.33604e-08
-1.19225e-08
1.81898e-08
1.58093e-08
-1.54223e-08
-3.02529e-08
3.33501e-08
-1.54895e-08
-8.3098e-08
5.6905e-07
2.19985e-08
-5.63669e-08
-8.22847e-09
1.7521e-08
2.17348e-09
-8.66759e-09
-1.7283e-08
-1.9073e-08
-8.86031e-09
-6.69393e-09
3.3968e-11
-6.68221e-09
9.71247e-09
2.90973e-09
-1.68128e-08
-9.3244e-09
-9.35232e-09
7.30113e-08
-2.17424e-07
-9.84271e-07
4.32467e-07
-1.31512e-07
-4.43698e-10
9.16603e-09
3.92582e-09
-3.24829e-09
-3.80287e-09
-1.14965e-09
-1.10554e-09
-8.85162e-09
1.23881e-08
2.04013e-09
-9.15775e-09
1.33135e-10
-3.69603e-09
-5.22024e-10
-3.01466e-08
-4.16661e-08
1.36763e-07
9.3196e-07
-5.59931e-07
1.08603e-07
-1.228e-09
-2.06265e-08
-1.23558e-08
-1.14309e-08
-4.0731e-09
1.056e-08
8.10187e-09
-1.40438e-08
1.62511e-08
1.21234e-08
-1.81309e-08
-9.87881e-09
1.93303e-08
5.30566e-09
-3.49267e-08
-4.24991e-08
5.67519e-08
-4.60596e-07
2.06934e-07
-4.22393e-08
-3.09477e-08
-1.74639e-08
-1.2707e-08
-1.1196e-08
-2.82093e-09
2.16429e-08
1.72002e-08
-1.68604e-08
8.04548e-09
2.59253e-08
-1.31866e-08
-2.03738e-08
1.72434e-08
4.23591e-08
-2.82286e-08
-1.68063e-08
-8.32444e-08
7.06585e-08
-8.90014e-08
-2.63187e-08
-3.61593e-08
-3.83229e-08
-1.07402e-08
9.28964e-10
4.72056e-09
2.19906e-08
1.70052e-08
-1.0441e-08
-4.40113e-09
2.45756e-08
9.37291e-09
-2.95844e-08
-5.45577e-11
3.23969e-08
3.44896e-08
-3.20639e-08
1.64736e-08
-2.97007e-08
-2.25256e-08
-3.5683e-08
-5.43247e-08
-1.67169e-08
1.74576e-08
2.63732e-08
1.45731e-08
5.95506e-09
3.25938e-09
1.85817e-09
-1.06318e-08
7.7435e-09
2.19713e-08
-1.29255e-08
-2.62272e-08
6.94084e-09
3.25355e-08
2.56534e-08
2.18263e-08
7.06762e-09
8.91108e-09
-1.74612e-08
-1.72273e-09
2.25263e-08
3.56085e-08
4.22476e-08
1.73203e-08
-1.77503e-08
-1.52104e-08
9.14967e-09
-8.87441e-09
-5.04393e-09
1.7032e-08
6.43988e-09
-2.20972e-08
-2.11201e-08
5.83962e-09
2.21316e-08
1.817e-08
1.79494e-08
1.73761e-08
1.96568e-08
2.81785e-08
2.86974e-08
3.1095e-08
3.079e-08
3.28705e-09
-3.17938e-08
-2.23229e-08
7.737e-09
-3.45968e-09
-8.30561e-09
6.40748e-09
1.2136e-08
-1.65211e-09
-1.60107e-08
-6.33706e-09
3.01926e-09
-3.35412e-09
-2.67696e-09
8.60448e-09
1.95947e-08
1.02506e-08
-6.85686e-10
-2.98275e-09
-4.18015e-09
-1.22003e-08
-2.37199e-08
-1.44784e-08
5.95783e-09
2.09538e-09
-5.79306e-09
-2.87123e-09
1.16552e-08
8.84231e-09
8.56872e-10
-4.43928e-09
9.18846e-11
-1.55934e-08
-2.63386e-08
-6.34509e-09
3.93667e-09
-1.28546e-08
-3.0349e-08
-2.91987e-08
-2.39982e-08
-1.59118e-08
-9.19161e-09
-4.03968e-09
)
;

boundaryField
{
    sides
    {
        type            calculated;
        value           nonuniform List<scalar> 
40
(
5.95783e-09
2.09538e-09
-5.79306e-09
-2.87123e-09
1.16552e-08
8.84231e-09
8.56872e-10
-4.43928e-09
9.18846e-11
-1.55934e-08
-2.63386e-08
-6.34509e-09
3.93667e-09
-1.28546e-08
-3.0349e-08
-2.91987e-08
-2.39982e-08
-1.59118e-08
-9.19161e-09
-4.03968e-09
-1.06516e-08
1.58122e-08
1.36928e-09
-1.8272e-08
-5.25244e-09
-1.00129e-08
8.42659e-09
-1.42302e-09
7.7252e-09
-1.0589e-08
-3.55169e-10
7.24932e-09
7.71459e-09
2.68378e-09
-1.60347e-08
-1.51827e-08
-9.09249e-09
1.37448e-08
3.00827e-08
1.56237e-08
)
;
    }
    inlet
    {
        type            calculated;
        value           nonuniform List<scalar> 
20
(
-1.06516e-08
4.22566e-09
3.49712e-09
1.54143e-09
4.4339e-09
8.74209e-09
1.06814e-08
9.64394e-09
4.52525e-09
-2.35144e-09
-5.09069e-09
-6.69393e-09
-8.85162e-09
-1.40438e-08
-1.68604e-08
-1.0441e-08
1.85817e-09
9.14967e-09
7.737e-09
5.95783e-09
)
;
    }
    outlet
    {
        type            calculated;
        value           uniform 0;
    }
    frontAndBack
    {
        type            empty;
    }
}


// ************************************************************************* //
