/*--------------------------------*- C++ -*----------------------------------*\
  =========                 |
  \\      /  F ield         | OpenFOAM: The Open Source CFD Toolbox
   \\    /   O peration     | Website:  https://openfoam.org
    \\  /    A nd           | Version:  9
     \\/     M anipulation  |
\*---------------------------------------------------------------------------*/
FoamFile
{
    format      ascii;
    class       volVectorField;
    location    "76";
    object      ddt0(hU);
}
// * * * * * * * * * * * * * * * * * * * * * * * * * * * * * * * * * * * * * //

dimensions      [0 2 -2 0 0 0 0];

internalField   nonuniform List<vector> 
400
(
(-4.42e-09 -3.33179e-09 0)
(-6.64277e-09 -1.00528e-09 0)
(-2.38722e-09 2.19384e-09 0)
(3.00786e-10 1.4843e-09 0)
(2.91141e-10 7.11315e-11 0)
(-1.99451e-09 9.37828e-10 0)
(-5.35419e-10 -2.32434e-10 0)
(9.50295e-10 5.59065e-10 0)
(5.30994e-09 -9.26673e-10 0)
(3.10367e-09 -1.6407e-09 0)
(2.15452e-09 -1.57704e-09 0)
(-1.24698e-09 -2.10977e-09 0)
(-2.77774e-09 7.05286e-10 0)
(-1.64665e-09 8.63911e-11 0)
(-3.33274e-09 9.76862e-10 0)
(6.97482e-10 1.18493e-09 0)
(2.47628e-09 -6.59657e-10 0)
(-1.61046e-09 2.53684e-11 0)
(-2.09769e-10 3.23564e-09 0)
(4.46514e-09 1.27072e-09 0)
(-8.71605e-10 -6.77964e-09 0)
(-2.77371e-09 -1.33725e-09 0)
(-1.02633e-09 4.31335e-09 0)
(1.33083e-10 1.61597e-09 0)
(-1.4876e-10 4.52263e-10 0)
(-1.13915e-09 1.21509e-09 0)
(-8.06894e-10 7.63586e-10 0)
(1.00528e-09 1.01443e-09 0)
(1.53082e-09 -2.1518e-10 0)
(3.32124e-09 -3.24355e-09 0)
(7.12573e-10 -2.89005e-09 0)
(8.98946e-10 -3.74213e-09 0)
(-9.16911e-10 -1.03508e-09 0)
(-2.10451e-09 2.02426e-10 0)
(-1.232e-09 1.25484e-09 0)
(-1.26648e-09 2.20476e-09 0)
(4.84423e-10 -4.28812e-10 0)
(5.48932e-10 -1.1554e-09 0)
(-2.34838e-09 2.08373e-09 0)
(-2.94536e-09 1.91665e-09 0)
(2.21998e-09 -5.0264e-09 0)
(1.58262e-09 -6.79111e-10 0)
(-1.89058e-10 1.02597e-09 0)
(-3.01584e-10 -5.46845e-10 0)
(-2.54132e-10 9.74424e-10 0)
(9.44192e-10 1.21402e-09 0)
(-8.95801e-10 2.88136e-09 0)
(9.59954e-10 2.51878e-09 0)
(-9.96296e-10 -3.51783e-10 0)
(-1.6216e-10 4.96709e-11 0)
(2.5061e-09 -8.2398e-09 0)
(-1.23158e-09 -3.0987e-09 0)
(1.83884e-09 -4.34561e-09 0)
(5.21599e-10 -3.66769e-09 0)
(-4.72512e-11 -1.17791e-09 0)
(-8.52518e-10 6.25484e-10 0)
(-1.0951e-09 -1.47759e-10 0)
(-5.19314e-10 -2.11057e-09 0)
(-2.98315e-09 -1.39791e-09 0)
(-4.74281e-09 6.88207e-10 0)
(3.45018e-09 -1.18911e-09 0)
(3.14736e-09 -1.3379e-09 0)
(5.54164e-11 -4.26776e-09 0)
(-5.61121e-10 -2.59064e-09 0)
(1.14351e-09 1.04576e-09 0)
(1.46945e-09 2.77899e-09 0)
(1.18551e-09 4.14495e-09 0)
(-2.68975e-09 2.68448e-09 0)
(1.53174e-09 -2.33189e-09 0)
(-6.67007e-09 -3.26616e-09 0)
(-6.78664e-10 -5.9634e-10 0)
(9.43024e-09 -1.41834e-08 0)
(-2.52844e-09 -4.12424e-09 0)
(3.67311e-09 -6.50217e-09 0)
(4.04327e-09 -6.39202e-09 0)
(-5.8418e-11 -2.04213e-09 0)
(-4.94023e-10 4.66166e-10 0)
(1.21301e-09 8.02892e-11 0)
(-9.72476e-10 -1.3692e-10 0)
(-4.42507e-09 1.23751e-10 0)
(2.69511e-09 1.57367e-09 0)
(1.97557e-09 -2.20287e-09 0)
(-6.58568e-10 -6.50143e-09 0)
(2.76391e-10 -3.56879e-09 0)
(1.91954e-09 9.95323e-10 0)
(2.89835e-09 2.67791e-09 0)
(-7.86433e-10 3.12027e-09 0)
(9.22243e-11 -4.43554e-09 0)
(-1.0071e-08 2.71637e-09 0)
(1.4217e-08 -1.90441e-08 0)
(-2.2235e-08 1.17578e-08 0)
(3.35146e-09 -5.77311e-09 0)
(1.57503e-08 -1.28659e-08 0)
(-4.18613e-09 -2.38631e-09 0)
(3.73308e-09 -3.59202e-09 0)
(6.20243e-09 -3.04914e-09 0)
(3.22491e-09 7.79688e-11 0)
(3.4289e-09 2.13185e-11 0)
(1.98183e-09 -1.97072e-09 0)
(-2.74402e-09 -1.07571e-09 0)
(1.27165e-09 1.97611e-09 0)
(-2.85546e-10 -2.47683e-09 0)
(-8.43916e-10 -4.8615e-09 0)
(7.6167e-10 -1.76852e-09 0)
(2.72083e-09 6.93345e-10 0)
(1.42416e-09 5.49202e-10 0)
(-1.65051e-09 -4.14404e-09 0)
(-7.23314e-10 -2.74415e-09 0)
(-9.88128e-09 -1.31587e-08 0)
(-1.4638e-09 1.14806e-08 0)
(1.69182e-08 -1.3509e-08 0)
(-4.13282e-08 4.49909e-08 0)
(1.0892e-08 1.8714e-09 0)
(1.65673e-08 -5.32397e-09 0)
(-2.33212e-09 1.54128e-09 0)
(3.71781e-10 8.38182e-10 0)
(3.95407e-09 7.29889e-11 0)
(5.34104e-09 -1.87494e-09 0)
(5.73712e-09 -4.6721e-09 0)
(2.19186e-09 -2.69581e-09 0)
(1.75001e-10 7.87889e-10 0)
(-1.06096e-09 -2.12429e-09 0)
(-5.35249e-10 -1.32629e-09 0)
(1.17887e-09 9.91777e-10 0)
(1.16138e-09 -5.2167e-11 0)
(-7.79282e-10 -3.59928e-09 0)
(4.41811e-10 -5.92841e-09 0)
(-1.10387e-08 -3.11546e-09 0)
(1.78574e-08 -1.07963e-08 0)
(-4.5736e-08 4.63189e-08 0)
(4.58079e-08 -5.44381e-08 0)
(1.00877e-08 1.02439e-08 0)
(-6.03668e-08 2.60704e-08 0)
(-2.13828e-09 4.05066e-09 0)
(7.90671e-09 2.5768e-09 0)
(-1.48715e-09 5.11774e-09 0)
(-1.57618e-09 3.41335e-09 0)
(2.45231e-09 -8.6079e-10 0)
(6.27749e-09 -4.30532e-09 0)
(5.86235e-09 -2.78396e-09 0)
(1.43318e-10 -1.94784e-10 0)
(-5.02926e-10 -1.33559e-09 0)
(3.84255e-10 1.41525e-09 0)
(2.25468e-10 1.9392e-09 0)
(-1.06413e-09 -1.564e-09 0)
(-1.14973e-09 -5.23673e-09 0)
(-1.06259e-09 -3.77729e-09 0)
(-2.18975e-09 4.18233e-10 0)
(1.58856e-08 2.15102e-08 0)
(-3.38464e-08 -3.06378e-08 0)
(3.39068e-07 6.95186e-08 0)
(9.09034e-08 -2.44225e-08 0)
(-3.02853e-09 -7.76574e-09 0)
(-1.85395e-08 1.20249e-08 0)
(-2.70891e-09 8.89992e-09 0)
(-3.72014e-09 7.11027e-09 0)
(-7.59672e-09 4.9556e-09 0)
(-3.62687e-09 2.58049e-09 0)
(3.44326e-09 -7.49921e-10 0)
(6.41643e-09 -1.70464e-09 0)
(2.7149e-10 1.46481e-11 0)
(6.94345e-10 -3.57727e-10 0)
(6.44303e-10 1.87391e-09 0)
(-9.7763e-10 7.826e-10 0)
(-3.11398e-09 -3.20449e-09 0)
(-1.02972e-09 -2.44419e-09 0)
(3.86373e-09 8.22495e-10 0)
(8.32245e-09 4.00755e-09 0)
(-9.94446e-09 1.73509e-08 0)
(2.6951e-08 -3.41284e-08 0)
(-3.33689e-07 6.32462e-08 0)
(-8.83771e-08 -3.596e-08 0)
(6.29233e-09 -1.04745e-08 0)
(2.40337e-08 2.42687e-09 0)
(1.53031e-09 1.08878e-09 0)
(-8.74122e-09 3.30989e-09 0)
(-7.8123e-09 7.36345e-09 0)
(-7.154e-09 7.23206e-09 0)
(-2.25733e-09 3.58198e-09 0)
(4.90401e-09 1.49605e-09 0)
(1.33099e-10 1.08273e-09 0)
(1.12889e-09 2.09441e-10 0)
(6.62993e-10 3.55902e-10 0)
(-2.35582e-09 -1.16818e-09 0)
(-2.90681e-09 -2.38662e-09 0)
(1.08926e-09 8.53915e-10 0)
(3.85028e-09 5.31582e-09 0)
(1.20585e-08 8.51308e-11 0)
(-1.80627e-08 -1.17169e-08 0)
(5.14373e-08 2.40677e-08 0)
(-6.48885e-08 -5.31345e-08 0)
(2.14792e-10 2.15721e-09 0)
(6.71232e-08 1.26973e-08 0)
(5.39534e-09 -7.79913e-09 0)
(4.66196e-10 -8.42027e-09 0)
(3.10801e-09 -3.34925e-09 0)
(-7.39622e-09 3.39747e-09 0)
(-9.23425e-09 4.87964e-09 0)
(-6.99864e-09 3.51805e-09 0)
(-3.88217e-09 1.97587e-09 0)
(-7.65106e-10 1.62378e-09 0)
(3.93457e-10 4.73329e-11 0)
(1.37148e-10 -1.60953e-09 0)
(-2.08258e-09 -1.70251e-09 0)
(-1.95184e-09 1.83562e-10 0)
(2.43419e-09 3.38196e-09 0)
(3.64223e-09 9.2991e-10 0)
(9.59963e-10 1.90642e-09 0)
(1.01057e-09 -1.67357e-08 0)
(-1.1241e-08 2.00512e-08 0)
(6.03257e-08 -1.89947e-07 0)
(1.38972e-08 3.84237e-08 0)
(-1.32676e-08 -1.62417e-09 0)
(-5.1436e-09 -8.17793e-09 0)
(6.72426e-09 -2.57023e-09 0)
(5.1969e-09 -4.26245e-09 0)
(1.71533e-10 -4.61381e-09 0)
(-5.66244e-09 -1.99527e-09 0)
(-6.24679e-09 2.57622e-10 0)
(-2.49898e-09 -1.62967e-10 0)
(-2.0622e-09 4.43726e-10 0)
(-8.38014e-10 -7.33913e-11 0)
(5.78836e-11 -2.34751e-09 0)
(-6.50945e-10 -5.13861e-10 0)
(-4.1705e-10 3.35347e-09 0)
(7.82138e-10 3.05199e-09 0)
(3.06676e-09 -9.74164e-10 0)
(-4.5916e-09 -4.11171e-09 0)
(2.2739e-08 9.79825e-09 0)
(-2.12285e-07 -2.4144e-08 0)
(-1.23932e-07 2.1724e-07 0)
(2.52217e-07 -4.15277e-09 0)
(-2.0663e-08 -4.63151e-09 0)
(-7.73511e-10 9.05996e-09 0)
(4.6012e-09 3.9481e-09 0)
(2.11913e-09 -2.99083e-09 0)
(2.62817e-10 -6.9491e-09 0)
(-2.50844e-09 -5.2454e-09 0)
(-2.44978e-09 -1.49517e-09 0)
(2.08964e-10 -1.5602e-10 0)
(-2.76229e-09 -1.74008e-09 0)
(-1.26153e-09 4.46812e-10 0)
(8.59885e-10 -8.11933e-10 0)
(1.74086e-09 4.46214e-10 0)
(7.63324e-10 5.01441e-09 0)
(-1.09413e-09 3.4071e-09 0)
(-1.68478e-09 -1.44751e-09 0)
(4.53419e-09 -2.2732e-09 0)
(-2.143e-08 4.78727e-09 0)
(2.16301e-07 -4.48767e-09 0)
(1.27948e-07 1.84277e-07 0)
(-2.77654e-07 2.98686e-10 0)
(1.68199e-08 9.26085e-09 0)
(4.75945e-09 9.26641e-09 0)
(-8.97473e-09 3.91797e-09 0)
(-6.46556e-09 -2.73198e-09 0)
(-2.44416e-09 -7.45561e-09 0)
(-3.20046e-10 -4.96827e-09 0)
(1.57517e-09 4.01138e-10 0)
(3.18934e-09 1.25703e-09 0)
(-2.34826e-09 -2.98874e-09 0)
(-2.01612e-10 1.6729e-09 0)
(1.53201e-09 2.06306e-09 0)
(3.80099e-09 1.67836e-10 0)
(2.4618e-09 3.04642e-09 0)
(-2.58954e-09 4.64425e-09 0)
(-2.73718e-09 1.4266e-09 0)
(-1.99393e-09 -6.90133e-10 0)
(8.80775e-09 -4.88046e-09 0)
(-5.61147e-09 1.73936e-08 0)
(-5.41051e-08 -2.07938e-07 0)
(4.5569e-08 3.42205e-10 0)
(-2.48469e-09 2.43776e-09 0)
(-9.63486e-09 -1.03615e-09 0)
(-9.26484e-09 -2.32348e-09 0)
(-9.48504e-09 -5.0597e-09 0)
(-2.78128e-09 -5.96529e-09 0)
(3.3219e-09 -1.75271e-09 0)
(5.42668e-09 4.58619e-09 0)
(3.21686e-09 3.44508e-09 0)
(-8.20812e-10 -1.99803e-09 0)
(1.27502e-09 2.44749e-09 0)
(1.32217e-09 4.68798e-09 0)
(4.06176e-09 -1.25164e-10 0)
(4.674e-09 -1.41714e-09 0)
(-1.1299e-09 2.66902e-09 0)
(-4.64337e-09 6.21595e-09 0)
(-2.58761e-09 4.19814e-10 0)
(7.18566e-10 -6.32274e-10 0)
(-3.89401e-09 -1.51061e-08 0)
(1.41217e-08 1.00202e-08 0)
(-1.13815e-08 -9.40507e-09 0)
(-1.74561e-09 -1.00534e-08 0)
(-4.79614e-09 -6.44203e-09 0)
(-1.34852e-08 -7.71399e-09 0)
(-8.06335e-09 -5.06768e-09 0)
(2.21704e-09 -1.72347e-09 0)
(8.57897e-09 2.20424e-09 0)
(6.89781e-09 6.7628e-09 0)
(-8.58125e-10 4.03754e-09 0)
(7.95899e-10 3.92327e-10 0)
(2.01471e-09 2.32382e-09 0)
(-7.89373e-12 5.27323e-09 0)
(2.33814e-09 1.68588e-09 0)
(4.83691e-09 -4.93011e-09 0)
(2.58634e-09 -2.27198e-09 0)
(-4.20812e-09 4.81941e-09 0)
(-3.31416e-09 7.9326e-09 0)
(-4.57516e-09 -5.10614e-10 0)
(2.52605e-09 3.07084e-10 0)
(-2.53766e-09 -1.09404e-08 0)
(4.5076e-10 -1.013e-08 0)
(-8.6421e-10 -6.50174e-09 0)
(-1.03236e-08 -9.80612e-09 0)
(-6.60489e-09 -5.58603e-09 0)
(1.75595e-09 7.92796e-10 0)
(8.46197e-09 4.05405e-09 0)
(1.07699e-08 4.48394e-09 0)
(4.18759e-09 4.54464e-09 0)
(-6.35133e-09 1.92313e-09 0)
(1.7271e-09 2.10341e-09 0)
(1.47514e-09 2.10577e-09 0)
(-1.07922e-09 4.00031e-09 0)
(-6.48642e-10 3.81498e-09 0)
(2.89584e-09 -3.36775e-09 0)
(3.73389e-09 -6.8686e-09 0)
(7.01341e-11 -1.49748e-09 0)
(-3.02629e-09 6.09043e-09 0)
(-2.02146e-09 5.86308e-09 0)
(-1.25255e-09 4.60049e-09 0)
(-1.78314e-09 1.12388e-09 0)
(1.92913e-09 1.26254e-09 0)
(-2.58316e-09 -3.15675e-09 0)
(-1.48105e-09 -1.70118e-09 0)
(4.64604e-09 3.357e-09 0)
(8.52473e-09 6.99096e-09 0)
(1.02717e-08 7.05296e-09 0)
(7.5235e-09 3.20698e-09 0)
(-1.53976e-09 -8.55102e-10 0)
(-8.98647e-09 -1.48543e-09 0)
(1.77129e-09 2.03182e-09 0)
(7.02976e-10 1.85545e-09 0)
(-1.07305e-09 2.53505e-09 0)
(-2.38733e-09 4.30074e-09 0)
(-9.24445e-10 7.98086e-10 0)
(1.64649e-09 -6.30748e-09 0)
(1.59937e-09 -7.15329e-09 0)
(1.36964e-10 -2.08068e-09 0)
(7.66143e-11 2.89441e-09 0)
(-1.73545e-11 3.78988e-09 0)
(-1.22588e-11 7.59615e-09 0)
(-7.18635e-10 6.64883e-09 0)
(-4.26529e-10 4.42491e-09 0)
(3.73625e-09 5.92047e-09 0)
(7.96258e-09 7.6494e-09 0)
(8.87653e-09 7.26874e-09 0)
(5.34481e-09 4.00137e-09 0)
(-8.49965e-10 -1.44204e-09 0)
(-6.16337e-09 -5.71108e-09 0)
(-6.06307e-09 -3.67821e-09 0)
(1.25557e-09 5.44982e-10 0)
(6.03568e-10 1.10791e-09 0)
(-3.36523e-11 1.35137e-09 0)
(-2.38464e-09 3.46624e-09 0)
(-4.0506e-09 2.81668e-09 0)
(-2.3436e-09 -2.55439e-09 0)
(4.5476e-10 -7.13832e-09 0)
(2.27128e-09 -6.20172e-09 0)
(2.3079e-09 -2.93727e-09 0)
(2.47154e-09 -3.9146e-10 0)
(1.09692e-09 2.06418e-09 0)
(-2.16648e-09 3.50793e-09 0)
(-1.27574e-09 3.50393e-09 0)
(2.43593e-09 4.24701e-09 0)
(4.76042e-09 4.77779e-09 0)
(2.65823e-09 2.34411e-09 0)
(-2.9719e-09 -1.47381e-09 0)
(-7.2837e-09 -4.50057e-09 0)
(-5.7154e-09 -6.0649e-09 0)
(5.77776e-10 -3.3031e-09 0)
(1.18813e-09 -2.22645e-10 0)
(1.39519e-09 2.84115e-10 0)
(1.29647e-09 4.08057e-10 0)
(-1.95328e-09 1.37591e-09 0)
(-5.65684e-09 1.49321e-09 0)
(-5.53762e-09 -4.36508e-10 0)
(-8.61671e-10 -2.68796e-09 0)
(2.75171e-09 -3.14064e-09 0)
(4.11504e-09 -2.20003e-09 0)
(2.59581e-09 -1.14371e-09 0)
(2.28266e-11 -1.15569e-09 0)
(-2.15722e-09 -9.21488e-12 0)
(-2.27722e-09 4.47298e-10 0)
(5.68507e-10 8.57848e-10 0)
(8.33708e-10 1.02036e-09 0)
(-2.42113e-09 -2.83777e-10 0)
(-6.92282e-09 -1.7241e-09 0)
(-8.67338e-09 -2.305e-09 0)
(-3.33908e-09 -2.37177e-09 0)
(5.37133e-09 -1.22906e-09 0)
)
;

boundaryField
{
    sides
    {
        type            calculated;
        value           nonuniform List<vector> 
40
(
(1.18813e-09 0 0)
(1.39519e-09 0 0)
(1.29647e-09 0 0)
(-1.95328e-09 0 0)
(-5.65684e-09 0 0)
(-5.53762e-09 0 0)
(-8.61671e-10 0 0)
(2.75171e-09 0 0)
(4.11504e-09 0 0)
(2.59581e-09 0 0)
(2.28266e-11 0 0)
(-2.15722e-09 0 0)
(-2.27722e-09 0 0)
(5.68507e-10 0 0)
(8.33708e-10 0 0)
(-2.42113e-09 0 0)
(-6.92282e-09 0 0)
(-8.67338e-09 0 0)
(-3.33908e-09 0 0)
(5.37133e-09 0 0)
(-4.42e-09 0 0)
(-6.64277e-09 0 0)
(-2.38722e-09 0 0)
(3.00786e-10 0 0)
(2.91141e-10 0 0)
(-1.99451e-09 0 0)
(-5.35419e-10 0 0)
(9.50295e-10 0 0)
(5.30994e-09 0 0)
(3.10367e-09 0 0)
(2.15452e-09 0 0)
(-1.24698e-09 0 0)
(-2.77774e-09 0 0)
(-1.64665e-09 0 0)
(-3.33274e-09 0 0)
(6.97482e-10 0 0)
(2.47628e-09 0 0)
(-1.61046e-09 0 0)
(-2.09769e-10 0 0)
(4.46514e-09 0 0)
)
;
    }
    inlet
    {
        type            calculated;
        value           uniform (0 0 0);
    }
    outlet
    {
        type            calculated;
        value           nonuniform List<vector> 
20
(
(4.46514e-09 1.27072e-09 0)
(-2.94536e-09 1.91665e-09 0)
(-4.74281e-09 6.88207e-10 0)
(-4.42507e-09 1.23751e-10 0)
(-2.74402e-09 -1.07571e-09 0)
(2.19186e-09 -2.69581e-09 0)
(5.86235e-09 -2.78396e-09 0)
(6.41643e-09 -1.70464e-09 0)
(4.90401e-09 1.49605e-09 0)
(-3.88217e-09 1.97587e-09 0)
(-2.49898e-09 -1.62967e-10 0)
(2.08964e-10 -1.5602e-10 0)
(3.18934e-09 1.25703e-09 0)
(3.21686e-09 3.44508e-09 0)
(-8.58125e-10 4.03754e-09 0)
(-6.35133e-09 1.92313e-09 0)
(-8.98647e-09 -1.48543e-09 0)
(-6.06307e-09 -3.67821e-09 0)
(5.77776e-10 -3.3031e-09 0)
(5.37133e-09 -1.22906e-09 0)
)
;
    }
    frontAndBack
    {
        type            empty;
    }
}


// ************************************************************************* //
