/*--------------------------------*- C++ -*----------------------------------*\
  =========                 |
  \\      /  F ield         | OpenFOAM: The Open Source CFD Toolbox
   \\    /   O peration     | Website:  https://openfoam.org
    \\  /    A nd           | Version:  9
     \\/     M anipulation  |
\*---------------------------------------------------------------------------*/
FoamFile
{
    format      ascii;
    class       surfaceScalarField;
    location    "76";
    object      ddtCorrDdt0(phi);
}
// * * * * * * * * * * * * * * * * * * * * * * * * * * * * * * * * * * * * * //

dimensions      [0 4 -2 0 0 0 0];

internalField   nonuniform List<scalar> 
760
(
-4.0799e-11
-2.68401e-11
-3.32337e-11
-2.99338e-12
6.49242e-12
2.6749e-11
5.4358e-12
7.66565e-12
-7.44469e-12
-7.60445e-12
-6.7915e-12
5.90937e-12
-5.76834e-12
-5.15795e-12
2.05163e-11
6.6034e-12
2.57366e-11
-6.3305e-12
1.30299e-11
-1.56711e-11
7.92082e-12
-3.89846e-12
-2.35749e-11
-2.24578e-11
-5.22324e-12
1.13872e-11
-1.53109e-11
2.60874e-12
-1.23876e-11
9.3961e-12
2.2013e-11
1.26374e-11
7.54354e-12
-9.84365e-13
-2.53378e-11
1.29182e-12
1.25538e-11
1.41243e-11
1.83814e-11
-1.95933e-11
-3.28543e-11
-4.39546e-12
5.80027e-13
1.30797e-13
2.25901e-11
-5.64269e-12
-1.2366e-12
4.98974e-12
2.10768e-12
-1.49394e-11
8.34921e-13
5.09463e-12
9.2026e-12
3.89485e-12
3.96497e-12
1.65142e-11
1.01007e-11
1.12801e-11
-1.36053e-11
6.8502e-13
-3.77707e-11
4.28648e-12
-7.37682e-12
-1.27232e-11
-1.56271e-11
-6.24706e-12
1.36817e-12
-1.03834e-11
2.71046e-12
-1.45753e-13
8.62114e-12
8.35983e-12
-1.45568e-12
-2.95638e-12
-7.59318e-12
-2.27404e-11
8.32915e-12
6.52291e-12
1.26108e-11
-1.56012e-11
1.86438e-11
-2.99319e-12
-1.75895e-11
-1.13486e-11
-1.43618e-12
-6.50336e-12
7.01394e-12
5.75723e-12
-4.43493e-12
9.24165e-12
1.64648e-12
1.91322e-11
5.1167e-12
2.2976e-11
-1.21067e-11
-1.22613e-11
1.38036e-11
1.77361e-11
-1.93492e-12
-8.25348e-11
3.35129e-12
-1.92953e-11
1.0147e-11
-2.86006e-11
-2.32704e-12
-3.64446e-11
-2.17721e-12
-1.57987e-11
-7.77644e-12
-4.21751e-12
-3.34607e-12
-2.06683e-12
-3.4006e-12
-4.82085e-12
-1.674e-11
-5.07931e-12
1.15754e-12
3.06575e-11
4.12386e-12
1.4318e-11
-1.06801e-11
-1.7001e-11
-3.28618e-11
5.18112e-12
-1.93519e-11
6.93133e-12
6.06522e-12
6.8267e-12
2.01962e-11
5.70114e-12
2.52726e-11
-2.04799e-11
5.30986e-12
1.77965e-11
-1.13306e-11
-7.2641e-11
-5.33003e-11
6.7202e-11
8.55145e-11
3.09135e-12
-1.25834e-10
2.4808e-12
-1.69723e-11
2.51403e-11
-2.83977e-11
8.81968e-12
-4.77168e-11
-6.98023e-12
-1.90728e-11
-1.61635e-12
2.00552e-12
1.2034e-11
-2.92988e-12
-1.16782e-11
-1.28872e-11
-6.56723e-12
2.4524e-11
1.17857e-11
-1.4566e-12
-1.30937e-11
-1.03624e-11
-3.42617e-11
1.43464e-11
-1.66079e-11
1.10227e-11
6.37877e-12
1.06594e-11
1.05754e-11
1.40787e-12
7.79362e-12
-3.57837e-11
-5.06788e-11
-2.87912e-12
4.21036e-11
3.14904e-11
-1.70373e-10
-1.40883e-10
4.40313e-11
1.34465e-10
1.05835e-10
-8.83906e-13
-1.15716e-10
-6.48745e-12
-7.85286e-12
3.59067e-11
1.5228e-11
1.84934e-11
-1.01697e-11
1.26424e-11
-6.80044e-12
2.24337e-11
-1.05206e-11
-3.9897e-13
-2.49037e-11
-1.37707e-11
8.12938e-12
7.66536e-12
-1.60691e-11
-1.31291e-11
-6.27146e-13
-1.51821e-11
2.27701e-11
-9.42764e-13
5.18667e-12
2.17084e-12
1.77051e-11
-3.47926e-12
-5.09897e-11
-5.20264e-11
6.22103e-11
2.78774e-11
-1.98699e-10
-1.98615e-10
2.30417e-10
3.76153e-10
-1.6354e-10
-2.44903e-10
-9.26196e-11
3.65142e-10
1.27326e-10
1.64982e-10
1.36334e-11
-3.86142e-11
-8.00881e-12
7.66967e-12
1.35178e-11
2.46965e-11
1.98893e-11
8.88902e-12
2.98891e-11
-9.30398e-12
2.14537e-11
-2.56055e-11
-1.48894e-11
-5.17275e-12
-2.20243e-13
-1.57415e-11
-7.75492e-12
8.35038e-12
3.21832e-12
1.7623e-11
1.20133e-11
2.73142e-12
-3.83249e-12
-2.24316e-11
-3.57857e-11
3.03305e-11
-8.9004e-12
-1.31414e-10
-6.80531e-11
1.51295e-10
1.29933e-10
-2.70296e-10
1.48042e-10
4.55661e-10
-3.67689e-10
-3.39735e-10
-3.0489e-10
-1.30683e-10
1.30142e-10
4.86294e-11
1.07576e-10
1.12759e-11
3.07969e-11
-1.18709e-11
2.87471e-11
-5.52835e-13
2.78201e-11
1.95878e-11
1.10143e-11
3.23455e-11
-1.20232e-11
-1.05929e-11
-7.16373e-12
-1.62693e-12
-5.55267e-12
-3.29917e-12
1.32776e-11
1.38656e-11
5.36038e-12
7.46748e-12
-2.41384e-11
-1.47318e-11
7.5461e-12
-2.20759e-11
-1.49194e-11
-2.57955e-11
-5.36211e-11
1.07357e-10
3.19376e-10
-3.20286e-11
1.54321e-10
-5.51809e-10
1.53731e-09
-1.05561e-08
1.32864e-10
2.07157e-10
-1.16381e-10
-2.43379e-10
-3.63998e-11
-2.92223e-11
-5.75176e-12
2.37306e-11
-3.03507e-11
2.39057e-11
-3.56732e-11
3.14012e-11
-2.97612e-12
3.07055e-11
2.53172e-11
1.0233e-11
-3.51258e-12
-4.36339e-12
3.11044e-12
9.11548e-12
2.51197e-12
9.00449e-12
7.24603e-12
-1.44226e-11
-2.07253e-12
-2.52233e-11
-2.01598e-11
-7.28566e-12
2.40124e-12
5.86661e-11
3.51962e-11
8.3701e-11
-5.49269e-11
-3.06489e-10
1.12317e-10
-1.96661e-10
5.18469e-11
-1.48316e-09
-3.50769e-11
-1.47114e-10
-4.3094e-10
1.56801e-10
9.51989e-11
4.59004e-11
3.04516e-11
-2.12918e-11
-1.50168e-11
-4.92107e-11
-8.41838e-12
-3.42361e-11
-2.05604e-09
-2.95525e-11
3.88936e-11
2.65586e-12
2.72386e-11
4.58099e-10
-6.50846e-13
8.99152e-12
1.48037e-11
8.32479e-13
3.5566e-12
-3.4685e-12
-3.10446e-11
-1.20546e-11
-1.7377e-11
-3.5581e-12
3.51395e-11
1.50591e-11
7.61231e-12
1.56095e-11
1.02966e-10
1.65088e-11
-1.0444e-10
-1.74576e-10
2.17887e-10
1.99999e-10
-5.01076e-10
-2.05937e-10
4.3616e-10
3.99053e-10
1.15952e-10
6.53756e-11
-5.79928e-12
-4.76349e-11
2.46036e-11
-2.38002e-11
-2.99219e-12
-2.42981e-11
-5.0943e-11
-1.46296e-11
-4.90339e-11
9.94377e-13
-2.02035e-11
4.03574e-12
-1.55993e-12
-6.19818e-12
6.70822e-12
1.28491e-11
-1.66006e-12
-2.68192e-12
-1.38369e-11
-2.78768e-11
-4.06868e-12
-2.89288e-12
8.41744e-12
3.55327e-11
2.27609e-11
2.37185e-11
-1.0233e-11
-4.93875e-11
1.13926e-11
5.46381e-11
-4.48114e-11
2.29595e-11
1.47953e-10
2.70173e-10
-2.03082e-09
-1.61184e-11
4.80534e-11
-7.88802e-11
-5.34495e-11
1.96426e-11
-1.70542e-11
3.47412e-11
2.85806e-12
2.11931e-11
-2.31877e-11
-1.76462e-11
-3.4487e-11
-3.84115e-11
-2.19908e-11
-2.01671e-11
-9.29719e-12
-3.13874e-12
-1.4656e-11
-3.19571e-12
1.70374e-12
-1.20617e-12
4.80791e-12
-1.08284e-11
-1.68663e-11
2.54879e-12
7.94916e-12
2.70702e-11
7.17713e-12
6.98385e-12
2.77149e-11
1.25332e-12
-4.93266e-11
-4.03969e-11
1.64915e-10
1.85575e-10
-2.44474e-09
-3.60076e-10
1.88441e-09
5.85604e-08
2.18071e-11
-1.4435e-10
-4.01044e-11
1.16008e-11
1.9694e-11
8.07433e-11
1.23753e-11
2.83787e-11
1.15444e-11
-6.25209e-12
-5.12003e-12
-3.22519e-11
-2.02395e-11
-2.83206e-11
-6.40392e-12
-7.94673e-12
2.20886e-13
-1.5459e-11
-1.3894e-11
-8.93728e-12
5.01992e-12
1.63748e-11
2.02799e-12
9.91458e-12
3.83041e-12
-5.46848e-12
2.47839e-11
-5.86396e-12
2.20586e-11
-2.31236e-11
-1.32266e-11
6.95142e-11
2.38972e-11
-2.17402e-10
-9.38295e-11
2.58252e-09
3.81147e-10
-2.00544e-09
-2.92447e-09
-1.15676e-10
3.87161e-11
7.34872e-11
1.08036e-10
-2.50558e-11
-1.97186e-12
-4.61505e-11
2.75185e-12
-2.09989e-11
-1.66664e-11
-7.46867e-13
-2.98585e-11
-1.48376e-12
-1.8603e-11
1.00419e-11
1.20005e-11
1.17555e-11
-2.8672e-12
-1.50964e-11
-1.38208e-11
1.30058e-11
2.03274e-11
1.81398e-11
3.34275e-11
-2.6848e-12
-1.28287e-12
7.03746e-12
-4.15715e-11
2.41257e-11
3.82692e-12
2.48551e-11
-9.61566e-12
-3.18458e-11
1.28333e-10
2.70136e-11
-3.47651e-10
-1.37471e-10
1.19488e-10
2.40391e-10
8.68117e-11
3.18014e-11
-4.5171e-11
-5.66575e-11
-3.92552e-11
8.06728e-13
-5.93836e-11
-2.16708e-11
-3.68567e-11
-3.35562e-11
1.17565e-11
-2.47177e-11
2.51769e-11
1.84022e-12
1.85569e-11
3.38266e-11
2.1967e-11
1.57772e-11
-4.54277e-12
-1.06063e-11
1.27846e-11
5.77128e-12
2.91905e-11
4.75991e-11
-1.31328e-13
1.57418e-11
-2.17298e-11
-3.48846e-11
5.82359e-12
-4.1856e-11
3.86504e-11
4.02991e-11
2.46586e-11
-4.97274e-11
-2.97695e-11
6.75587e-11
-2.06907e-11
-1.04983e-11
7.72659e-11
-4.45087e-11
-1.0375e-10
1.00742e-11
-2.78127e-11
-5.78075e-11
-5.35123e-11
-6.69588e-11
-5.03651e-11
-1.95811e-11
-1.8296e-11
3.91016e-11
4.05821e-12
5.08504e-11
1.87671e-11
1.08687e-11
3.39302e-11
1.84914e-11
2.27375e-11
8.28748e-12
6.48765e-13
1.0027e-11
-1.55997e-11
2.43454e-11
3.33586e-11
1.63627e-11
3.80456e-11
-3.01215e-11
-1.09444e-11
-2.65702e-11
-4.52683e-11
1.45034e-11
-5.8499e-12
5.39091e-11
-6.05735e-12
2.20977e-11
7.94712e-12
9.46681e-12
-2.45628e-11
-4.68512e-11
2.46264e-11
-2.08893e-11
-3.26298e-11
-4.78178e-11
-5.21792e-11
-4.61087e-11
-1.54377e-11
-8.95249e-12
2.20769e-11
1.98926e-11
5.5779e-11
3.02675e-11
5.43187e-11
2.26138e-11
-9.10258e-12
1.1732e-11
1.72658e-12
1.56823e-11
1.27759e-11
8.02945e-12
9.84853e-12
-2.10303e-11
1.57996e-11
-1.71583e-12
2.25487e-11
3.88438e-11
-5.47959e-12
1.42686e-11
-4.3498e-11
-1.70962e-11
-2.77721e-11
-2.41813e-11
1.21991e-11
5.53168e-12
4.12926e-11
-2.15844e-11
3.1807e-11
7.36315e-12
1.01236e-11
5.16216e-12
2.61868e-11
-1.74889e-11
8.26472e-12
6.89313e-12
2.17934e-11
3.51944e-11
3.80753e-11
4.57302e-11
4.62752e-11
4.6088e-11
3.69291e-11
2.75253e-11
7.43658e-12
-2.79533e-11
-1.95791e-11
-1.54679e-11
5.67617e-12
7.98986e-12
1.00728e-11
7.78501e-12
-1.47073e-11
8.65757e-12
-2.21564e-11
2.17477e-11
6.84244e-12
1.42909e-11
2.10623e-11
-2.32867e-11
4.22487e-12
-4.84764e-11
-7.17561e-12
-3.12828e-11
1.99012e-13
-1.79286e-12
1.27742e-13
1.80833e-11
7.75333e-13
3.35776e-11
-7.19422e-12
3.59121e-11
5.1718e-12
3.35017e-11
3.1504e-11
3.80199e-11
4.88576e-11
4.21934e-11
3.69741e-11
3.10157e-11
5.86334e-12
7.38473e-12
-1.47276e-11
-1.88193e-11
-2.92556e-11
-3.67433e-11
-2.12814e-11
6.6244e-13
7.96093e-13
1.00781e-11
3.16035e-12
-2.80896e-12
3.04399e-12
-2.65857e-11
1.44051e-11
-2.21897e-11
1.57406e-11
2.61323e-13
-5.24188e-12
1.41352e-11
-3.03179e-11
8.21704e-12
-3.32663e-11
8.67532e-12
-2.11086e-11
1.80246e-11
-7.28294e-12
-4.0462e-12
9.01487e-12
-1.77592e-11
1.31537e-11
-5.23306e-13
1.24288e-11
2.48629e-11
1.61819e-11
2.60994e-11
1.89137e-11
-4.87167e-13
4.68664e-12
-3.36696e-11
-1.11746e-11
-3.82479e-11
-2.09414e-11
-9.65196e-12
-2.67664e-11
-1.38926e-11
3.03352e-12
1.19587e-11
6.73843e-12
-2.53189e-11
-3.91462e-11
-1.75439e-11
1.30469e-11
1.79912e-11
1.54209e-11
1.16319e-11
-6.67414e-13
-2.4739e-11
-7.67579e-12
1.4253e-11
9.78478e-13
-2.46716e-11
-4.60018e-11
-3.97382e-11
7.84333e-12
)
;

boundaryField
{
    sides
    {
        type            calculated;
        value           uniform 0;
    }
    inlet
    {
        type            calculated;
        value           uniform 0;
    }
    outlet
    {
        type            calculated;
        value           nonuniform List<scalar> 
20
(
3.91617e-11
-6.42529e-12
-3.70471e-11
-3.79107e-11
-2.69826e-11
8.26827e-12
3.58872e-11
4.53515e-11
4.39731e-11
-2.08031e-11
-8.44468e-12
9.50613e-12
2.52168e-11
1.8031e-11
-1.64307e-11
-5.53249e-11
-6.71893e-11
-3.95124e-11
9.0243e-12
4.26099e-11
)
;
    }
    frontAndBack
    {
        type            empty;
        value           nonuniform List<scalar> 0();
    }
}


// ************************************************************************* //
