/*--------------------------------*- C++ -*----------------------------------*\
  =========                 |
  \\      /  F ield         | OpenFOAM: The Open Source CFD Toolbox
   \\    /   O peration     | Website:  https://openfoam.org
    \\  /    A nd           | Version:  9
     \\/     M anipulation  |
\*---------------------------------------------------------------------------*/
FoamFile
{
    format      ascii;
    class       volVectorField;
    location    "76";
    object      hU_0;
}
// * * * * * * * * * * * * * * * * * * * * * * * * * * * * * * * * * * * * * //

dimensions      [0 2 -1 0 0 0 0];

internalField   nonuniform List<vector> 
400
(
(0.001 -2.41722e-08 0)
(0.00100004 -7.07025e-08 0)
(0.00100012 -1.13296e-07 0)
(0.00100024 -1.52095e-07 0)
(0.00100039 -1.87034e-07 0)
(0.00100058 -2.16628e-07 0)
(0.00100078 -2.37033e-07 0)
(0.00100099 -2.45396e-07 0)
(0.00100118 -2.36233e-07 0)
(0.00100133 -2.10901e-07 0)
(0.0010014 -1.68287e-07 0)
(0.0010014 -1.28594e-07 0)
(0.00100129 -9.92127e-08 0)
(0.00100111 -9.31272e-08 0)
(0.00100087 -9.94596e-08 0)
(0.00100065 -1.35381e-07 0)
(0.00100044 -1.56521e-07 0)
(0.00100034 -2.01512e-07 0)
(0.00100026 -1.89183e-07 0)
(0.00100033 -2.68743e-07 0)
(0.001 -2.68343e-08 0)
(0.00100005 -7.92828e-08 0)
(0.00100013 -1.28334e-07 0)
(0.00100026 -1.73461e-07 0)
(0.00100042 -2.12817e-07 0)
(0.00100062 -2.40161e-07 0)
(0.00100084 -2.4626e-07 0)
(0.00100108 -2.20578e-07 0)
(0.0010013 -1.5438e-07 0)
(0.00100147 -4.71265e-08 0)
(0.00100156 9.40446e-08 0)
(0.00100154 2.47297e-07 0)
(0.00100141 3.89206e-07 0)
(0.00100119 4.76761e-07 0)
(0.00100093 5.05746e-07 0)
(0.00100067 4.52735e-07 0)
(0.00100048 3.788e-07 0)
(0.00100037 2.56513e-07 0)
(0.00100033 2.04339e-07 0)
(0.00100029 8.06326e-08 0)
(0.001 -5.2925e-08 0)
(0.00100004 -1.59553e-07 0)
(0.00100013 -2.66906e-07 0)
(0.00100026 -3.73338e-07 0)
(0.00100043 -4.73278e-07 0)
(0.00100064 -5.55756e-07 0)
(0.0010009 -6.04282e-07 0)
(0.00100117 -5.9802e-07 0)
(0.00100143 -5.17593e-07 0)
(0.00100164 -3.51041e-07 0)
(0.00100176 -1.09472e-07 0)
(0.00100176 1.62528e-07 0)
(0.00100159 4.01448e-07 0)
(0.00100131 5.20347e-07 0)
(0.00100095 5.00523e-07 0)
(0.00100062 3.55257e-07 0)
(0.00100037 2.04204e-07 0)
(0.00100026 4.62415e-08 0)
(0.00100022 -3.48871e-09 0)
(0.0010003 -1.17172e-07 0)
(0.001 -7.36671e-08 0)
(0.00100004 -2.22595e-07 0)
(0.00100013 -3.75047e-07 0)
(0.00100026 -5.30609e-07 0)
(0.00100045 -6.80849e-07 0)
(0.00100069 -8.10681e-07 0)
(0.001001 -8.90037e-07 0)
(0.00100134 -8.85956e-07 0)
(0.00100171 -7.55432e-07 0)
(0.00100203 -4.74047e-07 0)
(0.00100222 -2.32792e-08 0)
(0.00100219 4.92407e-07 0)
(0.00100192 9.36377e-07 0)
(0.00100146 1.13949e-06 0)
(0.00100097 1.05547e-06 0)
(0.00100058 7.44554e-07 0)
(0.00100041 4.25077e-07 0)
(0.00100035 1.70556e-07 0)
(0.0010004 1.02478e-07 0)
(0.00100035 7.40168e-10 0)
(0.001 -9.08419e-08 0)
(0.00100004 -2.78129e-07 0)
(0.00100012 -4.77295e-07 0)
(0.00100025 -6.9435e-07 0)
(0.00100044 -9.21135e-07 0)
(0.00100072 -1.14002e-06 0)
(0.00100109 -1.29977e-06 0)
(0.00100155 -1.33793e-06 0)
(0.00100207 -1.17553e-06 0)
(0.00100257 -7.79226e-07 0)
(0.0010029 -1.71012e-07 0)
(0.00100288 5.76684e-07 0)
(0.00100244 1.2298e-06 0)
(0.00100167 1.51105e-06 0)
(0.00100086 1.37515e-06 0)
(0.00100031 9.6534e-07 0)
(0.00100013 5.82049e-07 0)
(0.00100022 3.14614e-07 0)
(0.00100037 2.62762e-07 0)
(0.00100043 1.68447e-07 0)
(0.001 -1.03258e-07 0)
(0.00100003 -3.18787e-07 0)
(0.00100009 -5.62477e-07 0)
(0.00100019 -8.44778e-07 0)
(0.00100038 -1.17279e-06 0)
(0.00100068 -1.52553e-06 0)
(0.00100115 -1.86018e-06 0)
(0.00100179 -2.05538e-06 0)
(0.00100254 -1.91281e-06 0)
(0.00100326 -1.20361e-06 0)
(0.00100377 8.45679e-08 0)
(0.00100378 1.54042e-06 0)
(0.0010031 2.43075e-06 0)
(0.00100192 2.30373e-06 0)
(0.00100082 1.42979e-06 0)
(0.00100019 4.92377e-07 0)
(0.00100017 1.29044e-08 0)
(0.00100037 -8.60265e-08 0)
(0.00100064 6.00579e-08 0)
(0.00100055 5.01862e-08 0)
(0.001 -1.02852e-07 0)
(0.001 -3.34093e-07 0)
(0.00100002 -6.0224e-07 0)
(0.00100008 -9.61601e-07 0)
(0.00100021 -1.39191e-06 0)
(0.00100048 -1.94659e-06 0)
(0.001001 -2.49063e-06 0)
(0.00100188 -3.08555e-06 0)
(0.00100321 -3.2356e-06 0)
(0.00100473 -2.88069e-06 0)
(0.00100574 -6.75155e-07 0)
(0.00100535 2.55457e-06 0)
(0.0010035 4.82664e-06 0)
(0.00100113 4.73569e-06 0)
(0.00099961 3.02842e-06 0)
(0.000999374 1.26376e-06 0)
(0.00100001 4.29868e-07 0)
(0.00100056 3.24735e-07 0)
(0.00100093 5.608e-07 0)
(0.00100066 5.33637e-07 0)
(0.000999996 -9.31285e-08 0)
(0.000999968 -2.89566e-07 0)
(0.000999907 -5.77226e-07 0)
(0.000999876 -9.56079e-07 0)
(0.000999879 -1.57681e-06 0)
(0.0010001 -2.3453e-06 0)
(0.0010005 -3.40402e-06 0)
(0.00100152 -4.12617e-06 0)
(0.00100308 -4.3723e-06 0)
(0.00100601 -2.5466e-06 0)
(0.00100911 7.57717e-07 0)
(0.00100915 4.2693e-06 0)
(0.0010055 4.72181e-06 0)
(0.00100074 2.78429e-06 0)
(0.000998152 7.36373e-07 0)
(0.000998275 -2.74401e-07 0)
(0.0009998 -2.87005e-07 0)
(0.00100088 -1.17051e-08 0)
(0.00100133 2.10378e-07 0)
(0.00100085 1.02202e-07 0)
(0.000999995 -4.98234e-08 0)
(0.000999915 -2.04432e-07 0)
(0.000999756 -3.86485e-07 0)
(0.000999531 -7.34219e-07 0)
(0.000999288 -1.3381e-06 0)
(0.000999211 -2.48206e-06 0)
(0.000999707 -4.68864e-06 0)
(0.00100139 -8.06894e-06 0)
(0.00100491 -1.32842e-05 0)
(0.00100958 -1.49093e-05 0)
(0.00101189 3.84577e-06 0)
(0.00100893 1.8732e-05 0)
(0.00100221 1.57845e-05 0)
(0.000997566 5.74408e-06 0)
(0.000996884 -3.14776e-07 0)
(0.00099846 -1.26259e-06 0)
(0.00100027 -9.44249e-08 0)
(0.00100101 6.33456e-07 0)
(0.00100108 6.50413e-07 0)
(0.00100054 2.43059e-07 0)
(0.000999804 -2.00678e-08 0)
(0.00100017 -6.67219e-08 0)
(0.000999216 -1.51039e-07 0)
(0.000999905 -2.48164e-07 0)
(0.000997521 -5.92226e-07 0)
(0.000998843 -1.132e-06 0)
(0.000993347 -2.88399e-06 0)
(0.000997532 -5.59218e-06 0)
(0.000991669 -1.15425e-05 0)
(0.000915833 -1.27059e-05 0)
(0.000951466 2.70005e-07 0)
(0.00101023 1.46382e-05 0)
(0.000990951 1.30835e-05 0)
(0.000983973 5.14074e-06 0)
(0.000989585 1.94763e-07 0)
(0.000996281 -7.8057e-07 0)
(0.000999237 -1.10752e-07 0)
(0.000999413 2.48322e-07 0)
(0.000998649 1.73785e-07 0)
(0.000998507 -1.85334e-07 0)
(0.000999804 1.32232e-08 0)
(0.00100017 4.64624e-08 0)
(0.000999215 1.17957e-07 0)
(0.000999903 2.00083e-07 0)
(0.000997519 5.29118e-07 0)
(0.000998838 1.05123e-06 0)
(0.000993339 2.78662e-06 0)
(0.00099752 5.47364e-06 0)
(0.000991651 1.13971e-05 0)
(0.00091581 1.25452e-05 0)
(0.000951432 -4.75001e-07 0)
(0.0010102 -1.4908e-05 0)
(0.000990947 -1.3411e-05 0)
(0.000983967 -5.53655e-06 0)
(0.000989567 -6.48273e-07 0)
(0.000996243 2.48644e-07 0)
(0.000999195 -4.7181e-07 0)
(0.000999368 -1.00147e-06 0)
(0.000998635 -9.88036e-07 0)
(0.000998457 -8.8876e-07 0)
(0.000999995 4.30605e-08 0)
(0.000999915 1.84778e-07 0)
(0.000999755 3.53964e-07 0)
(0.000999531 6.87139e-07 0)
(0.000999285 1.27636e-06 0)
(0.00099921 2.40194e-06 0)
(0.000999702 4.58966e-06 0)
(0.00100139 7.94222e-06 0)
(0.0010049 1.31307e-05 0)
(0.00100958 1.47178e-05 0)
(0.00101191 -4.0639e-06 0)
(0.0010089 -1.90073e-05 0)
(0.00100214 -1.60959e-05 0)
(0.000997479 -6.1236e-06 0)
(0.000996815 -8.52232e-08 0)
(0.000998402 7.74902e-07 0)
(0.00100017 -4.27076e-07 0)
(0.00100085 -1.30407e-06 0)
(0.00100088 -1.37839e-06 0)
(0.00100037 -1.25074e-06 0)
(0.000999996 8.66951e-08 0)
(0.000999968 2.7094e-07 0)
(0.000999905 5.45408e-07 0)
(0.000999871 9.10043e-07 0)
(0.00099987 1.51361e-06 0)
(0.00100008 2.26235e-06 0)
(0.00100048 3.29479e-06 0)
(0.00100149 3.99108e-06 0)
(0.00100303 4.21003e-06 0)
(0.00100595 2.36467e-06 0)
(0.00100899 -9.77082e-07 0)
(0.00100906 -4.53988e-06 0)
(0.00100543 -5.01964e-06 0)
(0.00100066 -3.13033e-06 0)
(0.000998058 -1.13246e-06 0)
(0.000998136 -2.52061e-07 0)
(0.000999624 -3.22365e-07 0)
(0.00100064 -7.40234e-07 0)
(0.00100106 -9.66216e-07 0)
(0.00100055 -1.07392e-06 0)
(0.001 9.70122e-08 0)
(0.001 3.16328e-07 0)
(0.00100002 5.72167e-07 0)
(0.00100007 9.17541e-07 0)
(0.0010002 1.33351e-06 0)
(0.00100046 1.87172e-06 0)
(0.00100097 2.4004e-06 0)
(0.00100185 2.97638e-06 0)
(0.00100318 3.11213e-06 0)
(0.00100469 2.73115e-06 0)
(0.00100568 5.04556e-07 0)
(0.00100527 -2.75148e-06 0)
(0.00100338 -5.07696e-06 0)
(0.00100096 -5.07043e-06 0)
(0.000999411 -3.44955e-06 0)
(0.000999124 -1.79404e-06 0)
(0.000999747 -1.02013e-06 0)
(0.00100026 -1.0576e-06 0)
(0.00100062 -1.30619e-06 0)
(0.00100024 -1.5157e-06 0)
(0.001 9.83415e-08 0)
(0.00100003 3.03091e-07 0)
(0.00100008 5.3585e-07 0)
(0.00100018 8.05898e-07 0)
(0.00100036 1.12128e-06 0)
(0.00100066 1.45957e-06 0)
(0.00100112 1.77972e-06 0)
(0.00100174 1.95312e-06 0)
(0.00100248 1.78401e-06 0)
(0.00100317 1.03551e-06 0)
(0.00100366 -2.78145e-07 0)
(0.00100363 -1.78132e-06 0)
(0.00100292 -2.70885e-06 0)
(0.00100171 -2.63047e-06 0)
(0.00100058 -1.77815e-06 0)
(0.000999907 -8.94643e-07 0)
(0.000999861 -4.26039e-07 0)
(0.000999984 -4.46437e-07 0)
(0.00100022 -6.1588e-07 0)
(0.00100001 -8.49025e-07 0)
(0.001 8.67177e-08 0)
(0.00100004 2.64639e-07 0)
(0.00100011 4.54245e-07 0)
(0.00100024 6.61626e-07 0)
(0.00100043 8.7755e-07 0)
(0.0010007 1.08411e-06 0)
(0.00100106 1.2305e-06 0)
(0.0010015 1.25462e-06 0)
(0.001002 1.07524e-06 0)
(0.00100248 6.58264e-07 0)
(0.0010028 1.93333e-08 0)
(0.00100274 -7.68058e-07 0)
(0.00100227 -1.44773e-06 0)
(0.00100146 -1.77234e-06 0)
(0.00100063 -1.66673e-06 0)
(0.00100001 -1.34736e-06 0)
(0.000999796 -1.02843e-06 0)
(0.000999767 -9.35876e-07 0)
(0.000999886 -9.45358e-07 0)
(0.000999768 -1.10914e-06 0)
(0.001 7.00257e-08 0)
(0.00100004 2.10304e-07 0)
(0.00100012 3.53957e-07 0)
(0.00100025 5.01212e-07 0)
(0.00100043 6.44072e-07 0)
(0.00100066 7.65485e-07 0)
(0.00100096 8.37393e-07 0)
(0.00100129 8.26306e-07 0)
(0.00100163 6.92097e-07 0)
(0.00100191 4.06633e-07 0)
(0.00100206 -4.64631e-08 0)
(0.001002 -5.74508e-07 0)
(0.00100171 -1.03331e-06 0)
(0.0010012 -1.2794e-06 0)
(0.00100065 -1.22875e-06 0)
(0.00100016 -9.94271e-07 0)
(0.000999916 -7.01949e-07 0)
(0.000999741 -5.56572e-07 0)
(0.000999753 -4.87704e-07 0)
(0.000999562 -5.98999e-07 0)
(0.001 5.10785e-08 0)
(0.00100004 1.50475e-07 0)
(0.00100012 2.46691e-07 0)
(0.00100025 3.38352e-07 0)
(0.00100041 4.2152e-07 0)
(0.00100062 4.83461e-07 0)
(0.00100086 5.08589e-07 0)
(0.00100112 4.7311e-07 0)
(0.00100137 3.61088e-07 0)
(0.00100157 1.55148e-07 0)
(0.00100167 -1.17114e-07 0)
(0.00100161 -4.20676e-07 0)
(0.00100139 -6.80439e-07 0)
(0.00100104 -8.41757e-07 0)
(0.00100064 -8.50715e-07 0)
(0.00100022 -7.71935e-07 0)
(0.000999951 -6.39058e-07 0)
(0.00099969 -5.97267e-07 0)
(0.000999629 -5.61876e-07 0)
(0.00099939 -6.85075e-07 0)
(0.001 3.50697e-08 0)
(0.00100004 1.05238e-07 0)
(0.00100011 1.74538e-07 0)
(0.00100023 2.41285e-07 0)
(0.00100038 3.01975e-07 0)
(0.00100056 3.49985e-07 0)
(0.00100077 3.75627e-07 0)
(0.00100097 3.6878e-07 0)
(0.00100116 3.19417e-07 0)
(0.0010013 2.23226e-07 0)
(0.00100136 8.51639e-08 0)
(0.00100131 -7.09155e-08 0)
(0.00100115 -2.06154e-07 0)
(0.00100086 -2.97687e-07 0)
(0.00100054 -3.13412e-07 0)
(0.00100017 -2.83291e-07 0)
(0.000999901 -2.04056e-07 0)
(0.000999614 -1.69421e-07 0)
(0.000999519 -1.18766e-07 0)
(0.000999252 -1.98433e-07 0)
(0.001 -3.90305e-09 0)
(0.00100004 -9.68994e-09 0)
(0.00100012 -1.28987e-08 0)
(0.00100024 -1.49391e-08 0)
(0.00100038 -1.72509e-08 0)
(0.00100056 -2.2831e-08 0)
(0.00100075 -3.3629e-08 0)
(0.00100094 -5.3417e-08 0)
(0.00100112 -8.19316e-08 0)
(0.00100123 -1.22551e-07 0)
(0.00100128 -1.7052e-07 0)
(0.00100122 -2.31632e-07 0)
(0.00100107 -2.90655e-07 0)
(0.00100081 -3.41516e-07 0)
(0.00100053 -3.60123e-07 0)
(0.00100018 -3.68559e-07 0)
(0.000999947 -3.42927e-07 0)
(0.000999611 -3.5313e-07 0)
(0.000999525 -3.27945e-07 0)
(0.000999134 -4.10593e-07 0)
)
;

boundaryField
{
    sides
    {
        type            slip;
    }
    inlet
    {
        type            fixedValue;
        value           uniform (0.001 0 0);
    }
    outlet
    {
        type            zeroGradient;
    }
    frontAndBack
    {
        type            empty;
    }
}


// ************************************************************************* //
