/*--------------------------------*- C++ -*----------------------------------*\
  =========                 |
  \\      /  F ield         | OpenFOAM: The Open Source CFD Toolbox
   \\    /   O peration     | Website:  https://openfoam.org
    \\  /    A nd           | Version:  9
     \\/     M anipulation  |
\*---------------------------------------------------------------------------*/
FoamFile
{
    format      ascii;
    class       surfaceScalarField;
    location    "76";
    object      phi;
}
// * * * * * * * * * * * * * * * * * * * * * * * * * * * * * * * * * * * * * //

dimensions      [0 4 -1 0 0 0 0];

internalField   nonuniform List<scalar> 
760
(
5.00009e-06
-9.64083e-11
5.0004e-06
-3.0816e-10
5.00091e-06
-5.10553e-10
5.00162e-06
-7.01995e-10
5.00249e-06
-8.728e-10
5.0035e-06
-1.00218e-09
5.00456e-06
-1.06051e-09
5.00557e-06
-1.01362e-09
5.0064e-06
-8.31792e-10
5.00693e-06
-5.23605e-10
5.00705e-06
-1.24625e-10
5.00665e-06
3.93101e-10
5.0058e-06
8.52193e-10
5.0047e-06
1.10255e-09
5.00353e-06
1.174e-09
5.00258e-06
9.55209e-10
5.00186e-06
7.14441e-10
5.00162e-06
2.41037e-10
5.00151e-06
1.02989e-10
-3.91804e-10
5.00012e-06
-2.18875e-10
5.00045e-06
-6.36275e-10
5.00098e-06
-1.04361e-09
5.00172e-06
-1.44074e-09
5.00265e-06
-1.80383e-09
5.00374e-06
-2.09367e-09
5.00493e-06
-2.24758e-09
5.00611e-06
-2.19239e-09
5.00713e-06
-1.85132e-09
5.00778e-06
-1.16769e-09
5.00775e-06
-9.63038e-11
5.00726e-06
8.82775e-10
5.00627e-06
1.83803e-09
5.00496e-06
2.41318e-09
5.00368e-06
2.44732e-09
5.00278e-06
1.86233e-09
5.00225e-06
1.2457e-09
5.00192e-06
5.75535e-10
5.00166e-06
3.64052e-10
-1.4908e-10
5.00011e-06
-3.24862e-10
5.00043e-06
-9.5505e-10
5.00096e-06
-1.57828e-09
5.00172e-06
-2.20596e-09
5.00272e-06
-2.80506e-09
5.00394e-06
-3.31677e-09
5.00532e-06
-3.62522e-09
5.00672e-06
-3.59234e-09
5.00793e-06
-3.05841e-09
5.00872e-06
-1.95766e-09
5.00894e-06
-3.12383e-10
5.00826e-06
1.56222e-09
5.00688e-06
3.21807e-09
5.00516e-06
4.12746e-09
5.00351e-06
4.09217e-09
5.00231e-06
3.0601e-09
5.00167e-06
1.89168e-09
5.00148e-06
7.66517e-10
5.00145e-06
3.94174e-10
-2.21928e-10
5.0001e-06
-4.21102e-10
5.00041e-06
-1.26381e-09
5.00094e-06
-2.11671e-09
5.00175e-06
-3.01181e-09
5.00286e-06
-3.91338e-09
5.00429e-06
-4.74968e-09
5.00602e-06
-5.35267e-09
5.00795e-06
-5.52963e-09
5.00984e-06
-4.95013e-09
5.01107e-06
-3.19895e-09
5.0112e-06
-4.30369e-10
5.01e-06
2.75775e-09
5.00765e-06
5.5601e-09
5.00515e-06
6.63084e-09
5.00348e-06
5.75864e-09
5.0027e-06
3.83057e-09
5.00248e-06
2.11345e-09
5.00231e-06
9.37105e-10
5.002e-06
7.09777e-10
3.40499e-10
5.00008e-06
-5.0136e-10
5.00034e-06
-1.52306e-09
5.00083e-06
-2.611e-09
5.00164e-06
-3.81362e-09
5.00286e-06
-5.13414e-09
5.00458e-06
-6.46651e-09
5.0068e-06
-7.57823e-09
5.00942e-06
-8.15551e-09
5.01239e-06
-7.92179e-09
5.01478e-06
-5.608e-09
5.01482e-06
-4.74581e-10
5.01286e-06
4.74681e-09
5.00868e-06
9.72991e-09
5.0046e-06
1.07077e-08
5.00225e-06
8.11778e-09
5.00175e-06
4.32581e-09
5.00205e-06
1.80766e-09
5.00226e-06
7.24258e-10
5.00202e-06
9.51777e-10
6.2829e-10
5.00004e-06
-5.44242e-10
5.00019e-06
-1.68058e-09
5.00053e-06
-2.95e-09
5.00121e-06
-4.48222e-09
5.00241e-06
-6.33096e-09
5.00453e-06
-8.57861e-09
5.0076e-06
-1.06613e-08
5.01167e-06
-1.22252e-08
5.01551e-06
-1.17966e-08
5.01902e-06
-9.05712e-09
5.0202e-06
-1.68659e-09
5.01602e-06
8.96169e-09
5.00952e-06
1.62628e-08
5.00422e-06
1.60018e-08
5.00218e-06
1.01601e-08
5.00251e-06
4.00315e-09
5.00328e-06
1.03108e-09
5.0034e-06
5.95421e-10
5.0028e-06
1.5447e-09
1.42241e-09
4.99998e-06
-5.26799e-10
4.99993e-06
-1.63954e-09
5.00003e-06
-3.04022e-09
5.00036e-06
-4.80864e-09
5.00122e-06
-7.18941e-09
5.00292e-06
-1.02811e-08
5.0068e-06
-1.45414e-08
5.01391e-06
-1.93483e-08
5.02375e-06
-2.16021e-08
5.03093e-06
-1.62316e-08
5.02875e-06
5.31929e-10
5.01672e-06
2.09271e-08
5.00418e-06
2.88236e-08
4.99874e-06
2.14679e-08
5.00059e-06
8.32163e-09
5.00286e-06
1.73338e-09
5.00373e-06
1.61886e-10
5.00367e-06
6.48012e-10
5.00305e-06
2.15852e-09
1.67976e-09
4.99986e-06
-3.93584e-10
4.99955e-06
-1.32491e-09
4.99912e-06
-2.61116e-09
4.99886e-06
-4.53815e-09
4.99933e-06
-7.66546e-09
5.00036e-06
-1.13095e-08
5.00365e-06
-1.78323e-08
5.00982e-06
-2.55081e-08
5.02489e-06
-3.66532e-08
5.05606e-06
-4.74908e-08
5.05008e-06
7.65056e-09
5.0232e-06
4.78159e-08
4.99818e-06
5.38151e-08
4.9935e-06
2.61502e-08
4.99947e-06
2.35554e-09
5.00408e-06
-2.87188e-09
5.00491e-06
-6.68779e-10
5.00373e-06
1.83197e-09
5.00352e-06
2.37715e-09
9.67972e-10
4.99977e-06
-1.60353e-10
4.99915e-06
-7.06777e-10
4.99792e-06
-1.37767e-09
4.99611e-06
-2.72921e-09
4.99402e-06
-5.57768e-09
4.99374e-06
-1.10303e-08
4.99945e-06
-2.35337e-08
5.01715e-06
-4.32008e-08
5.0557e-06
-7.52249e-08
5.06688e-06
-5.85926e-08
5.04969e-06
2.37148e-08
4.99649e-06
1.01007e-07
4.98931e-06
6.10148e-08
4.99591e-06
1.95415e-08
5.00019e-06
-1.93128e-09
5.00293e-06
-5.61277e-09
5.00253e-06
-2.55327e-10
5.00185e-06
2.51921e-09
5.00255e-06
1.67801e-09
8.17113e-11
4.99986e-06
-1.58055e-11
4.9992e-06
-5.03852e-11
4.99791e-06
-8.4604e-11
4.99531e-06
-1.27077e-10
4.98989e-06
-1.69353e-10
4.97909e-06
-2.18472e-10
4.95583e-06
-2.672e-10
4.91297e-06
-3.30931e-10
4.83814e-06
-4.23637e-10
4.77999e-06
-4.49971e-10
4.80427e-06
-6.19527e-10
4.90607e-06
-7.10691e-10
4.96779e-06
-7.45817e-10
4.98822e-06
-9.08218e-10
4.98745e-06
-1.16452e-09
4.98326e-06
-1.42673e-09
4.98456e-06
-1.55824e-09
4.9889e-06
-1.82567e-09
4.99248e-06
-1.89458e-09
-2.586e-09
4.99986e-06
1.27992e-10
4.99921e-06
6.04652e-10
4.99791e-06
1.21255e-09
4.99529e-06
2.48225e-09
4.98987e-06
5.25097e-09
4.97906e-06
1.06043e-08
4.95578e-06
2.30133e-08
4.9129e-06
4.2543e-08
4.83804e-06
7.44515e-08
4.77974e-06
5.78328e-08
4.80427e-06
-2.51153e-08
4.906e-06
-1.02482e-07
4.96777e-06
-6.2527e-08
4.98807e-06
-2.12044e-08
4.98736e-06
-4.54768e-10
4.98294e-06
2.99603e-09
4.98443e-06
-3.05286e-09
4.98889e-06
-6.28438e-09
4.99235e-06
-5.35704e-09
-4.98523e-09
4.99977e-06
3.59671e-10
4.99915e-06
1.22632e-09
4.99792e-06
2.44455e-09
4.9961e-06
4.29622e-09
4.99402e-06
7.33616e-09
4.99373e-06
1.08913e-08
4.99943e-06
1.73181e-08
5.01708e-06
2.4891e-08
5.05563e-06
3.59207e-08
5.06699e-06
4.63631e-08
5.04954e-06
-6.48462e-09
4.99611e-06
-4.90815e-08
4.98885e-06
-5.52567e-08
4.9957e-06
-2.80407e-08
5.00011e-06
-4.86675e-09
5.00232e-06
7.87404e-10
5.00166e-06
-2.39408e-09
5.00091e-06
-5.53403e-09
5.00169e-06
-6.13635e-09
-5.95286e-09
4.99987e-06
4.93673e-10
4.99955e-06
1.54512e-09
4.99911e-06
2.88184e-09
4.99883e-06
4.57886e-09
4.99927e-06
6.89081e-09
5.00027e-06
9.89972e-09
5.00347e-06
1.41105e-08
5.00961e-06
1.87726e-08
5.02459e-06
2.09114e-08
5.05567e-06
1.54203e-08
5.04969e-06
-1.75901e-09
5.02281e-06
-2.2176e-08
4.99787e-06
-3.03026e-08
4.99316e-06
-2.33346e-08
4.99864e-06
-1.03473e-08
5.00345e-06
-4.02373e-09
5.00374e-06
-2.67316e-09
5.00236e-06
-4.1592e-09
5.00217e-06
-5.94197e-09
-6.53655e-09
4.99998e-06
5.15778e-10
4.99993e-06
1.59511e-09
5e-06
2.80674e-09
5.00031e-06
4.27611e-09
5.00114e-06
6.06411e-09
5.00279e-06
8.23791e-09
5.00668e-06
1.02289e-08
5.01378e-06
1.16731e-08
5.02358e-06
1.11291e-08
5.0307e-06
8.26599e-09
5.02839e-06
6.29939e-10
5.01625e-06
-1.0032e-08
5.0035e-06
-1.75598e-08
4.99777e-06
-1.76093e-08
4.99941e-06
-1.19878e-08
5.00161e-06
-6.22034e-09
5.00241e-06
-3.46526e-09
5.00214e-06
-3.88503e-09
5.0012e-06
-5.00433e-09
-5.97814e-09
5.00004e-06
4.79357e-10
5.00018e-06
1.45016e-09
5.0005e-06
2.48592e-09
5.00115e-06
3.63089e-09
5.00232e-06
4.89183e-09
5.00439e-06
6.15957e-09
5.00741e-06
7.20648e-09
5.0114e-06
7.69974e-09
5.01513e-06
7.39274e-09
5.01853e-06
4.88266e-09
5.01956e-06
-3.92667e-10
5.01523e-06
-5.70349e-09
5.00854e-06
-1.08654e-08
5.00311e-06
-1.21764e-08
5.00088e-06
-9.75386e-09
5.00102e-06
-6.34857e-09
5.00156e-06
-4.00647e-09
5.00133e-06
-3.64596e-09
5.00036e-06
-4.04316e-09
-4.97913e-09
5.00008e-06
4.02757e-10
5.00033e-06
1.20391e-09
5.00079e-06
2.01407e-09
5.00157e-06
2.85977e-09
5.00275e-06
3.71011e-09
5.00441e-06
4.49567e-09
5.00655e-06
5.05291e-09
5.00909e-06
5.16126e-09
5.01203e-06
4.45956e-09
5.01441e-06
2.51352e-09
5.01414e-06
-1.37819e-10
5.01209e-06
-3.63298e-09
5.00775e-06
-6.53118e-09
5.00349e-06
-7.90723e-09
5.00094e-06
-7.18839e-09
5.00014e-06
-5.54916e-09
5.00011e-06
-3.98041e-09
4.99988e-06
-3.41749e-09
4.99917e-06
-3.34197e-09
-4.17593e-09
5.0001e-06
3.04229e-10
5.0004e-06
9.06048e-10
5.00091e-06
1.50193e-09
5.00167e-06
2.09284e-09
5.00274e-06
2.65071e-09
5.00412e-06
3.11105e-09
5.00579e-06
3.37988e-09
5.00763e-06
3.3115e-09
5.00933e-06
2.75687e-09
5.01027e-06
1.57343e-09
5.01043e-06
-3.00976e-10
5.00903e-06
-2.22824e-09
5.00651e-06
-4.00137e-09
5.00368e-06
-5.07451e-09
5.00155e-06
-5.05693e-09
5.00035e-06
-4.35261e-09
4.99971e-06
-3.34232e-09
4.99917e-06
-2.88571e-09
4.99845e-06
-2.62812e-09
-3.21982e-09
5.0001e-06
2.00318e-10
5.00041e-06
5.96944e-10
5.00093e-06
9.85355e-10
5.00166e-06
1.35875e-09
5.00261e-06
1.69683e-09
5.00378e-06
1.95171e-09
5.0051e-06
2.064e-09
5.00645e-06
1.95211e-09
5.00765e-06
1.55299e-09
5.00839e-06
8.26818e-10
5.00822e-06
-1.29138e-10
5.00734e-06
-1.35439e-09
5.00571e-06
-2.37069e-09
5.00369e-06
-3.06119e-09
5.0018e-06
-3.16914e-09
5.00034e-06
-2.90023e-09
4.99932e-06
-2.32823e-09
4.99852e-06
-2.09569e-09
4.99773e-06
-1.83579e-09
-2.28145e-09
5.00008e-06
1.1497e-10
5.00038e-06
3.05869e-10
5.00087e-06
4.9358e-10
5.00155e-06
6.74643e-10
5.00241e-06
8.3494e-10
5.00341e-06
9.50362e-10
5.00449e-06
9.93777e-10
5.00551e-06
9.3101e-10
5.00633e-06
7.31568e-10
5.0068e-06
3.57e-10
5.00681e-06
-1.43461e-10
5.00608e-06
-6.28266e-10
5.00479e-06
-1.0901e-09
5.00316e-06
-1.42776e-09
5.00149e-06
-1.50169e-09
5.00003e-06
-1.4404e-09
4.99888e-06
-1.19007e-09
4.99793e-06
-1.13651e-09
4.99708e-06
-9.78093e-10
-1.42641e-09
5.00011e-06
5.00042e-06
5.00091e-06
5.00158e-06
5.00241e-06
5.00337e-06
5.00436e-06
5.0053e-06
5.00603e-06
5.00639e-06
5.00625e-06
5.00562e-06
5.00453e-06
5.00311e-06
5.00161e-06
5.00017e-06
4.99898e-06
4.99785e-06
4.99688e-06
)
;

boundaryField
{
    sides
    {
        type            calculated;
        value           uniform 0;
    }
    inlet
    {
        type            calculated;
        value           nonuniform List<scalar> 
20
(
-5e-06
-5e-06
-5e-06
-5e-06
-5e-06
-5e-06
-5e-06
-5e-06
-5e-06
-5e-06
-5e-06
-5e-06
-5e-06
-5e-06
-5e-06
-5e-06
-5e-06
-5e-06
-5e-06
-5e-06
)
;
    }
    outlet
    {
        type            calculated;
        value           nonuniform List<scalar> 
20
(
5.00191e-06
5.00141e-06
5.00153e-06
5.00144e-06
5.00173e-06
5.00201e-06
5.00279e-06
5.00423e-06
5.00345e-06
4.99515e-06
4.99476e-06
5.00266e-06
5.00275e-06
5.00064e-06
4.99935e-06
4.99837e-06
4.99749e-06
4.9968e-06
4.99623e-06
4.99546e-06
)
;
    }
    frontAndBack
    {
        type            empty;
        value           nonuniform List<scalar> 0();
    }
}


// ************************************************************************* //
