/*--------------------------------*- C++ -*----------------------------------*\
  =========                 |
  \\      /  F ield         | OpenFOAM: The Open Source CFD Toolbox
   \\    /   O peration     | Website:  https://openfoam.org
    \\  /    A nd           | Version:  9
     \\/     M anipulation  |
\*---------------------------------------------------------------------------*/
FoamFile
{
    format      ascii;
    class       surfaceScalarField;
    location    "76";
    object      phi_0;
}
// * * * * * * * * * * * * * * * * * * * * * * * * * * * * * * * * * * * * * //

dimensions      [0 4 -1 0 0 0 0];

internalField   nonuniform List<scalar> 
760
(
5.0001e-06
-9.41334e-11
5.0004e-06
-3.0841e-10
5.00091e-06
-5.12579e-10
5.00162e-06
-7.0162e-10
5.00249e-06
-8.72239e-10
5.0035e-06
-1.00214e-09
5.00456e-06
-1.06048e-09
5.00557e-06
-1.0139e-09
5.0064e-06
-8.32034e-10
5.00693e-06
-5.22051e-10
5.00705e-06
-1.23682e-10
5.00665e-06
3.94532e-10
5.0058e-06
8.51518e-10
5.0047e-06
1.10209e-09
5.00353e-06
1.17387e-09
5.00258e-06
9.54474e-10
5.00186e-06
7.14131e-10
5.00162e-06
2.40266e-10
5.00151e-06
1.00812e-10
-3.93704e-10
5.00012e-06
-2.16378e-10
5.00045e-06
-6.36765e-10
5.00098e-06
-1.04494e-09
5.00172e-06
-1.44001e-09
5.00265e-06
-1.80378e-09
5.00374e-06
-2.09341e-09
5.00493e-06
-2.24869e-09
5.00611e-06
-2.19312e-09
5.00713e-06
-1.85196e-09
5.00778e-06
-1.167e-09
5.00775e-06
-9.183e-11
5.00726e-06
8.83326e-10
5.00627e-06
1.83948e-09
5.00496e-06
2.41365e-09
5.00368e-06
2.44766e-09
5.00278e-06
1.86232e-09
5.00225e-06
1.24621e-09
5.00192e-06
5.7584e-10
5.00166e-06
3.6266e-10
-1.50088e-10
5.00011e-06
-3.23663e-10
5.00043e-06
-9.5445e-10
5.00096e-06
-1.57698e-09
5.00172e-06
-2.20562e-09
5.00272e-06
-2.80537e-09
5.00394e-06
-3.31804e-09
5.00532e-06
-3.62708e-09
5.00672e-06
-3.59445e-09
5.00793e-06
-3.05672e-09
5.00872e-06
-1.95749e-09
5.00894e-06
-3.07004e-10
5.00826e-06
1.56674e-09
5.00687e-06
3.22023e-09
5.00516e-06
4.1311e-09
5.00351e-06
4.09446e-09
5.00231e-06
3.06112e-09
5.00167e-06
1.89241e-09
5.00148e-06
7.67243e-10
5.00145e-06
3.94894e-10
-2.21901e-10
5.0001e-06
-4.21218e-10
5.00041e-06
-1.26211e-09
5.00095e-06
-2.1137e-09
5.00175e-06
-3.01072e-09
5.00285e-06
-3.91468e-09
5.00429e-06
-4.75183e-09
5.00602e-06
-5.35534e-09
5.00795e-06
-5.52824e-09
5.00984e-06
-4.95057e-09
5.01107e-06
-3.19031e-09
5.0112e-06
-4.38448e-10
5.00999e-06
2.76531e-09
5.00766e-06
5.56484e-09
5.00515e-06
6.63261e-09
5.00348e-06
5.76197e-09
5.0027e-06
3.83273e-09
5.00248e-06
2.11407e-09
5.00231e-06
9.3817e-10
5.002e-06
7.11934e-10
3.41683e-10
5.00008e-06
-5.02051e-10
5.00034e-06
-1.52128e-09
5.00083e-06
-2.60792e-09
5.00164e-06
-3.81287e-09
5.00286e-06
-5.13501e-09
5.00458e-06
-6.46817e-09
5.0068e-06
-7.57722e-09
5.00942e-06
-8.15365e-09
5.01239e-06
-7.91953e-09
5.01477e-06
-5.60539e-09
5.01483e-06
-4.67919e-10
5.01286e-06
4.72896e-09
5.00868e-06
9.73489e-09
5.0046e-06
1.07113e-08
5.00225e-06
8.11642e-09
5.00175e-06
4.32549e-09
5.00205e-06
1.80803e-09
5.00226e-06
7.25742e-10
5.00202e-06
9.55005e-10
6.30101e-10
5.00004e-06
-5.44764e-10
5.0002e-06
-1.67931e-09
5.00053e-06
-2.94888e-09
5.00121e-06
-4.48209e-09
5.00241e-06
-6.3312e-09
5.00453e-06
-8.57712e-09
5.0076e-06
-1.0658e-08
5.01167e-06
-1.22248e-08
5.01552e-06
-1.17849e-08
5.01902e-06
-9.09377e-09
5.0202e-06
-1.66805e-09
5.01604e-06
8.94891e-09
5.00952e-06
1.62417e-08
5.00422e-06
1.59995e-08
5.00218e-06
1.01597e-08
5.00251e-06
4.00077e-09
5.00328e-06
1.02922e-09
5.0034e-06
5.9564e-10
5.0028e-06
1.54704e-09
1.42389e-09
4.99998e-06
-5.26927e-10
4.99993e-06
-1.63931e-09
5.00003e-06
-3.04082e-09
5.00036e-06
-4.80931e-09
5.00122e-06
-7.18783e-09
5.00292e-06
-1.02781e-08
5.0068e-06
-1.454e-08
5.01392e-06
-1.93446e-08
5.02373e-06
-2.16189e-08
5.03096e-06
-1.62185e-08
5.02871e-06
5.19707e-10
5.01673e-06
2.09503e-08
5.0042e-06
2.88247e-08
4.99874e-06
2.14597e-08
5.00058e-06
8.31766e-09
5.00286e-06
1.73023e-09
5.00373e-06
1.58595e-10
5.00367e-06
6.45647e-10
5.00305e-06
2.15854e-09
1.68025e-09
4.99986e-06
-3.93791e-10
4.99955e-06
-1.32533e-09
4.99912e-06
-2.61257e-09
4.99886e-06
-4.53792e-09
4.99933e-06
-7.66356e-09
5.00036e-06
-1.1307e-08
5.00365e-06
-1.78325e-08
5.00982e-06
-2.5516e-08
5.02488e-06
-3.66405e-08
5.05611e-06
-4.74671e-08
5.05008e-06
5.63218e-09
5.02318e-06
4.77901e-08
4.99818e-06
5.38342e-08
4.9935e-06
2.61573e-08
4.99947e-06
2.35502e-09
5.00408e-06
-2.87353e-09
5.00492e-06
-6.72052e-10
5.00374e-06
1.82796e-09
5.00351e-06
2.37489e-09
9.67323e-10
4.99977e-06
-1.60983e-10
4.99915e-06
-7.07411e-10
4.99792e-06
-1.37818e-09
4.99611e-06
-2.72832e-09
4.99402e-06
-5.57575e-09
4.99374e-06
-1.10316e-08
4.99945e-06
-2.35352e-08
5.01715e-06
-4.31977e-08
5.05571e-06
-7.52397e-08
5.06685e-06
-5.85662e-08
5.04969e-06
2.36864e-08
4.9965e-06
1.0104e-07
4.98931e-06
6.10225e-08
4.9959e-06
1.95429e-08
5.00019e-06
-1.92936e-09
5.00293e-06
-5.61143e-09
5.00253e-06
-2.73171e-10
5.00185e-06
2.51608e-09
5.00255e-06
1.67525e-09
7.05744e-11
4.99986e-06
-1.66478e-11
4.9992e-06
-5.04112e-11
4.99791e-06
-8.39884e-11
4.99531e-06
-1.2588e-10
4.98989e-06
-1.69527e-10
4.97909e-06
-2.20083e-10
4.95582e-06
-2.68861e-10
4.91296e-06
-3.29339e-10
4.83816e-06
-4.10225e-10
4.77995e-06
-4.80123e-10
4.80431e-06
-5.79365e-10
4.90605e-06
-7.32876e-10
4.96778e-06
-7.62251e-10
4.98822e-06
-9.08735e-10
4.98745e-06
-1.16242e-09
4.98326e-06
-1.42415e-09
4.98456e-06
-1.55638e-09
4.98891e-06
-1.82517e-09
4.99249e-06
-1.89459e-09
-2.58613e-09
4.99986e-06
1.27482e-10
4.9992e-06
6.05281e-10
4.99791e-06
1.21388e-09
4.9953e-06
2.48234e-09
4.98987e-06
5.24965e-09
4.97906e-06
1.06025e-08
4.95578e-06
2.30142e-08
4.9129e-06
4.25413e-08
4.83804e-06
7.44575e-08
4.77975e-06
5.78278e-08
4.80425e-06
-2.5222e-08
4.90599e-06
-1.02479e-07
4.96777e-06
-6.25282e-08
4.98807e-06
-2.12045e-08
4.98736e-06
-4.55397e-10
4.98294e-06
2.99795e-09
4.98443e-06
-3.04961e-09
4.98889e-06
-6.28175e-09
4.99236e-06
-5.35546e-09
-4.98469e-09
4.99977e-06
3.59916e-10
4.99915e-06
1.22694e-09
4.99792e-06
2.44568e-09
4.9961e-06
4.29532e-09
4.99402e-06
7.33386e-09
4.99373e-06
1.08909e-08
4.99943e-06
1.73186e-08
5.01708e-06
2.48916e-08
5.05561e-06
3.59097e-08
5.06712e-06
4.63789e-08
5.04957e-06
-7.43508e-09
4.9961e-06
-4.91092e-08
4.98885e-06
-5.52529e-08
4.9957e-06
-2.80458e-08
5.00011e-06
-4.87005e-09
5.00232e-06
7.87672e-10
5.00166e-06
-2.39136e-09
5.00091e-06
-5.53137e-09
5.00169e-06
-6.13508e-09
-5.95254e-09
4.99987e-06
4.94592e-10
4.99955e-06
1.54497e-09
4.99911e-06
2.88195e-09
4.99883e-06
4.57809e-09
4.99927e-06
6.88838e-09
5.00027e-06
9.89871e-09
5.00348e-06
1.41114e-08
5.0096e-06
1.87715e-08
5.02461e-06
2.09144e-08
5.05554e-06
1.54083e-08
5.04965e-06
-1.77353e-09
5.02284e-06
-2.21554e-08
4.99787e-06
-3.03122e-08
4.99316e-06
-2.33367e-08
4.99864e-06
-1.03478e-08
5.00346e-06
-4.02225e-09
5.00374e-06
-2.67049e-09
5.00236e-06
-4.15731e-09
5.00217e-06
-5.94242e-09
-6.53722e-09
4.99998e-06
5.16845e-10
4.99993e-06
1.59385e-09
5e-06
2.80561e-09
5.00031e-06
4.27626e-09
5.00114e-06
6.0631e-09
5.00279e-06
8.23587e-09
5.00668e-06
1.02283e-08
5.01378e-06
1.16752e-08
5.02358e-06
1.11297e-08
5.0307e-06
8.26606e-09
5.02841e-06
6.37777e-10
5.01624e-06
-1.00407e-08
5.0035e-06
-1.75567e-08
4.99778e-06
-1.7609e-08
4.99942e-06
-1.19865e-08
5.00162e-06
-6.21746e-09
5.00241e-06
-3.4625e-09
5.00214e-06
-3.8846e-09
5.0012e-06
-5.00704e-09
-5.98005e-09
5.00004e-06
4.79984e-10
5.00018e-06
1.44857e-09
5.0005e-06
2.48334e-09
5.00115e-06
3.63142e-09
5.00232e-06
4.89316e-09
5.0044e-06
6.15849e-09
5.00741e-06
7.20315e-09
5.01139e-06
7.69995e-09
5.01513e-06
7.39427e-09
5.01853e-06
4.88872e-09
5.01956e-06
-4.04269e-10
5.01523e-06
-5.69409e-09
5.00854e-06
-1.08621e-08
5.00312e-06
-1.21725e-08
5.00089e-06
-9.74907e-09
5.00102e-06
-6.3457e-09
5.00156e-06
-4.00543e-09
5.00132e-06
-3.64697e-09
5.00036e-06
-4.04669e-09
-4.98131e-09
5.00008e-06
4.02637e-10
5.00033e-06
1.20264e-09
5.00079e-06
2.01117e-09
5.00156e-06
2.85875e-09
5.00275e-06
3.71298e-09
5.00441e-06
4.49701e-09
5.00656e-06
5.05074e-09
5.00909e-06
5.157e-09
5.01203e-06
4.45945e-09
5.0144e-06
2.51352e-09
5.01414e-06
-1.34527e-10
5.01208e-06
-3.62922e-09
5.00776e-06
-6.52633e-09
5.0035e-06
-7.90142e-09
5.00094e-06
-7.1857e-09
5.00014e-06
-5.54974e-09
5.00011e-06
-3.98212e-09
4.99988e-06
-3.41927e-09
4.99917e-06
-3.34411e-09
-4.17694e-09
5.0001e-06
3.03541e-10
5.0004e-06
9.051e-10
5.00091e-06
1.49983e-09
5.00167e-06
2.0906e-09
5.00274e-06
2.65191e-09
5.00412e-06
3.11483e-09
5.00579e-06
3.3813e-09
5.00763e-06
3.30942e-09
5.00933e-06
2.75344e-09
5.01027e-06
1.57056e-09
5.01043e-06
-3.01339e-10
5.00903e-06
-2.22979e-09
5.00651e-06
-4.00059e-09
5.00368e-06
-5.07479e-09
5.00155e-06
-5.05967e-09
5.00035e-06
-4.35677e-09
4.9997e-06
-3.34602e-09
4.99917e-06
-2.88711e-09
4.99845e-06
-2.62735e-09
-3.21894e-09
5.0001e-06
1.99658e-10
5.00041e-06
5.96389e-10
5.00093e-06
9.84265e-10
5.00166e-06
1.35637e-09
5.00261e-06
1.69594e-09
5.00378e-06
1.9546e-09
5.0051e-06
2.06828e-09
5.00645e-06
1.95419e-09
5.00765e-06
1.55225e-09
5.00839e-06
8.24425e-10
5.00822e-06
-1.32496e-10
5.00734e-06
-1.35783e-09
5.00571e-06
-2.37354e-09
5.00369e-06
-3.06509e-09
5.0018e-06
-3.17404e-09
5.00034e-06
-2.9046e-09
4.99931e-06
-2.33073e-09
4.99852e-06
-2.09512e-09
4.99774e-06
-1.83266e-09
-2.27941e-09
5.00008e-06
1.14776e-10
5.00037e-06
3.05747e-10
5.00087e-06
4.93261e-10
5.00155e-06
6.73031e-10
5.00241e-06
8.33689e-10
5.00341e-06
9.51409e-10
5.00449e-06
9.97072e-10
5.00551e-06
9.33835e-10
5.00633e-06
7.33007e-10
5.0068e-06
3.56892e-10
5.00681e-06
-1.45e-10
5.00608e-06
-6.30103e-10
5.00479e-06
-1.09201e-09
5.00316e-06
-1.43029e-09
5.00149e-06
-1.50473e-09
5.00002e-06
-1.44238e-09
4.99889e-06
-1.1905e-09
4.99793e-06
-1.13523e-09
4.99708e-06
-9.75406e-10
-1.42482e-09
5.00011e-06
5.00042e-06
5.00091e-06
5.00159e-06
5.00242e-06
5.00337e-06
5.00436e-06
5.0053e-06
5.00603e-06
5.00639e-06
5.00625e-06
5.00563e-06
5.00453e-06
5.00311e-06
5.00161e-06
5.00017e-06
4.99899e-06
4.99786e-06
4.99688e-06
)
;

boundaryField
{
    sides
    {
        type            calculated;
        value           uniform 0;
    }
    inlet
    {
        type            calculated;
        value           nonuniform List<scalar> 
20
(
-5e-06
-5e-06
-5e-06
-5e-06
-5e-06
-5e-06
-5e-06
-5e-06
-5e-06
-5e-06
-5e-06
-5e-06
-5e-06
-5e-06
-5e-06
-5e-06
-5e-06
-5e-06
-5e-06
-5e-06
)
;
    }
    outlet
    {
        type            calculated;
        value           nonuniform List<scalar> 
20
(
5.0019e-06
5.00142e-06
5.00153e-06
5.00144e-06
5.00173e-06
5.002e-06
5.00279e-06
5.00422e-06
5.00345e-06
4.99515e-06
4.99476e-06
5.00266e-06
5.00275e-06
5.00064e-06
4.99935e-06
4.99837e-06
4.9975e-06
4.9968e-06
4.99623e-06
4.99546e-06
)
;
    }
    frontAndBack
    {
        type            empty;
        value           nonuniform List<scalar> 0();
    }
}


// ************************************************************************* //
