/*--------------------------------*- C++ -*----------------------------------*\
  =========                 |
  \\      /  F ield         | OpenFOAM: The Open Source CFD Toolbox
   \\    /   O peration     | Website:  https://openfoam.org
    \\  /    A nd           | Version:  9
     \\/     M anipulation  |
\*---------------------------------------------------------------------------*/
FoamFile
{
    format      ascii;
    class       volScalarField;
    location    "3";
    object      ddt0(h);
}
// * * * * * * * * * * * * * * * * * * * * * * * * * * * * * * * * * * * * * //

dimensions      [0 1 -1 0 0 0 0];

internalField   nonuniform List<scalar> 
400
(
-3.62965e-05
-7.38593e-05
-5.42809e-05
-1.15783e-05
1.32179e-05
2.66033e-05
3.26891e-05
2.80123e-05
2.23068e-05
1.73063e-05
1.26438e-05
1.44737e-05
1.84567e-05
2.20679e-05
1.22224e-05
-2.70195e-05
-5.96872e-05
-2.81713e-05
3.50177e-05
3.11704e-05
-5.49343e-05
-4.63056e-05
-2.57706e-05
-6.70158e-06
1.03279e-05
2.06996e-05
1.7631e-05
1.84368e-05
1.50789e-05
1.09338e-05
8.5627e-06
1.02956e-05
1.90564e-05
1.96627e-05
2.75558e-06
-2.12049e-05
-3.93184e-05
-1.9979e-05
4.41502e-06
4.88759e-06
-6.50115e-05
-1.37155e-05
5.27014e-07
1.69138e-07
1.22243e-05
1.1085e-05
6.70142e-06
2.47128e-06
-2.16041e-07
-6.65398e-07
5.05308e-07
3.64489e-06
1.72192e-05
1.17643e-05
-1.26792e-05
-2.05302e-05
4.4108e-07
1.41092e-06
-2.64949e-05
-2.32482e-05
-4.54484e-05
-1.38185e-07
3.04767e-06
1.07608e-05
6.77345e-06
2.53881e-06
2.19648e-06
-3.51018e-07
-7.00399e-06
-6.16183e-06
1.08931e-06
4.2062e-06
1.1075e-05
6.92251e-06
-2.86367e-05
-2.7495e-05
3.50037e-05
3.12805e-05
-3.67798e-05
-3.724e-05
-1.20575e-05
-3.38275e-06
-1.12182e-05
-3.18996e-06
5.33974e-06
2.9118e-06
3.03098e-06
1.57633e-06
4.56487e-07
-4.89429e-06
4.02365e-07
7.3951e-06
7.87815e-09
2.06192e-06
-2.59085e-05
-3.23126e-05
3.75669e-05
5.08422e-05
-2.50628e-05
-3.57319e-05
1.49933e-05
-1.10919e-05
-2.58364e-05
-1.27759e-05
-3.33293e-06
1.0272e-05
1.81484e-05
8.38901e-06
1.12791e-05
-3.22099e-07
3.57736e-06
1.40848e-05
-3.76541e-06
-1.61892e-05
-1.62298e-05
-1.86897e-05
2.57087e-05
4.1192e-05
-1.09853e-05
-2.09714e-05
3.58496e-05
-1.3095e-05
-3.12795e-05
-2.30703e-05
-1.22482e-05
6.66458e-06
2.38301e-05
1.85184e-05
1.9051e-05
1.0032e-05
8.72734e-06
1.6283e-05
1.07592e-06
-2.84455e-05
-1.7026e-05
1.91134e-06
1.23703e-05
1.97615e-05
7.01372e-06
-1.09651e-06
3.92319e-05
-1.47886e-05
-3.02569e-05
-3.1444e-05
-2.11703e-05
3.83266e-06
2.20891e-05
2.20817e-05
2.3479e-05
1.77567e-05
1.51776e-05
1.97847e-05
3.31338e-06
-3.20662e-05
-1.55354e-05
1.18857e-05
9.77626e-06
-7.27275e-07
1.38131e-05
1.25757e-05
3.96188e-05
-1.4908e-05
-2.47567e-05
-3.31859e-05
-2.96175e-05
9.73897e-07
1.64413e-05
2.41698e-05
2.44887e-05
2.21893e-05
1.87142e-05
2.28321e-05
4.3665e-06
-3.09899e-05
-1.65722e-05
2.15807e-05
7.93854e-06
-1.21004e-05
1.22344e-05
1.7943e-05
3.83259e-05
-1.4163e-05
-2.09986e-05
-3.41028e-05
-3.37516e-05
-3.54758e-07
1.09125e-05
2.6754e-05
2.29037e-05
2.52328e-05
1.98873e-05
2.30959e-05
3.7017e-06
-3.23848e-05
-1.37923e-05
2.62503e-05
8.16955e-06
-1.84643e-05
1.16102e-05
1.93702e-05
3.84198e-05
-1.39555e-05
-2.16309e-05
-3.31504e-05
-3.38882e-05
-4.79566e-08
1.08064e-05
2.66823e-05
2.30088e-05
2.54282e-05
1.99075e-05
2.2812e-05
3.67544e-06
-3.23122e-05
-1.43377e-05
2.55132e-05
7.01262e-06
-1.81941e-05
1.19907e-05
1.97971e-05
3.95875e-05
-1.45614e-05
-2.43401e-05
-3.36133e-05
-2.97282e-05
1.36836e-06
1.63557e-05
2.46605e-05
2.51847e-05
2.27241e-05
2.02283e-05
2.26619e-05
4.20356e-06
-3.04358e-05
-1.48675e-05
2.13939e-05
7.14475e-06
-1.23636e-05
1.34596e-05
1.8318e-05
3.9417e-05
-1.52459e-05
-3.00885e-05
-3.15949e-05
-2.22391e-05
2.71359e-06
2.21853e-05
2.28954e-05
2.47554e-05
1.81372e-05
1.53917e-05
2.05218e-05
3.4603e-06
-3.15621e-05
-1.45439e-05
1.1316e-05
9.24071e-06
-1.52596e-06
1.30718e-05
1.31572e-05
3.54223e-05
-1.22697e-05
-3.27988e-05
-2.44214e-05
-1.4175e-05
9.34416e-06
2.40007e-05
1.7944e-05
1.91953e-05
1.1357e-05
9.09397e-06
1.71894e-05
1.92859e-06
-2.82529e-05
-1.80597e-05
2.14214e-06
1.62179e-05
1.77084e-05
7.7709e-06
1.76746e-06
1.37779e-05
-9.91633e-06
-2.82778e-05
-1.19467e-05
-7.08839e-07
9.21525e-06
1.66587e-05
8.94494e-06
1.06927e-05
3.08687e-07
3.46298e-06
1.45914e-05
-2.32225e-06
-1.6955e-05
-1.55215e-05
-1.55804e-05
2.41874e-05
4.12037e-05
-4.62934e-06
-1.7096e-05
-1.40026e-05
-4.19868e-06
-8.67688e-06
-4.90896e-06
5.56905e-06
2.93328e-06
5.58296e-06
1.26167e-07
-1.15257e-06
-5.55895e-06
1.62624e-06
9.04266e-06
-9.9537e-07
3.11484e-06
-2.58896e-05
-3.18207e-05
3.98483e-05
5.01388e-05
-2.67282e-05
-3.55706e-05
-4.67688e-05
-2.19275e-06
3.69074e-06
1.12992e-05
5.92818e-06
2.33245e-06
7.29235e-07
2.8326e-07
-5.64342e-06
-6.78065e-06
5.9551e-07
5.23378e-06
1.1514e-05
7.9108e-06
-2.89117e-05
-2.47037e-05
3.38774e-05
3.2572e-05
-4.16724e-05
-4.38809e-05
-6.57587e-05
-1.52969e-05
9.52023e-08
1.47247e-06
1.08516e-05
1.07825e-05
6.06699e-06
3.15476e-06
5.02422e-07
1.29115e-06
2.01236e-06
3.78768e-06
1.76698e-05
1.32715e-05
-1.19914e-05
-1.99875e-05
1.97619e-06
4.11117e-06
-2.93858e-05
-2.73366e-05
-5.47417e-05
-4.58911e-05
-2.85658e-05
-7.7559e-06
1.14852e-05
1.95107e-05
1.64224e-05
1.68634e-05
1.29062e-05
9.02094e-06
7.34014e-06
8.93793e-06
1.83547e-05
1.77103e-05
4.2332e-06
-2.34134e-05
-3.95742e-05
-1.86556e-05
5.29746e-06
6.06863e-06
-3.58203e-05
-7.42514e-05
-5.3949e-05
-1.20428e-05
1.27519e-05
2.59692e-05
3.32021e-05
2.82133e-05
2.30855e-05
1.7828e-05
1.30868e-05
1.54023e-05
1.97524e-05
2.32166e-05
1.24226e-05
-2.68968e-05
-5.9169e-05
-2.82565e-05
3.75763e-05
3.39767e-05
)
;

boundaryField
{
    sides
    {
        type            calculated;
        value           nonuniform List<scalar> 
40
(
-3.58203e-05
-7.42514e-05
-5.3949e-05
-1.20428e-05
1.27519e-05
2.59692e-05
3.32021e-05
2.82133e-05
2.30855e-05
1.7828e-05
1.30868e-05
1.54023e-05
1.97524e-05
2.32166e-05
1.24226e-05
-2.68968e-05
-5.9169e-05
-2.82565e-05
3.75763e-05
3.39767e-05
-3.62965e-05
-7.38593e-05
-5.42809e-05
-1.15783e-05
1.32179e-05
2.66033e-05
3.26891e-05
2.80123e-05
2.23068e-05
1.73063e-05
1.26438e-05
1.44737e-05
1.84567e-05
2.20679e-05
1.22224e-05
-2.70195e-05
-5.96872e-05
-2.81713e-05
3.50177e-05
3.11704e-05
)
;
    }
    inlet
    {
        type            calculated;
        value           nonuniform List<scalar> 
20
(
-3.62965e-05
-5.49343e-05
-6.50115e-05
-4.54484e-05
-1.20575e-05
1.49933e-05
3.58496e-05
3.92319e-05
3.96188e-05
3.83259e-05
3.84198e-05
3.95875e-05
3.9417e-05
3.54223e-05
1.37779e-05
-1.40026e-05
-4.67688e-05
-6.57587e-05
-5.47417e-05
-3.58203e-05
)
;
    }
    outlet
    {
        type            calculated;
        value           uniform 0;
    }
    frontAndBack
    {
        type            empty;
    }
}


// ************************************************************************* //
