/*--------------------------------*- C++ -*----------------------------------*\
  =========                 |
  \\      /  F ield         | OpenFOAM: The Open Source CFD Toolbox
   \\    /   O peration     | Website:  https://openfoam.org
    \\  /    A nd           | Version:  9
     \\/     M anipulation  |
\*---------------------------------------------------------------------------*/
FoamFile
{
    format      ascii;
    class       surfaceScalarField;
    location    "3";
    object      ddtCorrDdt0(phi);
}
// * * * * * * * * * * * * * * * * * * * * * * * * * * * * * * * * * * * * * //

dimensions      [0 4 -2 0 0 0 0];

internalField   nonuniform List<scalar> 
760
(
8.68705e-08
8.72878e-08
9.52828e-08
4.78043e-08
7.37275e-08
-1.11244e-08
5.30235e-08
-4.19082e-08
3.46877e-08
-4.2408e-08
1.32634e-08
-2.4053e-08
5.19293e-09
-2.62661e-08
3.70492e-09
-1.22757e-08
4.87683e-10
-5.56919e-09
1.10673e-10
-1.35077e-09
-3.55674e-09
1.68276e-09
-9.44264e-09
2.67414e-09
-2.10753e-08
2.70336e-09
-2.29436e-08
4.73711e-09
8.87216e-09
9.11497e-09
4.47939e-08
1.41818e-08
3.00366e-08
3.76598e-09
-1.72322e-08
-1.85926e-08
-1.32134e-08
-2.32372e-08
-1.22432e-09
4.64553e-08
1.19548e-07
4.16141e-08
7.30965e-08
5.54818e-08
1.21228e-09
5.1281e-08
-5.5465e-08
3.41776e-08
-8.09866e-08
2.48812e-08
-4.53873e-08
1.37606e-08
-5.38209e-08
6.75171e-09
-3.01055e-08
1.70381e-09
-1.61087e-08
-1.4805e-10
-4.70235e-09
-4.80479e-09
1.3471e-09
-9.95831e-09
2.86433e-09
-1.96921e-08
-1.84491e-09
-2.0625e-08
4.62105e-09
1.47767e-08
1.74274e-08
4.00972e-08
1.60104e-08
1.06941e-08
4.36188e-09
-3.17184e-08
-1.86727e-08
-1.47979e-08
-1.65822e-08
6.36447e-09
-1.92741e-08
9.4057e-08
-2.22105e-08
7.71094e-08
1.47552e-08
3.17806e-08
3.09154e-08
-3.51901e-08
4.27115e-08
-5.58849e-08
3.77714e-08
-4.17987e-08
2.85682e-08
-4.58488e-08
1.35811e-08
-3.96747e-08
6.20938e-09
-2.33006e-08
7.49123e-10
-1.41713e-08
-7.08341e-09
-7.38839e-09
-1.67658e-08
-5.30504e-09
-1.61056e-08
-1.21224e-08
-1.31012e-08
-8.10203e-10
1.32417e-08
2.56824e-08
3.73181e-08
2.10248e-08
-2.25852e-09
-1.3593e-08
-3.82942e-08
-2.50793e-08
-1.57401e-08
-5.74913e-09
7.41495e-09
-7.50905e-08
3.72727e-08
-6.49843e-08
6.65577e-08
-3.43072e-08
4.80006e-08
8.05807e-09
1.5841e-08
3.58543e-08
-2.17208e-08
5.05603e-08
-3.7983e-08
3.66869e-08
-3.86086e-08
2.74974e-08
-3.42999e-08
1.22843e-08
-2.48127e-08
6.76014e-09
-1.8076e-08
-5.30767e-09
-1.70441e-08
-2.54252e-08
-1.11993e-08
-7.99879e-09
-7.36398e-09
7.33115e-09
-7.81236e-09
4.62219e-09
2.29142e-08
1.28311e-08
2.85212e-08
-1.98647e-09
-1.62388e-08
-1.50579e-08
-2.24977e-08
-8.55371e-09
1.15944e-08
1.54375e-08
-9.3005e-08
-5.06712e-09
-8.59213e-08
5.1777e-08
-6.35355e-08
5.83964e-08
-2.72778e-08
3.32127e-08
2.16597e-08
1.19098e-08
4.7952e-08
-5.78401e-09
4.19322e-08
-2.89287e-08
3.9615e-08
-2.57835e-08
2.10543e-08
-2.5705e-08
7.67311e-09
-1.7184e-08
1.08514e-09
-1.40525e-08
-2.33798e-08
-1.84557e-08
-1.04442e-08
-4.5983e-09
3.89763e-08
-5.57827e-09
7.80049e-09
4.26268e-09
-3.28374e-08
2.64458e-08
-4.13282e-09
7.72842e-10
2.67601e-08
-1.5561e-08
2.63043e-09
2.26047e-08
2.01013e-08
-7.97195e-08
-2.8987e-08
-8.28916e-08
3.36364e-08
-8.44451e-08
5.30269e-08
-4.85264e-08
3.92643e-08
6.4668e-09
2.60078e-08
3.32624e-08
8.8075e-09
4.64992e-08
-5.66862e-09
4.45624e-08
-1.0341e-08
3.1394e-08
-1.74495e-08
9.62212e-09
-1.4081e-08
3.34478e-09
-1.4511e-08
-1.1061e-08
-1.73504e-08
-1.69897e-08
-7.41657e-09
4.99703e-08
5.6107e-09
3.27867e-08
7.64409e-10
-5.80248e-08
1.9773e-09
-2.32898e-08
7.61503e-09
6.62396e-08
-1.58041e-09
1.22838e-08
1.20002e-08
1.06995e-08
-4.79226e-08
-2.75201e-08
-6.70317e-08
2.07165e-08
-9.47793e-08
3.80937e-08
-6.18713e-08
3.28146e-08
-1.24894e-08
2.36097e-08
1.84955e-08
1.12506e-08
4.62317e-08
2.18991e-10
4.29773e-08
-2.48715e-09
3.85871e-08
-6.23642e-09
1.31101e-08
-7.06778e-09
2.96848e-09
-8.71507e-09
1.069e-09
-1.08709e-08
-6.66917e-09
-3.2816e-09
4.43626e-08
6.53013e-09
3.89287e-08
-1.72416e-10
-5.82309e-08
1.18285e-09
-3.73083e-08
3.68221e-09
7.9125e-08
1.07841e-08
2.2169e-08
7.53878e-09
2.61824e-09
-2.18194e-08
-2.33534e-08
-5.31882e-08
1.21137e-08
-9.62323e-08
2.48775e-08
-7.08672e-08
1.95922e-08
-2.66062e-08
1.51556e-08
6.48853e-09
1.02127e-08
4.50376e-08
3.64695e-09
4.00872e-08
2.66025e-10
4.06337e-08
-5.93393e-10
1.54736e-08
-2.26039e-10
4.81252e-09
-2.0958e-08
8.98265e-09
-4.80032e-09
-6.42763e-10
4.63305e-09
3.97067e-08
7.95671e-09
4.32736e-08
-3.10006e-09
-5.19732e-08
-8.99182e-09
-3.50756e-08
5.96676e-09
7.19252e-08
1.13498e-08
2.47348e-08
-9.09232e-11
-2.42554e-09
6.09863e-10
-1.06877e-08
-4.28435e-08
6.15589e-09
-9.68816e-08
1.14754e-08
-7.38862e-08
9.37956e-09
-3.56501e-08
7.31143e-09
-1.49523e-09
6.13155e-09
4.36546e-08
3.67244e-09
3.6697e-08
-2.85776e-09
4.25992e-08
7.32217e-09
1.65937e-08
2.79297e-09
8.93282e-09
-1.11907e-08
1.06686e-08
4.24094e-09
4.80559e-09
1.25524e-08
3.06409e-08
7.28764e-09
4.20626e-08
-1.37462e-08
-4.22046e-08
-1.05819e-08
-3.62449e-08
5.15071e-09
5.7519e-08
9.31835e-09
2.40478e-08
1.2577e-09
-1.4631e-09
1.19563e-08
1.47996e-10
-3.93037e-08
1.76301e-11
-9.61373e-08
1.31061e-09
-7.37535e-08
6.66537e-10
-4.09863e-08
7.39207e-10
-3.33526e-09
3.52765e-10
3.96733e-08
9.42399e-10
3.04923e-08
1.33789e-09
4.79888e-08
1.1383e-09
2.08784e-08
1.16467e-09
-3.98369e-09
8.56659e-10
1.96901e-09
6.95129e-10
2.235e-08
3.50124e-10
4.3791e-08
3.08341e-10
4.0377e-08
1.09205e-09
-4.96749e-08
4.35941e-10
-4.83433e-08
3.88208e-10
4.33709e-08
1.56939e-10
2.1409e-08
-3.05719e-10
-4.09314e-10
1.17288e-08
1.08294e-08
-3.90948e-08
-5.06828e-09
-9.63375e-08
-1.12016e-08
-7.33339e-08
-7.95141e-09
-4.10593e-08
-6.24219e-09
-2.62802e-09
-5.16823e-09
4.00606e-08
-2.42876e-09
3.03601e-08
4.14207e-09
4.81359e-08
-5.74289e-09
2.07298e-08
-1.6612e-09
-4.34128e-09
1.30054e-08
1.46312e-09
-3.25317e-09
2.20804e-08
-1.18387e-08
4.39744e-08
-7.30594e-09
3.99589e-08
1.20037e-08
-4.9793e-08
1.03466e-08
-4.87504e-08
-4.496e-09
4.30158e-08
-1.03925e-08
2.16074e-08
-2.75599e-09
4.88751e-10
6.63998e-10
2.39606e-08
-4.37683e-08
-1.1872e-08
-9.66172e-08
-2.30935e-08
-7.38574e-08
-1.81506e-08
-3.53997e-08
-1.26228e-08
-1.71851e-10
-7.72886e-09
4.45285e-08
-3.03181e-09
3.73117e-08
-3.97239e-10
4.3131e-08
3.094e-10
1.66713e-08
5.21403e-10
8.45673e-09
9.64493e-09
1.03326e-08
5.29089e-09
5.14787e-09
-4.50668e-09
2.93557e-08
-8.27614e-09
4.34672e-08
6.65327e-09
-4.20846e-08
1.01043e-08
-3.8442e-08
-5.22181e-09
5.59616e-08
-1.04909e-08
2.46457e-08
-1.40279e-09
2.04289e-09
-2.29444e-08
2.80587e-08
-5.34808e-08
-2.04944e-08
-9.66397e-08
-3.74748e-08
-6.96692e-08
-3.02895e-08
-2.66618e-08
-2.06858e-08
6.39878e-09
-9.6623e-09
4.58424e-08
2.75392e-10
4.06561e-08
2.88541e-09
4.13464e-08
6.36284e-09
1.49286e-08
6.53381e-09
5.02564e-09
9.05499e-09
8.13052e-09
1.06757e-08
-1.31893e-09
3.86148e-09
3.99211e-08
-6.07487e-09
4.39103e-08
-2.52115e-10
-5.09422e-08
-4.53461e-10
-3.70223e-08
-5.45481e-09
6.64355e-08
-8.75093e-09
2.58636e-08
-9.55286e-10
-7.62256e-10
-4.95176e-08
2.90082e-08
-6.7806e-08
-3.25586e-08
-9.43514e-08
-5.2078e-08
-6.08307e-08
-3.52386e-08
-1.26533e-08
-2.37836e-08
1.86533e-08
-1.02701e-08
4.67966e-08
7.53241e-09
4.26331e-08
1.11707e-08
3.8957e-08
1.76246e-08
1.33323e-08
1.37745e-08
2.95036e-09
1.57514e-08
1.44679e-09
1.78708e-08
-7.24623e-09
7.93286e-09
4.39963e-08
-4.8507e-09
4.02273e-08
2.02312e-09
-5.85098e-08
-6.64989e-09
-3.57993e-08
-8.07261e-09
7.60087e-08
-3.76828e-09
2.25666e-08
-1.00215e-08
-8.46557e-09
-8.0375e-08
4.81362e-09
-8.47523e-08
-4.97109e-08
-8.10295e-08
-5.71957e-08
-4.71494e-08
-3.56866e-08
3.34425e-09
-1.42102e-08
3.53934e-08
9.84896e-09
4.60218e-08
2.72005e-08
4.44036e-08
2.46097e-08
3.066e-08
2.64504e-08
1.07937e-08
1.9306e-08
2.30302e-09
1.57075e-08
-1.05469e-08
1.90154e-08
-1.7788e-08
5.60593e-09
5.21125e-08
7.74438e-09
2.98749e-08
-6.39302e-09
-5.91101e-08
-2.68692e-08
-2.38642e-08
9.11651e-11
7.04909e-08
1.45861e-08
1.55963e-08
-1.30457e-08
-1.73209e-08
-9.21688e-08
-3.82343e-08
-8.68155e-08
-6.65596e-08
-6.48187e-08
-4.38117e-08
-2.68687e-08
-9.8316e-09
2.37051e-08
2.47115e-08
4.83389e-08
4.23272e-08
4.18667e-08
4.12251e-08
4.02412e-08
3.59776e-08
2.17432e-08
2.56207e-08
6.48031e-09
1.71632e-08
1.24624e-09
1.81957e-08
-2.29372e-08
1.18848e-08
-9.97459e-09
7.41041e-09
3.74369e-08
7.03519e-09
5.20766e-09
-2.48734e-08
-3.25605e-08
-2.59972e-08
-5.49443e-09
1.60019e-08
3.44123e-08
2.28654e-08
6.98509e-10
-1.7359e-08
-2.05012e-08
-7.3903e-08
-9.42559e-08
-6.41814e-08
-7.76994e-08
-3.42605e-08
-3.0462e-08
7.27414e-09
3.5023e-08
3.89887e-08
5.67521e-08
4.80598e-08
5.66754e-08
3.60632e-08
4.5479e-08
2.87914e-08
4.31372e-08
1.23708e-08
2.44808e-08
5.5371e-09
1.54002e-08
-5.34873e-09
1.00678e-08
-2.53166e-08
5.97924e-09
-7.67923e-09
1.24429e-08
5.00491e-09
-2.22802e-10
5.75087e-09
-2.41627e-08
1.08793e-08
-1.80481e-08
-2.80507e-09
1.4257e-08
-1.44944e-08
2.58382e-08
-1.22395e-08
2.89107e-09
-8.48523e-09
-1.90023e-08
-1.19139e-07
-2.02174e-08
-7.21576e-08
1.37049e-08
-3.14606e-09
3.06293e-08
5.61383e-08
4.42006e-08
8.05736e-08
3.87724e-08
4.17556e-08
2.96587e-08
5.24865e-08
1.28421e-08
2.79807e-08
6.33385e-09
1.63417e-08
2.16556e-09
5.0537e-09
-7.28863e-09
-1.29045e-09
-1.77319e-08
-2.62422e-09
-1.63117e-08
2.04477e-09
-1.38245e-08
-4.85657e-10
1.47792e-08
-1.66587e-08
3.49479e-08
-1.54844e-08
-2.38669e-09
-1.97871e-09
-4.13477e-08
2.2285e-08
-1.82962e-08
2.31139e-08
5.54779e-09
4.64425e-08
-8.72784e-08
4.15926e-08
-4.86594e-08
5.52848e-08
1.2632e-08
5.03181e-08
4.27308e-08
3.45592e-08
4.44695e-08
2.53493e-08
2.23709e-08
1.35843e-08
2.24428e-08
6.91159e-09
1.43824e-08
1.33842e-09
7.41864e-09
-1.07892e-09
1.41135e-09
-5.59612e-09
-1.00256e-09
-1.1575e-08
-2.39286e-09
-2.07342e-08
-2.36149e-09
-2.16712e-08
-4.05434e-09
1.37901e-08
-8.06554e-09
3.90558e-08
-1.42503e-08
1.13774e-08
-3.21651e-09
-3.5388e-08
1.59335e-08
-1.652e-08
2.20316e-08
8.88252e-09
8.73489e-08
9.4754e-08
7.41167e-08
5.27929e-08
3.41278e-08
1.42839e-08
6.97702e-09
4.77494e-09
7.40418e-10
6.16325e-10
-3.52291e-09
-9.49582e-09
-2.08925e-08
-2.29207e-08
7.42101e-09
4.45326e-08
2.67104e-08
-1.79989e-08
-1.33478e-08
)
;

boundaryField
{
    sides
    {
        type            calculated;
        value           uniform 0;
    }
    inlet
    {
        type            calculated;
        value           uniform 0;
    }
    outlet
    {
        type            calculated;
        value           nonuniform List<scalar> 
20
(
7.66487e-09
1.58716e-08
1.17763e-08
-5.6846e-09
-3.43374e-08
-6.20078e-08
-6.60335e-08
-5.85096e-08
-4.67842e-08
-4.07876e-08
-4.03345e-08
-4.35959e-08
-5.38403e-08
-6.41353e-08
-6.48332e-08
-4.5096e-08
-1.42107e-08
1.17358e-08
1.74946e-08
1.0797e-08
)
;
    }
    frontAndBack
    {
        type            empty;
        value           nonuniform List<scalar> 0();
    }
}


// ************************************************************************* //
