/*--------------------------------*- C++ -*----------------------------------*\
  =========                 |
  \\      /  F ield         | OpenFOAM: The Open Source CFD Toolbox
   \\    /   O peration     | Website:  https://openfoam.org
    \\  /    A nd           | Version:  9
     \\/     M anipulation  |
\*---------------------------------------------------------------------------*/
FoamFile
{
    format      ascii;
    class       volVectorField;
    location    "3";
    object      ddtCorrDdt0(hU);
}
// * * * * * * * * * * * * * * * * * * * * * * * * * * * * * * * * * * * * * //

dimensions      [0 2 -2 0 0 0 0];

internalField   nonuniform List<vector> 
400
(
(3.17378e-06 8.44088e-06 0)
(1.73118e-05 5.80296e-06 0)
(1.58421e-05 -1.11336e-06 0)
(1.31154e-05 -4.0934e-06 0)
(9.52846e-06 -4.57051e-06 0)
(5.29346e-06 -4.4163e-06 0)
(2.25111e-06 -2.77814e-06 0)
(9.03211e-07 -1.36048e-06 0)
(3.38192e-07 -6.02427e-07 0)
(-3.56595e-08 -1.36813e-07 0)
(-6.10401e-07 1.03405e-07 0)
(-1.37982e-06 1.93867e-07 0)
(-2.87298e-06 2.45994e-07 0)
(-3.73185e-06 4.8224e-07 0)
(-5.24163e-07 9.13115e-07 0)
(4.69193e-06 1.44747e-06 0)
(5.02717e-06 4.66398e-07 0)
(4.74766e-07 -1.87856e-06 0)
(-4.38504e-07 -2.79589e-06 0)
(-1.17758e-06 -1.58067e-06 0)
(-2.14967e-06 2.05023e-05 0)
(8.8627e-06 1.42304e-05 0)
(9.86895e-06 -1.05954e-06 0)
(1.05452e-05 -9.54931e-06 0)
(9.00179e-06 -1.25334e-05 0)
(6.51855e-06 -1.13535e-05 0)
(3.85378e-06 -7.98718e-06 0)
(2.1469e-06 -4.40709e-06 0)
(8.39437e-07 -2.16442e-06 0)
(3.10794e-08 -5.87049e-07 0)
(-6.89586e-07 2.70332e-07 0)
(-1.65792e-06 5.16855e-07 0)
(-2.52586e-06 1.24429e-07 0)
(-3.31025e-06 9.95393e-07 0)
(-4.99781e-07 2.66445e-06 0)
(4.85293e-06 3.19912e-06 0)
(3.739e-06 1.07974e-06 0)
(-2.07145e-06 -3.57259e-06 0)
(-3.65461e-06 -5.01969e-06 0)
(-1.15438e-07 -2.59653e-06 0)
(-8.58934e-06 2.15403e-05 0)
(-3.42824e-06 1.65886e-05 0)
(4.56668e-07 2.65417e-06 0)
(3.97021e-06 -8.86102e-06 0)
(7.7575e-06 -1.40464e-05 0)
(8.30918e-06 -1.35163e-05 0)
(6.63793e-06 -1.02147e-05 0)
(4.204e-06 -7.03663e-06 0)
(1.89768e-06 -3.95347e-06 0)
(5.99632e-07 -1.94251e-06 0)
(-7.22706e-07 -5.85611e-07 0)
(-2.61136e-06 -2.21374e-07 0)
(-2.54299e-06 -1.38586e-06 0)
(-2.22408e-06 3.18599e-07 0)
(-7.76868e-07 4.06046e-06 0)
(3.79325e-06 3.55271e-06 0)
(4.25659e-06 -5.60412e-07 0)
(-2.87628e-06 -4.01827e-06 0)
(-6.55538e-06 -2.80561e-06 0)
(-1.42484e-07 -6.23626e-07 0)
(-1.07507e-05 1.33178e-05 0)
(-1.40155e-05 1.50025e-05 0)
(-8.87832e-06 7.00186e-06 0)
(-2.53986e-06 -2.12869e-06 0)
(4.294e-06 -8.29415e-06 0)
(8.59054e-06 -1.01867e-05 0)
(8.85234e-06 -8.86007e-06 0)
(6.54445e-06 -7.41498e-06 0)
(3.74018e-06 -4.82186e-06 0)
(1.68363e-06 -3.24418e-06 0)
(2.93074e-07 -2.50867e-06 0)
(-3.06147e-06 -1.63622e-06 0)
(-2.84985e-06 -1.93518e-06 0)
(8.67837e-07 -8.18038e-07 0)
(-3.0784e-07 4.94275e-06 0)
(-3.87583e-07 4.78208e-06 0)
(3.50382e-06 -2.71896e-06 0)
(6.06619e-07 -4.47029e-06 0)
(-4.92304e-06 6.75639e-07 0)
(-1.03731e-06 2.10709e-06 0)
(-7.938e-06 3.29055e-06 0)
(-1.92218e-05 1.19922e-05 0)
(-1.43363e-05 1.00248e-05 0)
(-9.18214e-06 4.57599e-06 0)
(-4.72819e-07 -1.01665e-06 0)
(6.98468e-06 -4.05585e-06 0)
(9.10495e-06 -6.27778e-06 0)
(8.16059e-06 -5.92085e-06 0)
(6.17569e-06 -4.93686e-06 0)
(2.48982e-06 -3.58775e-06 0)
(8.65002e-07 -3.575e-06 0)
(-1.64343e-06 -2.92517e-06 0)
(-3.4926e-06 -1.32383e-06 0)
(3.63486e-06 -1.54639e-06 0)
(3.66797e-06 2.9837e-06 0)
(-5.00529e-06 5.48908e-06 0)
(-1.54388e-06 -1.59789e-06 0)
(5.33281e-06 -3.7504e-06 0)
(3.81072e-07 3.52473e-06 0)
(-3.00575e-06 4.00863e-06 0)
(-3.10996e-06 -3.65133e-06 0)
(-1.86952e-05 8.59249e-06 0)
(-1.67627e-05 1.08921e-05 0)
(-1.31232e-05 7.2156e-06 0)
(-4.57931e-06 3.7869e-06 0)
(4.22905e-06 4.74806e-07 0)
(8.58437e-06 -2.94594e-06 0)
(8.80379e-06 -3.44433e-06 0)
(7.92477e-06 -4.07723e-06 0)
(3.65768e-06 -3.12355e-06 0)
(1.17789e-06 -3.18511e-06 0)
(1.80349e-07 -3.49959e-06 0)
(-2.92283e-06 -1.1656e-06 0)
(2.76097e-06 -1.12301e-07 0)
(8.08309e-06 7.69194e-07 0)
(-3.94227e-06 3.0874e-06 0)
(-6.96999e-06 3.90173e-07 0)
(6.61027e-06 -1.9084e-06 0)
(6.22516e-06 3.29729e-06 0)
(-4.94241e-06 3.38216e-06 0)
(2.25158e-06 -6.04092e-06 0)
(-1.45096e-05 5.42838e-06 0)
(-1.65623e-05 9.08073e-06 0)
(-1.55159e-05 7.21198e-06 0)
(-7.94545e-06 4.91061e-06 0)
(8.0317e-07 1.95241e-06 0)
(7.25712e-06 -5.52864e-07 0)
(8.78091e-06 -1.1605e-06 0)
(8.35157e-06 -2.28754e-06 0)
(4.92038e-06 -1.92093e-06 0)
(1.30893e-06 -2.20436e-06 0)
(1.23174e-06 -2.91331e-06 0)
(7.09248e-08 -1.02879e-06 0)
(2.49097e-06 1.24352e-06 0)
(7.72295e-06 3.55623e-07 0)
(-1.83774e-06 4.50292e-07 0)
(-9.23758e-06 8.31587e-07 0)
(5.02733e-06 7.90455e-07 0)
(9.89382e-06 1.7462e-06 0)
(-4.50576e-06 1.51412e-06 0)
(5.20145e-06 -5.40411e-06 0)
(-1.06111e-05 3.16474e-06 0)
(-1.52308e-05 6.33475e-06 0)
(-1.6706e-05 5.34415e-06 0)
(-1.05054e-05 3.90316e-06 0)
(-1.66085e-06 1.99432e-06 0)
(5.87716e-06 3.1018e-07 0)
(8.48911e-06 -2.58581e-09 0)
(8.37423e-06 -7.06872e-07 0)
(5.58058e-06 -8.05055e-07 0)
(1.34061e-06 -1.24354e-06 0)
(1.88637e-06 -1.37368e-06 0)
(2.01964e-06 -2.94241e-07 0)
(2.65367e-06 1.28337e-06 0)
(7.32054e-06 -4.16025e-07 0)
(-3.57582e-07 -7.52427e-07 0)
(-8.2804e-06 9.75198e-07 0)
(3.32365e-06 1.92082e-06 0)
(1.01936e-05 2.42101e-07 0)
(-3.52264e-06 -1.01682e-07 0)
(7.29401e-06 -3.61504e-06 0)
(-7.3384e-06 1.75273e-06 0)
(-1.40451e-05 3.69995e-06 0)
(-1.70319e-05 3.0498e-06 0)
(-1.20259e-05 2.29625e-06 0)
(-3.11593e-06 1.56729e-06 0)
(4.59752e-06 6.52607e-07 0)
(8.25537e-06 -4.04548e-07 0)
(8.15466e-06 9.81949e-07 0)
(5.64522e-06 3.32646e-07 0)
(1.84428e-06 -2.21712e-06 0)
(2.94992e-06 -1.55875e-07 0)
(2.97817e-06 2.62994e-06 0)
(1.87414e-06 2.36368e-06 0)
(5.36294e-06 -1.65489e-06 0)
(1.3692e-06 -2.24082e-06 0)
(-7.08423e-06 1.11112e-06 0)
(1.10407e-06 2.25868e-06 0)
(8.75914e-06 -2.45819e-08 0)
(-2.28595e-06 -6.73111e-07 0)
(8.09952e-06 -1.13456e-06 0)
(-5.62657e-06 5.96754e-07 0)
(-1.3786e-05 1.26411e-06 0)
(-1.65711e-05 1.07392e-06 0)
(-1.30931e-05 7.80044e-07 0)
(-3.76394e-06 7.8784e-07 0)
(4.91081e-06 2.79598e-07 0)
(6.39582e-06 -2.26583e-07 0)
(8.32841e-06 1.15444e-06 0)
(8.97836e-06 4.14675e-07 0)
(-1.19062e-06 -1.55658e-06 0)
(-3.20429e-07 8.03331e-07 0)
(6.10984e-06 2.71034e-06 0)
(5.35221e-06 9.9679e-07 0)
(4.88329e-06 -2.06164e-06 0)
(1.17207e-07 -2.17224e-06 0)
(-8.31513e-06 3.24814e-07 0)
(-1.64647e-06 1.38212e-06 0)
(6.98229e-06 4.32995e-07 0)
(-1.79908e-06 -1.28141e-07 0)
(8.08762e-06 1.18479e-06 0)
(-5.60803e-06 -4.44018e-07 0)
(-1.38482e-05 -1.05406e-06 0)
(-1.64811e-05 -8.01475e-07 0)
(-1.30947e-05 -5.14762e-07 0)
(-3.67919e-06 -6.15521e-07 0)
(5.00828e-06 9.43052e-09 0)
(6.42105e-06 5.94973e-07 0)
(8.32791e-06 -7.93942e-07 0)
(8.97959e-06 -5.63624e-08 0)
(-1.21947e-06 1.87255e-06 0)
(-4.30629e-07 -5.87682e-07 0)
(6.0319e-06 -2.56672e-06 0)
(5.36588e-06 -8.60101e-07 0)
(4.83193e-06 2.044e-06 0)
(7.58758e-08 2.24263e-06 0)
(-8.39742e-06 -1.98394e-07 0)
(-1.70758e-06 -1.4722e-06 0)
(6.9677e-06 -7.02791e-07 0)
(-1.73167e-06 -1.66498e-07 0)
(7.30242e-06 3.70666e-06 0)
(-7.41993e-06 -1.63998e-06 0)
(-1.40888e-05 -3.50699e-06 0)
(-1.70336e-05 -2.79305e-06 0)
(-1.20089e-05 -1.95234e-06 0)
(-2.93138e-06 -1.25136e-06 0)
(4.79224e-06 -4.62763e-07 0)
(8.40932e-06 5.6622e-07 0)
(8.28954e-06 -8.10145e-07 0)
(5.68855e-06 -1.48857e-07 0)
(1.85526e-06 2.34653e-06 0)
(2.81836e-06 3.32269e-07 0)
(2.96929e-06 -2.51772e-06 0)
(1.77929e-06 -2.33299e-06 0)
(5.4713e-06 1.65065e-06 0)
(1.46221e-06 2.32756e-06 0)
(-7.351e-06 -9.32593e-07 0)
(7.40843e-07 -2.24112e-06 0)
(8.73264e-06 -3.93369e-07 0)
(-1.94771e-06 3.42418e-07 0)
(5.14942e-06 5.52262e-06 0)
(-1.07949e-05 -3.1217e-06 0)
(-1.52763e-05 -6.09891e-06 0)
(-1.66195e-05 -4.96298e-06 0)
(-1.04142e-05 -3.39364e-06 0)
(-1.7029e-06 -1.621e-06 0)
(5.96271e-06 -1.77405e-07 0)
(8.63862e-06 5.8074e-08 0)
(8.53419e-06 7.00169e-07 0)
(5.57376e-06 7.65479e-07 0)
(1.30728e-06 1.22344e-06 0)
(1.85566e-06 1.41792e-06 0)
(1.81441e-06 3.57144e-07 0)
(2.59541e-06 -1.31972e-06 0)
(7.47548e-06 5.27525e-07 0)
(-2.06614e-07 8.83908e-07 0)
(-8.36182e-06 -9.39791e-07 0)
(2.53702e-06 -1.62316e-06 0)
(9.73289e-06 -4.99358e-08 0)
(-2.91732e-06 1.8252e-07 0)
(2.07981e-06 6.10129e-06 0)
(-1.46497e-05 -5.28668e-06 0)
(-1.66678e-05 -8.93395e-06 0)
(-1.53741e-05 -6.60003e-06 0)
(-7.98255e-06 -4.41159e-06 0)
(1.01046e-06 -1.92382e-06 0)
(7.28124e-06 7.44414e-07 0)
(8.74278e-06 1.22965e-06 0)
(8.35321e-06 2.31532e-06 0)
(5.04479e-06 1.84975e-06 0)
(1.28234e-06 2.30512e-06 0)
(1.28426e-06 2.88634e-06 0)
(8.27882e-08 1.13701e-06 0)
(2.40861e-06 -1.14279e-06 0)
(7.73303e-06 -4.9503e-08 0)
(-1.78735e-06 -5.80039e-07 0)
(-8.87326e-06 -1.22138e-06 0)
(4.63195e-06 -1.08166e-06 0)
(9.66685e-06 -1.2212e-06 0)
(-4.25305e-06 -1.09703e-06 0)
(-3.27673e-06 3.63366e-06 0)
(-1.87831e-05 -8.32458e-06 0)
(-1.68099e-05 -1.05786e-05 0)
(-1.26096e-05 -7.06394e-06 0)
(-4.57779e-06 -3.77131e-06 0)
(4.03887e-06 -3.08542e-07 0)
(8.68337e-06 3.04963e-06 0)
(8.81757e-06 3.44323e-06 0)
(7.77743e-06 4.2032e-06 0)
(3.74611e-06 3.34413e-06 0)
(1.16211e-06 3.31699e-06 0)
(1.2618e-07 3.62784e-06 0)
(-2.86318e-06 1.31053e-06 0)
(2.77064e-06 3.71166e-07 0)
(7.99494e-06 -6.63688e-07 0)
(-4.13359e-06 -3.39277e-06 0)
(-7.3072e-06 -5.99559e-07 0)
(6.8062e-06 1.39759e-06 0)
(7.25116e-06 -2.68892e-06 0)
(-4.97714e-06 -2.92435e-06 0)
(-8.00683e-06 -3.40439e-06 0)
(-1.9284e-05 -1.18201e-05 0)
(-1.43455e-05 -9.49965e-06 0)
(-9.434e-06 -4.34833e-06 0)
(-1.76996e-07 1.08416e-06 0)
(7.17622e-06 4.72861e-06 0)
(9.31318e-06 6.42001e-06 0)
(8.10891e-06 5.98727e-06 0)
(6.24538e-06 5.0923e-06 0)
(2.42664e-06 3.82381e-06 0)
(8.2945e-07 3.58192e-06 0)
(-1.50399e-06 3.03872e-06 0)
(-3.53815e-06 1.40319e-06 0)
(3.60398e-06 1.72529e-06 0)
(3.22241e-06 -3.24502e-06 0)
(-5.25704e-06 -5.35054e-06 0)
(-1.52423e-06 1.64147e-06 0)
(5.86392e-06 3.76887e-06 0)
(9.08537e-07 -3.58975e-06 0)
(-4.22338e-06 -4.24849e-06 0)
(-1.06983e-05 -1.34251e-05 0)
(-1.39151e-05 -1.5053e-05 0)
(-8.71396e-06 -6.62932e-06 0)
(-2.57127e-06 2.57938e-06 0)
(4.46938e-06 8.66833e-06 0)
(8.72394e-06 1.04706e-05 0)
(8.43375e-06 9.22028e-06 0)
(6.63695e-06 7.88984e-06 0)
(3.9803e-06 5.04871e-06 0)
(1.50616e-06 3.29194e-06 0)
(1.08456e-07 2.74028e-06 0)
(-2.98544e-06 1.84124e-06 0)
(-2.82815e-06 2.00528e-06 0)
(7.18393e-07 7.93737e-07 0)
(-5.50379e-07 -4.9156e-06 0)
(-2.91867e-07 -4.38373e-06 0)
(3.09032e-06 2.86734e-06 0)
(8.18212e-07 4.69297e-06 0)
(-5.41104e-06 -1.52502e-06 0)
(-2.25015e-06 -2.89873e-06 0)
(-8.56529e-06 -2.15217e-05 0)
(-3.27601e-06 -1.66135e-05 0)
(5.30613e-07 -2.69805e-06 0)
(3.97638e-06 8.91294e-06 0)
(7.7845e-06 1.41079e-05 0)
(8.5671e-06 1.32337e-05 0)
(6.81542e-06 1.01711e-05 0)
(4.29006e-06 7.08972e-06 0)
(1.78678e-06 4.00724e-06 0)
(8.04406e-07 2.04566e-06 0)
(-5.6418e-07 8.02703e-07 0)
(-2.7857e-06 4.3986e-07 0)
(-2.67441e-06 1.51602e-06 0)
(-2.25771e-06 -2.45924e-07 0)
(-7.29617e-07 -3.81598e-06 0)
(3.67307e-06 -3.41755e-06 0)
(4.03236e-06 8.59308e-07 0)
(-3.00954e-06 4.43436e-06 0)
(-7.26096e-06 2.67378e-06 0)
(-4.22175e-07 3.13383e-07 0)
(-2.09182e-06 -2.03823e-05 0)
(8.94656e-06 -1.40329e-05 0)
(9.67763e-06 9.73006e-07 0)
(1.04269e-05 9.64577e-06 0)
(9.09113e-06 1.26564e-05 0)
(6.52937e-06 1.12714e-05 0)
(3.88896e-06 7.86817e-06 0)
(2.16e-06 4.29895e-06 0)
(7.89401e-07 2.25206e-06 0)
(-1.08273e-07 7.31547e-07 0)
(-8.28301e-07 -1.81738e-07 0)
(-1.90823e-06 -3.90069e-07 0)
(-2.76563e-06 6.04622e-08 0)
(-3.6445e-06 -7.87288e-07 0)
(-4.95331e-07 -2.36007e-06 0)
(4.4898e-06 -3.16955e-06 0)
(3.70669e-06 -7.92067e-07 0)
(-2.2882e-06 3.58487e-06 0)
(-4.21739e-06 5.22227e-06 0)
(-1.37709e-07 2.71023e-06 0)
(3.32148e-06 -8.36182e-06 0)
(1.72537e-05 -5.64426e-06 0)
(1.58499e-05 1.17081e-06 0)
(1.31135e-05 4.15797e-06 0)
(9.4586e-06 4.68639e-06 0)
(5.30723e-06 4.42633e-06 0)
(2.56626e-06 2.75785e-06 0)
(1.17715e-06 1.40742e-06 0)
(5.0377e-07 6.24084e-07 0)
(2.87365e-08 8.94389e-08 0)
(-5.79514e-07 -1.2337e-07 0)
(-1.37923e-06 -2.40891e-07 0)
(-2.83596e-06 -2.41628e-07 0)
(-3.68735e-06 -4.55211e-07 0)
(-6.91355e-07 -8.35626e-07 0)
(4.49094e-06 -1.4722e-06 0)
(4.7079e-06 -4.46738e-07 0)
(-3.53968e-08 1.46946e-06 0)
(-4.19629e-07 2.69007e-06 0)
(-9.19897e-07 1.54221e-06 0)
)
;

boundaryField
{
    sides
    {
        type            calculated;
        value           nonuniform List<vector> 
40
(
(3.32148e-06 0 0)
(1.72537e-05 0 0)
(1.58499e-05 0 0)
(1.31135e-05 0 0)
(9.4586e-06 0 0)
(5.30723e-06 0 0)
(2.56626e-06 0 0)
(1.17715e-06 0 0)
(5.0377e-07 0 0)
(2.87365e-08 0 0)
(-5.79514e-07 0 0)
(-1.37923e-06 0 0)
(-2.83596e-06 0 0)
(-3.68735e-06 0 0)
(-6.91355e-07 0 0)
(4.49094e-06 0 0)
(4.7079e-06 0 0)
(-3.53968e-08 0 0)
(-4.19629e-07 0 0)
(-9.19897e-07 0 0)
(3.17378e-06 0 0)
(1.73118e-05 0 0)
(1.58421e-05 0 0)
(1.31154e-05 0 0)
(9.52846e-06 0 0)
(5.29346e-06 0 0)
(2.25111e-06 0 0)
(9.03211e-07 0 0)
(3.38192e-07 0 0)
(-3.56595e-08 0 0)
(-6.10401e-07 0 0)
(-1.37982e-06 0 0)
(-2.87298e-06 0 0)
(-3.73185e-06 0 0)
(-5.24163e-07 0 0)
(4.69193e-06 0 0)
(5.02717e-06 0 0)
(4.74766e-07 0 0)
(-4.38504e-07 0 0)
(-1.17758e-06 0 0)
)
;
    }
    inlet
    {
        type            calculated;
        value           uniform (0 0 0);
    }
    outlet
    {
        type            calculated;
        value           nonuniform List<vector> 
20
(
(-1.17758e-06 -1.58067e-06 0)
(-1.15438e-07 -2.59653e-06 0)
(-1.42484e-07 -6.23626e-07 0)
(-1.03731e-06 2.10709e-06 0)
(-3.00575e-06 4.00863e-06 0)
(-4.94241e-06 3.38216e-06 0)
(-4.50576e-06 1.51412e-06 0)
(-3.52264e-06 -1.01682e-07 0)
(-2.28595e-06 -6.73111e-07 0)
(-1.79908e-06 -1.28141e-07 0)
(-1.73167e-06 -1.66498e-07 0)
(-1.94771e-06 3.42418e-07 0)
(-2.91732e-06 1.8252e-07 0)
(-4.25305e-06 -1.09703e-06 0)
(-4.97714e-06 -2.92435e-06 0)
(-4.22338e-06 -4.24849e-06 0)
(-2.25015e-06 -2.89873e-06 0)
(-4.22175e-07 3.13383e-07 0)
(-1.37709e-07 2.71023e-06 0)
(-9.19897e-07 1.54221e-06 0)
)
;
    }
    frontAndBack
    {
        type            empty;
    }
}


// ************************************************************************* //
