/*--------------------------------*- C++ -*----------------------------------*\
  =========                 |
  \\      /  F ield         | OpenFOAM: The Open Source CFD Toolbox
   \\    /   O peration     | Website:  https://openfoam.org
    \\  /    A nd           | Version:  9
     \\/     M anipulation  |
\*---------------------------------------------------------------------------*/
FoamFile
{
    format      ascii;
    class       volScalarField;
    location    "3";
    object      h;
}
// * * * * * * * * * * * * * * * * * * * * * * * * * * * * * * * * * * * * * //

dimensions      [0 1 0 0 0 0 0];

internalField   nonuniform List<scalar> 
400
(
0.0100321
0.0100176
0.0100063
0.0099996
0.00999579
0.00999477
0.0099957
0.00999657
0.00999724
0.00999785
0.00999845
0.0100001
0.0100032
0.0100075
0.0100097
0.0100046
0.00999496
0.00999202
0.00999808
0.0100012
0.0100221
0.0100147
0.0100092
0.0100041
0.0100005
0.00999865
0.00999737
0.00999703
0.00999696
0.00999709
0.0099976
0.00999922
0.0100027
0.0100064
0.0100075
0.0100032
0.00999628
0.00999481
0.00999844
0.0100003
0.0100085
0.0100101
0.0100116
0.0100104
0.0100083
0.0100049
0.0100014
0.00999869
0.00999701
0.00999629
0.00999653
0.00999823
0.0100022
0.010005
0.0100041
0.0100009
0.00999902
0.00999923
0.00999909
0.00999919
0.0099983
0.0100052
0.0100107
0.0100144
0.0100139
0.0100105
0.010006
0.010002
0.0099985
0.00999673
0.00999676
0.00999845
0.0100022
0.0100039
0.0100003
0.00999796
0.010002
0.0100041
0.00999976
0.00999816
0.00999367
0.0100007
0.0100069
0.010013
0.0100158
0.0100138
0.0100098
0.0100053
0.0100013
0.00999828
0.00999766
0.00999931
0.0100018
0.0100032
0.0099983
0.00999562
0.0100031
0.0100072
0.0100004
0.00999753
0.00999292
0.00999734
0.0100022
0.0100096
0.010014
0.0100147
0.0100128
0.0100082
0.0100042
0.0100002
0.00999927
0.0100007
0.0100018
0.0100019
0.00999777
0.00999508
0.0100024
0.010007
0.0100001
0.0099974
0.00999444
0.00999558
0.00999853
0.0100056
0.010011
0.0100136
0.0100138
0.01001
0.0100057
0.0100009
0.00999915
0.0100009
0.0100027
0.0100021
0.00999866
0.00999654
0.0100014
0.010005
0.0100001
0.0099981
0.00999572
0.00999455
0.00999635
0.0100027
0.0100084
0.0100124
0.0100139
0.010011
0.010007
0.0100015
0.00999704
0.00999774
0.0100013
0.0100028
0.0100007
0.00999824
0.0100009
0.0100027
0.00999997
0.00999891
0.00999679
0.00999402
0.00999546
0.0100013
0.0100069
0.0100121
0.0100139
0.0100109
0.0100051
0.00999732
0.00999388
0.00999798
0.0100055
0.010006
0.0100013
0.00999819
0.0099999
0.0100012
0.00999983
0.00999944
0.0099972
0.00999376
0.00999512
0.0100008
0.0100065
0.0100134
0.0100176
0.010019
0.0100146
0.00898635
0.0089591
0.0099843
0.0100169
0.0100196
0.0100059
0.00999766
0.00999887
0.0100008
0.0100003
0.00999981
0.0099971
0.00999367
0.00999498
0.0100008
0.0100064
0.0100133
0.0100174
0.0100189
0.0100144
0.0089862
0.00895897
0.00998416
0.0100168
0.0100195
0.0100058
0.00999755
0.00999872
0.0100008
0.0100004
0.00999984
0.00999646
0.00999373
0.00999522
0.010001
0.0100066
0.0100118
0.0100134
0.0100104
0.0100047
0.00999688
0.00999351
0.00999762
0.0100052
0.0100058
0.0100012
0.00999798
0.00999963
0.0100011
0.0100001
0.00999958
0.00999516
0.00999403
0.00999588
0.0100021
0.0100077
0.0100117
0.0100132
0.0100104
0.0100065
0.0100009
0.0099965
0.00999725
0.0100009
0.0100024
0.0100004
0.0099979
0.0100006
0.0100025
0.0100001
0.00999908
0.00999363
0.00999495
0.00999776
0.0100047
0.01001
0.0100129
0.0100129
0.010009
0.0100048
0.0100002
0.0099984
0.0100003
0.0100022
0.0100016
0.00999811
0.00999609
0.0100013
0.0100046
0.01
0.00999827
0.00999187
0.00999647
0.0100011
0.0100085
0.010013
0.0100136
0.0100116
0.0100072
0.0100031
0.0099992
0.0099983
0.00999984
0.0100011
0.0100011
0.0099971
0.00999484
0.0100021
0.0100068
0.0100001
0.00999746
0.00999241
0.00999939
0.0100058
0.0100118
0.0100146
0.0100125
0.0100087
0.010004
0.00999986
0.00999687
0.00999648
0.00999831
0.0100007
0.0100023
0.00999751
0.00999516
0.0100029
0.0100069
0.00999977
0.00999715
0.00999698
0.0100036
0.0100092
0.010013
0.0100124
0.0100088
0.0100043
0.0100004
0.00999705
0.0099952
0.00999533
0.00999722
0.0100011
0.0100029
0.00999947
0.00999744
0.0100015
0.0100039
0.00999907
0.0099975
0.0100071
0.0100085
0.0100099
0.0100088
0.0100066
0.0100031
0.00999942
0.00999683
0.00999522
0.00999464
0.00999492
0.00999664
0.0100007
0.0100037
0.010003
0.00999987
0.00999837
0.00999895
0.00999872
0.00999888
0.0100206
0.0100131
0.0100073
0.0100022
0.00999882
0.00999678
0.00999544
0.00999501
0.00999486
0.00999502
0.00999564
0.00999735
0.010001
0.0100049
0.0100062
0.0100019
0.00999527
0.00999414
0.00999821
0.0100003
0.0100302
0.0100156
0.0100043
0.00999749
0.00999367
0.00999266
0.00999359
0.0099944
0.00999509
0.00999572
0.00999635
0.00999811
0.0100013
0.0100057
0.0100081
0.0100031
0.00999375
0.00999119
0.00999779
0.0100013
)
;

boundaryField
{
    sides
    {
        type            zeroGradient;
    }
    inlet
    {
        type            zeroGradient;
    }
    outlet
    {
        type            fixedValue;
        value           uniform 0.01;
    }
    frontAndBack
    {
        type            empty;
    }
}


// ************************************************************************* //
