/*--------------------------------*- C++ -*----------------------------------*\
  =========                 |
  \\      /  F ield         | OpenFOAM: The Open Source CFD Toolbox
   \\    /   O peration     | Website:  https://openfoam.org
    \\  /    A nd           | Version:  9
     \\/     M anipulation  |
\*---------------------------------------------------------------------------*/
FoamFile
{
    format      ascii;
    class       volScalarField;
    location    "3";
    object      h_0;
}
// * * * * * * * * * * * * * * * * * * * * * * * * * * * * * * * * * * * * * //

dimensions      [0 1 0 0 0 0 0];

internalField   nonuniform List<scalar> 
400
(
0.010039
0.0100258
0.010011
0.00999976
0.00999349
0.00999111
0.00999186
0.0099935
0.00999485
0.00999611
0.00999712
0.00999858
0.0100011
0.0100054
0.0100095
0.0100082
0.0100001
0.00999333
0.00999499
0.0099989
0.0100288
0.0100197
0.0100124
0.0100046
0.00999869
0.00999602
0.00999486
0.00999474
0.00999519
0.00999588
0.00999662
0.00999802
0.0100006
0.0100047
0.0100081
0.0100059
0.00999933
0.00999577
0.00999839
0.0100005
0.0100136
0.0100118
0.010013
0.0100111
0.0100078
0.0100039
0.0100005
0.0099979
0.0099966
0.00999598
0.00999605
0.00999736
0.0100005
0.0100039
0.0100058
0.0100033
0.00999835
0.0099985
0.0100017
0.0100016
0.0100002
0.0100052
0.0100113
0.0100152
0.0100146
0.0100109
0.0100058
0.0100019
0.00999872
0.00999698
0.00999627
0.00999748
0.0100014
0.0100037
0.0100027
0.0100003
0.00999892
0.0100015
0.0100031
0.0100014
0.00999257
0.0100006
0.0100083
0.0100144
0.0100169
0.0100146
0.0100097
0.0100053
0.010001
0.00999838
0.00999743
0.00999812
0.0100019
0.0100042
0.0100001
0.00999723
0.0100004
0.0100039
0.0100023
0.00999987
0.00998995
0.00999768
0.0100042
0.0100115
0.0100156
0.0100147
0.0100119
0.0100076
0.0100031
0.00999975
0.00999863
0.00999925
0.010002
0.0100046
0.0099992
0.00999463
0.0100005
0.0100054
0.0100001
0.00999777
0.00999057
0.00999599
0.0100005
0.0100082
0.010013
0.0100137
0.0100124
0.0100084
0.010004
0.00999959
0.00999804
0.00999945
0.0100027
0.0100054
0.0100002
0.00999472
0.0100003
0.0100054
0.00999867
0.00999669
0.00999198
0.009995
0.00999808
0.0100057
0.010011
0.0100128
0.0100127
0.0100089
0.0100049
0.00999948
0.00999528
0.00999608
0.0100012
0.0100063
0.0100021
0.00999555
0.0100001
0.0100044
0.0099981
0.00999654
0.0099935
0.00999435
0.0099966
0.0100045
0.0100101
0.0100127
0.0100131
0.0100085
0.010003
0.00999476
0.0099917
0.00999602
0.0100054
0.0100091
0.0100028
0.00999499
0.00999911
0.0100036
0.00999835
0.0099969
0.00999418
0.00999393
0.00999594
0.0100041
0.01001
0.0100142
0.0100172
0.0100166
0.0100125
0.00898345
0.00895676
0.00998221
0.0100169
0.0100227
0.0100072
0.0099942
0.009998
0.0100035
0.00999905
0.00999731
0.00999406
0.00999384
0.00999582
0.010004
0.0100099
0.0100141
0.0100171
0.0100164
0.0100123
0.00898326
0.00895662
0.00998208
0.0100168
0.0100226
0.0100071
0.00999414
0.00999792
0.0100035
0.00999904
0.00999731
0.00999317
0.00999402
0.00999637
0.0100043
0.0100098
0.0100124
0.0100127
0.010008
0.0100024
0.00999423
0.00999121
0.00999565
0.0100051
0.0100088
0.0100027
0.0099948
0.00999887
0.0100035
0.00999854
0.00999707
0.0099914
0.00999452
0.0099976
0.0100052
0.0100104
0.0100121
0.010012
0.0100082
0.0100042
0.00999878
0.00999468
0.00999549
0.0100007
0.0100059
0.0100018
0.00999522
0.00999975
0.0100042
0.00999842
0.00999675
0.00998975
0.00999533
0.00999991
0.0100074
0.0100121
0.0100128
0.0100116
0.0100075
0.0100031
0.00999874
0.00999726
0.00999875
0.0100021
0.010005
0.00999977
0.00999415
0.00999989
0.0100049
0.00999853
0.00999666
0.00998899
0.00999674
0.0100034
0.0100103
0.0100143
0.0100139
0.0100108
0.0100065
0.0100021
0.00999878
0.00999759
0.00999837
0.0100012
0.0100039
0.00999834
0.00999423
0.0100003
0.0100052
0.00999975
0.00999745
0.00999149
0.00999936
0.0100072
0.0100134
0.0100158
0.0100134
0.0100085
0.0100041
0.00999965
0.00999694
0.00999619
0.009997
0.0100008
0.0100031
0.00999922
0.00999676
0.01
0.0100038
0.0100015
0.00999925
0.00999908
0.0100038
0.0100097
0.0100137
0.0100131
0.0100091
0.0100042
0.0100004
0.00999717
0.00999549
0.00999489
0.00999617
0.0100002
0.0100026
0.010002
0.00999956
0.00999852
0.0100012
0.0100028
0.0100011
0.0100123
0.0100103
0.0100112
0.0100094
0.0100061
0.0100021
0.00999861
0.00999589
0.00999474
0.00999419
0.00999429
0.00999573
0.00999902
0.0100026
0.0100047
0.0100021
0.00999762
0.00999802
0.0100016
0.0100017
0.0100272
0.0100182
0.0100107
0.0100027
0.00999696
0.0099943
0.00999303
0.0099929
0.00999327
0.00999394
0.00999474
0.00999623
0.00999899
0.0100032
0.0100068
0.0100048
0.00999832
0.00999484
0.00999805
0.0100005
0.0100371
0.0100238
0.010009
0.00999768
0.00999141
0.00998908
0.00998976
0.00999128
0.00999261
0.00999394
0.00999497
0.00999651
0.00999921
0.0100036
0.0100078
0.0100067
0.00999882
0.00999252
0.00999454
0.00999883
)
;

boundaryField
{
    sides
    {
        type            zeroGradient;
    }
    inlet
    {
        type            zeroGradient;
    }
    outlet
    {
        type            fixedValue;
        value           uniform 0.01;
    }
    frontAndBack
    {
        type            empty;
    }
}


// ************************************************************************* //
