/*--------------------------------*- C++ -*----------------------------------*\
  =========                 |
  \\      /  F ield         | OpenFOAM: The Open Source CFD Toolbox
   \\    /   O peration     | Website:  https://openfoam.org
    \\  /    A nd           | Version:  9
     \\/     M anipulation  |
\*---------------------------------------------------------------------------*/
FoamFile
{
    format      ascii;
    class       volVectorField;
    location    "3";
    object      hU;
}
// * * * * * * * * * * * * * * * * * * * * * * * * * * * * * * * * * * * * * //

dimensions      [0 2 -1 0 0 0 0];

internalField   nonuniform List<vector> 
400
(
(0.00100217 1.3378e-06 0)
(0.00100362 1.17928e-06 0)
(0.00100413 5.18994e-07 0)
(0.00100489 -9.9222e-08 0)
(0.00100469 -5.1316e-07 0)
(0.00100384 -7.8692e-07 0)
(0.00100299 -8.50837e-07 0)
(0.0010024 -7.8618e-07 0)
(0.00100206 -6.79081e-07 0)
(0.00100186 -5.51724e-07 0)
(0.00100167 -4.09039e-07 0)
(0.00100133 -2.91112e-07 0)
(0.00100068 -2.04112e-07 0)
(0.000999882 -1.29821e-07 0)
(0.000999606 1.93712e-08 0)
(0.00100015 3.05156e-07 0)
(0.001001 4.29239e-07 0)
(0.00100142 9.66728e-08 0)
(0.0010013 -3.0384e-07 0)
(0.00100064 -3.47188e-07 0)
(0.00100133 3.65369e-06 0)
(0.00100323 3.14245e-06 0)
(0.00100369 1.52147e-06 0)
(0.00100449 -6.74807e-09 0)
(0.00100454 -1.12295e-06 0)
(0.00100394 -1.77504e-06 0)
(0.00100318 -1.94944e-06 0)
(0.00100263 -1.76349e-06 0)
(0.00100227 -1.48358e-06 0)
(0.00100205 -1.11494e-06 0)
(0.00100184 -7.27414e-07 0)
(0.00100145 -4.2372e-07 0)
(0.00100079 -2.3176e-07 0)
(0.000999999 1.95106e-09 0)
(0.000999821 4.42466e-07 0)
(0.00100042 1.05921e-06 0)
(0.00100094 1.38805e-06 0)
(0.00100094 6.63188e-07 0)
(0.00100095 -2.9526e-07 0)
(0.00100096 -3.95964e-07 0)
(0.001 4.81771e-06 0)
(0.00100242 3.88901e-06 0)
(0.00100292 1.76515e-06 0)
(0.00100368 -1.40748e-07 0)
(0.00100423 -1.49966e-06 0)
(0.00100405 -2.25029e-06 0)
(0.00100359 -2.42162e-06 0)
(0.00100309 -2.29261e-06 0)
(0.00100269 -1.94233e-06 0)
(0.00100246 -1.4652e-06 0)
(0.00100217 -9.64423e-07 0)
(0.00100164 -5.82146e-07 0)
(0.001001 -4.04845e-07 0)
(0.0010003 -4.60365e-08 0)
(0.00100011 6.47824e-07 0)
(0.00100072 1.3274e-06 0)
(0.00100103 1.64007e-06 0)
(0.00100043 9.77185e-07 0)
(0.00100041 1.60124e-07 0)
(0.0010013 -1.18369e-07 0)
(0.00099883 4.64508e-06 0)
(0.00100128 3.70278e-06 0)
(0.00100198 1.42149e-06 0)
(0.0010029 -2.92959e-07 0)
(0.0010039 -1.39683e-06 0)
(0.00100425 -1.94342e-06 0)
(0.00100403 -2.07269e-06 0)
(0.00100362 -2.03278e-06 0)
(0.00100325 -1.68349e-06 0)
(0.001003 -1.23906e-06 0)
(0.00100264 -6.75768e-07 0)
(0.00100194 -1.30322e-07 0)
(0.00100127 1.67348e-07 0)
(0.00100079 4.95661e-07 0)
(0.0010005 1.154e-06 0)
(0.00100088 1.53149e-06 0)
(0.00100116 1.35587e-06 0)
(0.00100039 9.30282e-07 0)
(0.00100008 7.23355e-07 0)
(0.00100102 3.60046e-07 0)
(0.000998181 3.61201e-06 0)
(0.00100009 3.09274e-06 0)
(0.00100108 9.7113e-07 0)
(0.00100207 -4.68005e-07 0)
(0.00100352 -1.30161e-06 0)
(0.00100432 -1.63524e-06 0)
(0.00100437 -1.80969e-06 0)
(0.00100416 -1.78205e-06 0)
(0.00100392 -1.53495e-06 0)
(0.00100367 -1.10382e-06 0)
(0.00100339 -5.90777e-07 0)
(0.0010026 6.91896e-08 0)
(0.00100159 6.67734e-07 0)
(0.0010011 1.00181e-06 0)
(0.00100059 1.54091e-06 0)
(0.00100038 1.73761e-06 0)
(0.00100082 1.2206e-06 0)
(0.00100062 8.85227e-07 0)
(0.00100009 1.18599e-06 0)
(0.00100053 7.22745e-07 0)
(0.000998012 2.42068e-06 0)
(0.000999245 2.42849e-06 0)
(0.00100037 6.70329e-07 0)
(0.00100135 -6.48494e-07 0)
(0.00100303 -1.30981e-06 0)
(0.00100422 -1.59759e-06 0)
(0.00100459 -1.87618e-06 0)
(0.00100453 -1.92836e-06 0)
(0.0010045 -1.71497e-06 0)
(0.00100429 -9.54399e-07 0)
(0.00100407 1.76638e-07 0)
(0.00100342 1.46961e-06 0)
(0.00100217 2.32378e-06 0)
(0.00100145 2.03439e-06 0)
(0.001001 1.39195e-06 0)
(0.00100026 1.04166e-06 0)
(0.00100033 6.59639e-07 0)
(0.00100069 4.87639e-07 0)
(0.00100004 9.9059e-07 0)
(0.000999663 6.6727e-07 0)
(0.000998166 1.38568e-06 0)
(0.000998709 1.76537e-06 0)
(0.000999866 3.85173e-07 0)
(0.00100072 -8.47911e-07 0)
(0.00100247 -1.51362e-06 0)
(0.00100382 -1.93469e-06 0)
(0.00100447 -2.34692e-06 0)
(0.00100479 -2.76115e-06 0)
(0.00100533 -2.7867e-06 0)
(0.00100582 -2.51843e-06 0)
(0.00100596 -5.68661e-07 0)
(0.0010049 2.72306e-06 0)
(0.00100224 5.10233e-06 0)
(0.00100001 4.56839e-06 0)
(0.000999618 2.45916e-06 0)
(0.000999724 1.25403e-06 0)
(0.00100007 1.00445e-06 0)
(0.00100079 9.17575e-07 0)
(0.00100028 1.05699e-06 0)
(0.00099933 6.09928e-07 0)
(0.000998383 6.53776e-07 0)
(0.00099851 1.18152e-06 0)
(0.000999556 1.72515e-07 0)
(0.00100016 -9.47729e-07 0)
(0.00100181 -1.77582e-06 0)
(0.00100327 -2.43124e-06 0)
(0.00100389 -3.40714e-06 0)
(0.0010044 -3.8016e-06 0)
(0.001005 -3.95467e-06 0)
(0.00100669 -2.19989e-06 0)
(0.00100916 1.11784e-06 0)
(0.00100889 4.85181e-06 0)
(0.00100406 5.15326e-06 0)
(0.000998913 2.70904e-06 0)
(0.00099797 5.64672e-07 0)
(0.000999115 3.69251e-07 0)
(0.000999834 8.20842e-07 0)
(0.00100037 7.71208e-07 0)
(0.000999736 5.85235e-07 0)
(0.000998771 2.56553e-07 0)
(0.000998608 2.84934e-07 0)
(0.000998447 6.97991e-07 0)
(0.000999309 1.16096e-07 0)
(0.00099959 -7.70391e-07 0)
(0.00100095 -1.54751e-06 0)
(0.00100221 -2.39484e-06 0)
(0.00100303 -5.03626e-06 0)
(0.00100441 -7.63291e-06 0)
(0.00100684 -1.26905e-05 0)
(0.00101048 -1.54351e-05 0)
(0.0010122 4.35073e-06 0)
(0.00100829 2.05071e-05 0)
(0.000999919 1.61587e-05 0)
(0.000995374 4.15002e-06 0)
(0.000997285 -1.16126e-06 0)
(0.00100003 6.23675e-08 0)
(0.00100026 1.66349e-06 0)
(0.00100018 1.23378e-06 0)
(0.000999714 2.87793e-07 0)
(0.000998912 -1.10017e-07 0)
(0.000998683 9.46936e-08 0)
(0.000998582 2.36023e-07 0)
(0.000998893 7.08323e-08 0)
(0.000999935 -3.32664e-07 0)
(0.00099885 -6.47458e-07 0)
(0.00100236 -1.10474e-06 0)
(0.000996141 -3.15937e-06 0)
(0.00100021 -5.31645e-06 0)
(0.00099456 -1.13279e-05 0)
(0.000915754 -1.34803e-05 0)
(0.000950836 3.76472e-07 0)
(0.00101086 1.57336e-05 0)
(0.000989625 1.27377e-05 0)
(0.000981278 3.18164e-06 0)
(0.000989542 -7.88625e-07 0)
(0.000997502 3.63758e-07 0)
(0.000998738 1.65842e-06 0)
(0.000998598 1.27257e-06 0)
(0.000998764 4.41222e-07 0)
(0.000998817 -8.25625e-08 0)
(0.00099868 -5.58962e-08 0)
(0.000998582 -1.73114e-07 0)
(0.000998893 -5.10013e-08 0)
(0.000999944 2.53345e-07 0)
(0.000998855 4.72526e-07 0)
(0.00100236 8.73258e-07 0)
(0.000996141 2.94333e-06 0)
(0.0010002 5.12799e-06 0)
(0.000994544 1.11756e-05 0)
(0.000915745 1.33694e-05 0)
(0.000950802 -5.1428e-07 0)
(0.00101083 -1.58986e-05 0)
(0.000989635 -1.29262e-05 0)
(0.000981289 -3.40179e-06 0)
(0.000989544 5.20274e-07 0)
(0.000997491 -6.79098e-07 0)
(0.000998681 -2.01848e-06 0)
(0.000998547 -1.71884e-06 0)
(0.000998738 -9.69297e-07 0)
(0.000998774 -5.98675e-07 0)
(0.0009986 -2.50865e-07 0)
(0.000998442 -6.38174e-07 0)
(0.000999324 -8.65948e-08 0)
(0.000999619 7.16357e-07 0)
(0.00100099 1.4078e-06 0)
(0.00100228 2.20175e-06 0)
(0.00100309 4.82002e-06 0)
(0.00100446 7.42459e-06 0)
(0.00100685 1.24995e-05 0)
(0.00101046 1.52511e-05 0)
(0.00101218 -4.51659e-06 0)
(0.00100825 -2.06773e-05 0)
(0.000999819 -1.63515e-05 0)
(0.000995244 -4.36626e-06 0)
(0.000997162 9.44549e-07 0)
(0.000999908 -3.20799e-07 0)
(0.00100014 -1.98609e-06 0)
(0.00100003 -1.65776e-06 0)
(0.000999566 -8.06612e-07 0)
(0.000998815 -5.64452e-07 0)
(0.000998366 -6.27057e-07 0)
(0.0009985 -1.1301e-06 0)
(0.000999576 -1.53431e-07 0)
(0.0010002 8.92599e-07 0)
(0.00100185 1.63833e-06 0)
(0.00100329 2.22736e-06 0)
(0.0010039 3.14415e-06 0)
(0.00100439 3.53921e-06 0)
(0.00100499 3.70468e-06 0)
(0.00100665 1.98153e-06 0)
(0.00100909 -1.31512e-06 0)
(0.0010088 -5.05436e-06 0)
(0.00100399 -5.36203e-06 0)
(0.000998863 -2.92487e-06 0)
(0.000997907 -8.04357e-07 0)
(0.000998969 -6.24933e-07 0)
(0.000999598 -1.14592e-06 0)
(0.00100008 -1.17251e-06 0)
(0.000999505 -1.01462e-06 0)
(0.000998571 -8.71846e-07 0)
(0.000998142 -1.38016e-06 0)
(0.000998709 -1.72761e-06 0)
(0.000999895 -3.67316e-07 0)
(0.00100079 8.2578e-07 0)
(0.00100253 1.41292e-06 0)
(0.00100388 1.73448e-06 0)
(0.0010045 2.1271e-06 0)
(0.00100483 2.53269e-06 0)
(0.00100535 2.58039e-06 0)
(0.00100582 2.32026e-06 0)
(0.00100591 4.01596e-07 0)
(0.00100482 -2.87111e-06 0)
(0.0010021 -5.25529e-06 0)
(0.000999825 -4.77044e-06 0)
(0.000999402 -2.70443e-06 0)
(0.000999484 -1.58151e-06 0)
(0.000999828 -1.3879e-06 0)
(0.00100048 -1.35513e-06 0)
(0.000999944 -1.46506e-06 0)
(0.000998946 -1.18552e-06 0)
(0.000997993 -2.43059e-06 0)
(0.000999268 -2.39184e-06 0)
(0.00100044 -6.18052e-07 0)
(0.00100147 6.23243e-07 0)
(0.0010031 1.18065e-06 0)
(0.00100425 1.40736e-06 0)
(0.0010046 1.64645e-06 0)
(0.00100453 1.67136e-06 0)
(0.00100447 1.44788e-06 0)
(0.00100425 7.21316e-07 0)
(0.00100401 -3.97556e-07 0)
(0.00100331 -1.69824e-06 0)
(0.00100202 -2.55159e-06 0)
(0.00100126 -2.24605e-06 0)
(0.00100077 -1.60132e-06 0)
(0.00099998 -1.30405e-06 0)
(0.001 -9.70728e-07 0)
(0.00100036 -9.1682e-07 0)
(0.000999709 -1.38148e-06 0)
(0.000999158 -1.22025e-06 0)
(0.000998178 -3.6137e-06 0)
(0.00100014 -3.0614e-06 0)
(0.00100116 -9.2344e-07 0)
(0.00100215 4.24735e-07 0)
(0.00100362 1.14871e-06 0)
(0.00100438 1.47337e-06 0)
(0.00100439 1.60458e-06 0)
(0.00100415 1.58302e-06 0)
(0.00100392 1.37371e-06 0)
(0.00100364 9.48448e-07 0)
(0.0010033 4.22873e-07 0)
(0.00100247 -2.20869e-07 0)
(0.00100141 -8.1749e-07 0)
(0.00100088 -1.14564e-06 0)
(0.0010003 -1.7568e-06 0)
(0.00100003 -1.98044e-06 0)
(0.00100042 -1.5108e-06 0)
(0.00100022 -1.28006e-06 0)
(0.000999597 -1.66902e-06 0)
(0.000999824 -1.34855e-06 0)
(0.000998837 -4.62188e-06 0)
(0.00100133 -3.67563e-06 0)
(0.00100207 -1.39237e-06 0)
(0.00100299 2.87045e-07 0)
(0.001004 1.31324e-06 0)
(0.00100429 1.79246e-06 0)
(0.00100402 1.94531e-06 0)
(0.00100364 1.93542e-06 0)
(0.00100324 1.58482e-06 0)
(0.0010029 1.13042e-06 0)
(0.00100254 5.798e-07 0)
(0.00100181 4.39543e-08 0)
(0.00100109 -2.61134e-07 0)
(0.00100052 -6.15918e-07 0)
(0.00100015 -1.31011e-06 0)
(0.00100049 -1.68472e-06 0)
(0.00100068 -1.52829e-06 0)
(0.000999838 -1.17856e-06 0)
(0.000999464 -1.09044e-06 0)
(0.00100034 -8.89748e-07 0)
(0.001 -4.76986e-06 0)
(0.00100247 -3.85701e-06 0)
(0.00100301 -1.79168e-06 0)
(0.00100377 7.62151e-08 0)
(0.0010043 1.37734e-06 0)
(0.00100414 2.03803e-06 0)
(0.00100364 2.21185e-06 0)
(0.00100308 2.08956e-06 0)
(0.00100265 1.72908e-06 0)
(0.00100242 1.28009e-06 0)
(0.00100206 7.95756e-07 0)
(0.00100146 3.95354e-07 0)
(0.00100076 1.9296e-07 0)
(0.00099999 -1.83958e-07 0)
(0.000999765 -8.48953e-07 0)
(0.00100029 -1.5502e-06 0)
(0.00100051 -1.84345e-06 0)
(0.000999798 -1.1991e-06 0)
(0.000999731 -4.19625e-07 0)
(0.0010005 -3.53139e-07 0)
(0.00100132 -3.59358e-06 0)
(0.00100323 -3.06414e-06 0)
(0.00100373 -1.46203e-06 0)
(0.00100457 6.98918e-08 0)
(0.00100462 1.19295e-06 0)
(0.00100399 1.83485e-06 0)
(0.00100322 1.98478e-06 0)
(0.00100262 1.80823e-06 0)
(0.00100221 1.55617e-06 0)
(0.00100195 1.1628e-06 0)
(0.00100168 7.59744e-07 0)
(0.00100122 4.56116e-07 0)
(0.00100051 2.67667e-07 0)
(0.000999678 3.72841e-08 0)
(0.000999451 -3.93935e-07 0)
(0.000999941 -1.04769e-06 0)
(0.00100042 -1.35918e-06 0)
(0.00100026 -6.77051e-07 0)
(0.00100019 3.22805e-07 0)
(0.00100009 1.88166e-07 0)
(0.00100216 -1.34279e-06 0)
(0.00100362 -1.22193e-06 0)
(0.0010042 -5.96734e-07 0)
(0.001005 -3.29595e-08 0)
(0.00100479 3.40043e-07 0)
(0.00100392 5.91732e-07 0)
(0.00100305 6.38332e-07 0)
(0.00100241 5.86068e-07 0)
(0.00100199 4.82584e-07 0)
(0.00100173 3.42319e-07 0)
(0.00100149 1.92601e-07 0)
(0.00100112 8.26614e-08 0)
(0.0010004 1.70453e-08 0)
(0.000999534 -5.61572e-08 0)
(0.000999184 -2.17026e-07 0)
(0.00099964 -5.07012e-07 0)
(0.00100043 -6.29574e-07 0)
(0.00100067 -3.54136e-07 0)
(0.00100053 1.02712e-07 0)
(0.000999504 -6.96154e-09 0)
)
;

boundaryField
{
    sides
    {
        type            slip;
    }
    inlet
    {
        type            fixedValue;
        value           uniform (0.001 0 0);
    }
    outlet
    {
        type            zeroGradient;
    }
    frontAndBack
    {
        type            empty;
    }
}


// ************************************************************************* //
