/*--------------------------------*- C++ -*----------------------------------*\
  =========                 |
  \\      /  F ield         | OpenFOAM: The Open Source CFD Toolbox
   \\    /   O peration     | Website:  https://openfoam.org
    \\  /    A nd           | Version:  9
     \\/     M anipulation  |
\*---------------------------------------------------------------------------*/
FoamFile
{
    format      ascii;
    class       volVectorField;
    location    "3";
    object      hU_0;
}
// * * * * * * * * * * * * * * * * * * * * * * * * * * * * * * * * * * * * * //

dimensions      [0 2 -1 0 0 0 0];

internalField   nonuniform List<vector> 
400
(
(0.00100219 5.81801e-07 0)
(0.00100216 7.04625e-07 0)
(0.00100282 6.62287e-07 0)
(0.00100379 2.79691e-07 0)
(0.00100379 -8.18716e-08 0)
(0.00100325 -3.883e-07 0)
(0.00100266 -6.24816e-07 0)
(0.00100221 -6.80375e-07 0)
(0.00100194 -6.4422e-07 0)
(0.0010018 -5.62163e-07 0)
(0.0010017 -4.35928e-07 0)
(0.00100149 -3.26703e-07 0)
(0.00100096 -2.26741e-07 0)
(0.0010002 -1.86896e-07 0)
(0.000999551 -1.09665e-07 0)
(0.000999553 1.95637e-07 0)
(0.00100048 4.74437e-07 0)
(0.00100155 2.96184e-07 0)
(0.00100156 -1.71429e-07 0)
(0.0010006 -3.10109e-07 0)
(0.00100173 1.87941e-06 0)
(0.00100263 1.93729e-06 0)
(0.00100298 1.68309e-06 0)
(0.00100365 8.69144e-07 0)
(0.0010037 3.13384e-08 0)
(0.00100324 -7.5115e-07 0)
(0.00100269 -1.2698e-06 0)
(0.00100232 -1.41128e-06 0)
(0.00100209 -1.35045e-06 0)
(0.00100199 -1.1196e-06 0)
(0.00100189 -7.94481e-07 0)
(0.00100164 -5.10373e-07 0)
(0.00100105 -2.60007e-07 0)
(0.00100024 -1.33209e-07 0)
(0.000999792 8.9089e-08 0)
(0.000999906 7.75662e-07 0)
(0.00100053 1.53861e-06 0)
(0.00100113 1.11811e-06 0)
(0.00100139 -6.08227e-08 0)
(0.00100106 -3.68662e-07 0)
(0.0010008 3.10234e-06 0)
(0.00100301 2.39749e-06 0)
(0.00100309 1.50036e-06 0)
(0.00100348 6.45326e-07 0)
(0.00100363 -2.43799e-07 0)
(0.00100325 -1.0364e-06 0)
(0.00100288 -1.48689e-06 0)
(0.00100258 -1.67123e-06 0)
(0.00100241 -1.62349e-06 0)
(0.00100235 -1.33186e-06 0)
(0.0010022 -9.24688e-07 0)
(0.0010019 -5.73404e-07 0)
(0.00100127 -3.30849e-07 0)
(0.00100039 -1.30786e-07 0)
(0.00100009 1.6992e-07 0)
(0.0010005 9.51161e-07 0)
(0.00100068 1.95303e-06 0)
(0.00100046 1.56901e-06 0)
(0.0010009 3.0654e-07 0)
(0.00100158 -2.03131e-07 0)
(0.000999609 3.76324e-06 0)
(0.00100273 2.28271e-06 0)
(0.00100298 6.30254e-07 0)
(0.00100341 -1.96292e-07 0)
(0.00100369 -6.98774e-07 0)
(0.00100353 -1.02684e-06 0)
(0.00100317 -1.21364e-06 0)
(0.00100291 -1.31024e-06 0)
(0.00100279 -1.18263e-06 0)
(0.0010028 -9.21656e-07 0)
(0.00100261 -4.3122e-07 0)
(0.00100218 5.68541e-08 0)
(0.00100157 2.77924e-07 0)
(0.00100064 5.00791e-07 0)
(0.00100034 6.88233e-07 0)
(0.00100112 1.05441e-06 0)
(0.00100112 1.66703e-06 0)
(0.00100008 1.52379e-06 0)
(0.00100022 7.40531e-07 0)
(0.00100137 1.6243e-07 0)
(0.000998588 3.58874e-06 0)
(0.00100179 1.94906e-06 0)
(0.00100252 -1.36469e-07 0)
(0.00100316 -1.04708e-06 0)
(0.00100384 -1.30333e-06 0)
(0.00100386 -1.24598e-06 0)
(0.00100354 -1.16119e-06 0)
(0.00100336 -1.15586e-06 0)
(0.00100324 -9.65285e-07 0)
(0.00100334 -6.9754e-07 0)
(0.00100332 -2.22554e-07 0)
(0.00100269 3.98008e-07 0)
(0.00100185 7.69704e-07 0)
(0.00100082 1.02086e-06 0)
(0.00100008 1.31742e-06 0)
(0.00100086 1.3222e-06 0)
(0.00100136 1.27789e-06 0)
(0.00100012 1.21968e-06 0)
(0.000999684 1.04414e-06 0)
(0.00100086 4.71933e-07 0)
(0.00099796 2.92748e-06 0)
(0.0010007 1.65314e-06 0)
(0.00100193 -4.46776e-07 0)
(0.00100279 -1.47055e-06 0)
(0.00100379 -1.77394e-06 0)
(0.0010041 -1.64989e-06 0)
(0.0010039 -1.53956e-06 0)
(0.00100369 -1.50948e-06 0)
(0.00100369 -1.23796e-06 0)
(0.00100382 -5.59904e-07 0)
(0.00100394 5.41368e-07 0)
(0.00100335 1.84176e-06 0)
(0.00100225 2.47011e-06 0)
(0.00100126 1.93639e-06 0)
(0.00100031 1.32516e-06 0)
(0.00100049 9.13971e-07 0)
(0.00100117 5.34845e-07 0)
(0.00100029 4.89806e-07 0)
(0.000999183 8.43098e-07 0)
(0.000999933 5.21475e-07 0)
(0.000997703 2.00544e-06 0)
(0.000999677 1.31485e-06 0)
(0.00100128 -4.89624e-07 0)
(0.00100231 -1.6419e-06 0)
(0.00100353 -2.08439e-06 0)
(0.00100406 -2.17763e-06 0)
(0.00100397 -2.29817e-06 0)
(0.00100397 -2.58078e-06 0)
(0.00100449 -2.50806e-06 0)
(0.00100523 -2.24125e-06 0)
(0.00100578 -2.91987e-07 0)
(0.00100475 3.03231e-06 0)
(0.00100203 5.24578e-06 0)
(0.000999761 4.41777e-06 0)
(0.000999062 2.40803e-06 0)
(0.000999792 1.32608e-06 0)
(0.0010009 8.82509e-07 0)
(0.00100064 6.67218e-07 0)
(0.000999301 9.65064e-07 0)
(0.000999428 5.96052e-07 0)
(0.000997709 1.14049e-06 0)
(0.000999094 9.3808e-07 0)
(0.00100078 -3.99887e-07 0)
(0.00100177 -1.52227e-06 0)
(0.00100309 -2.24428e-06 0)
(0.00100377 -2.67885e-06 0)
(0.00100358 -3.48939e-06 0)
(0.00100363 -3.77283e-06 0)
(0.00100418 -3.86319e-06 0)
(0.00100606 -2.06139e-06 0)
(0.00100896 1.2959e-06 0)
(0.00100867 5.02238e-06 0)
(0.00100365 5.20786e-06 0)
(0.000998602 2.59581e-06 0)
(0.000997508 5.9409e-07 0)
(0.000999047 5.19648e-07 0)
(0.00100046 7.31011e-07 0)
(0.00100033 4.75099e-07 0)
(0.000998864 5.41976e-07 0)
(0.00099876 3.20233e-07 0)
(0.000997821 5.929e-07 0)
(0.000998743 5.78384e-07 0)
(0.00100038 -1.96965e-07 0)
(0.00100117 -1.09177e-06 0)
(0.00100235 -1.83043e-06 0)
(0.00100286 -2.58474e-06 0)
(0.00100288 -5.15788e-06 0)
(0.0010037 -7.57711e-06 0)
(0.00100606 -1.27819e-05 0)
(0.00100985 -1.54433e-05 0)
(0.00101194 4.59393e-06 0)
(0.00100795 2.05731e-05 0)
(0.00099941 1.59109e-05 0)
(0.000995097 3.91428e-06 0)
(0.000997022 -1.01942e-06 0)
(0.000999865 3.355e-07 0)
(0.00100068 1.58908e-06 0)
(0.00100028 9.53946e-07 0)
(0.000999059 2.37785e-07 0)
(0.00099884 -4.11223e-08 0)
(0.000997859 1.89599e-07 0)
(0.000998726 1.98134e-07 0)
(0.000999925 -3.60973e-08 0)
(0.00100143 -4.43115e-07 0)
(0.00100033 -7.41515e-07 0)
(0.00100308 -1.19497e-06 0)
(0.000995946 -3.21215e-06 0)
(0.000999701 -5.28487e-06 0)
(0.000993792 -1.14388e-05 0)
(0.000914796 -1.35192e-05 0)
(0.000950821 5.3696e-07 0)
(0.00101085 1.56849e-05 0)
(0.000988849 1.24654e-05 0)
(0.000980631 3.05905e-06 0)
(0.000989316 -5.95861e-07 0)
(0.000997474 6.02156e-07 0)
(0.000999252 1.64951e-06 0)
(0.000998918 1.12083e-06 0)
(0.000998328 3.79291e-07 0)
(0.000998739 -7.36907e-08 0)
(0.000997856 -1.545e-07 0)
(0.000998726 -1.47135e-07 0)
(0.000999929 3.46868e-08 0)
(0.00100144 3.37809e-07 0)
(0.00100033 5.37849e-07 0)
(0.00100308 9.45248e-07 0)
(0.000995936 2.96881e-06 0)
(0.000999686 5.06461e-06 0)
(0.000993776 1.12565e-05 0)
(0.000914784 1.33782e-05 0)
(0.000950786 -7.00552e-07 0)
(0.00101083 -1.58722e-05 0)
(0.000988869 -1.26695e-05 0)
(0.000980643 -3.2893e-06 0)
(0.000989315 3.3132e-07 0)
(0.000997461 -9.26736e-07 0)
(0.000999202 -2.02799e-06 0)
(0.000998878 -1.56147e-06 0)
(0.000998304 -8.78243e-07 0)
(0.000998688 -5.78085e-07 0)
(0.000997814 -5.66072e-07 0)
(0.000998744 -5.31035e-07 0)
(0.0010004 2.09328e-07 0)
(0.00100119 1.00716e-06 0)
(0.00100239 1.652e-06 0)
(0.00100292 2.3561e-06 0)
(0.00100292 4.9212e-06 0)
(0.00100373 7.35448e-06 0)
(0.00100605 1.25778e-05 0)
(0.00100983 1.52429e-05 0)
(0.00101191 -4.77113e-06 0)
(0.00100791 -2.07558e-05 0)
(0.000999312 -1.61142e-05 0)
(0.000994976 -4.13333e-06 0)
(0.000996897 8.07733e-07 0)
(0.000999726 -6.0033e-07 0)
(0.00100059 -1.923e-06 0)
(0.00100017 -1.38402e-06 0)
(0.000998927 -7.31013e-07 0)
(0.000998719 -6.03665e-07 0)
(0.000997694 -1.1246e-06 0)
(0.000999101 -8.91536e-07 0)
(0.0010008 3.8987e-07 0)
(0.00100181 1.42454e-06 0)
(0.00100312 2.053e-06 0)
(0.00100379 2.44666e-06 0)
(0.00100359 3.21133e-06 0)
(0.00100362 3.49967e-06 0)
(0.00100415 3.60906e-06 0)
(0.00100601 1.84758e-06 0)
(0.00100889 -1.49505e-06 0)
(0.00100857 -5.22628e-06 0)
(0.00100359 -5.41806e-06 0)
(0.000998566 -2.81139e-06 0)
(0.00099743 -8.51668e-07 0)
(0.00099888 -7.82678e-07 0)
(0.00100022 -1.04545e-06 0)
(0.0010001 -9.00518e-07 0)
(0.0009987 -9.88542e-07 0)
(0.000998527 -9.33004e-07 0)
(0.000997692 -2.01065e-06 0)
(0.00099969 -1.28551e-06 0)
(0.00100131 4.81865e-07 0)
(0.00100237 1.57061e-06 0)
(0.0010036 1.95126e-06 0)
(0.00100411 1.96707e-06 0)
(0.001004 2.05813e-06 0)
(0.00100401 2.34339e-06 0)
(0.00100452 2.29096e-06 0)
(0.00100522 2.04513e-06 0)
(0.00100574 1.15975e-07 0)
(0.00100467 -3.18029e-06 0)
(0.00100189 -5.40385e-06 0)
(0.000999573 -4.63485e-06 0)
(0.000998851 -2.68044e-06 0)
(0.000999554 -1.6347e-06 0)
(0.00100063 -1.23567e-06 0)
(0.00100033 -1.07806e-06 0)
(0.000998992 -1.38946e-06 0)
(0.000999018 -1.19171e-06 0)
(0.00099796 -2.94294e-06 0)
(0.00100073 -1.64426e-06 0)
(0.00100201 4.81374e-07 0)
(0.00100288 1.42506e-06 0)
(0.00100384 1.64352e-06 0)
(0.00100414 1.43389e-06 0)
(0.0010039 1.30387e-06 0)
(0.00100368 1.24639e-06 0)
(0.00100367 9.52183e-07 0)
(0.00100379 3.00697e-07 0)
(0.00100388 -7.75658e-07 0)
(0.00100325 -2.08058e-06 0)
(0.00100209 -2.71792e-06 0)
(0.00100108 -2.16702e-06 0)
(0.00100009 -1.53925e-06 0)
(0.00100023 -1.15272e-06 0)
(0.00100086 -8.29001e-07 0)
(0.000999975 -8.77289e-07 0)
(0.0009988 -1.28354e-06 0)
(0.000999394 -1.11875e-06 0)
(0.000998596 -3.58251e-06 0)
(0.00100185 -1.94359e-06 0)
(0.00100261 1.49696e-07 0)
(0.00100326 9.78415e-07 0)
(0.00100394 1.12578e-06 0)
(0.0010039 1.02864e-06 0)
(0.00100355 9.35842e-07 0)
(0.00100334 9.47265e-07 0)
(0.00100324 7.96662e-07 0)
(0.00100332 5.17534e-07 0)
(0.00100325 4.64236e-08 0)
(0.00100255 -5.59225e-07 0)
(0.00100168 -9.28727e-07 0)
(0.00100061 -1.1724e-06 0)
(0.00099982 -1.52146e-06 0)
(0.00100054 -1.57429e-06 0)
(0.00100096 -1.57157e-06 0)
(0.000999682 -1.60858e-06 0)
(0.000999117 -1.55897e-06 0)
(0.00100022 -1.11649e-06 0)
(0.000999614 -3.72607e-06 0)
(0.00100277 -2.25598e-06 0)
(0.00100306 -6.40594e-07 0)
(0.00100348 1.59386e-07 0)
(0.00100376 5.76009e-07 0)
(0.00100355 8.50992e-07 0)
(0.00100319 1.0451e-06 0)
(0.00100294 1.17953e-06 0)
(0.00100275 1.06978e-06 0)
(0.00100271 8.13903e-07 0)
(0.00100253 3.19074e-07 0)
(0.00100205 -1.67664e-07 0)
(0.00100139 -3.79523e-07 0)
(0.00100037 -6.22516e-07 0)
(0.00100003 -8.46193e-07 0)
(0.00100073 -1.23895e-06 0)
(0.00100067 -1.86036e-06 0)
(0.000999507 -1.77754e-06 0)
(0.000999622 -1.05206e-06 0)
(0.00100082 -6.44452e-07 0)
(0.0010008 -3.04824e-06 0)
(0.00100305 -2.35466e-06 0)
(0.00100318 -1.53909e-06 0)
(0.00100358 -7.23421e-07 0)
(0.0010037 1.19639e-07 0)
(0.00100331 8.42756e-07 0)
(0.00100292 1.28235e-06 0)
(0.00100255 1.45506e-06 0)
(0.00100238 1.3905e-06 0)
(0.0010023 1.13187e-06 0)
(0.00100208 7.33441e-07 0)
(0.00100172 3.56733e-07 0)
(0.00100105 9.76785e-08 0)
(0.0010001 -1.17534e-07 0)
(0.000999746 -3.84842e-07 0)
(0.00100008 -1.20493e-06 0)
(0.00100019 -2.18258e-06 0)
(0.000999832 -1.82294e-06 0)
(0.00100026 -5.33136e-07 0)
(0.00100083 -2.14392e-07 0)
(0.00100172 -1.82359e-06 0)
(0.00100261 -1.87024e-06 0)
(0.00100303 -1.61655e-06 0)
(0.00100375 -8.1871e-07 0)
(0.00100377 2.87614e-08 0)
(0.00100329 8.09468e-07 0)
(0.00100272 1.31627e-06 0)
(0.00100231 1.46261e-06 0)
(0.00100204 1.41639e-06 0)
(0.0010019 1.1485e-06 0)
(0.00100174 8.11995e-07 0)
(0.00100142 5.32008e-07 0)
(0.00100079 2.83695e-07 0)
(0.000999948 1.52628e-07 0)
(0.000999423 -7.08063e-08 0)
(0.000999451 -7.75977e-07 0)
(0.00100002 -1.53732e-06 0)
(0.00100047 -1.14654e-06 0)
(0.00100068 8.99539e-08 0)
(0.0010002 1.77053e-07 0)
(0.00100216 -5.92127e-07 0)
(0.00100216 -7.63079e-07 0)
(0.00100289 -7.33399e-07 0)
(0.00100389 -4.16615e-07 0)
(0.00100389 -1.07378e-07 0)
(0.00100333 1.93383e-07 0)
(0.0010027 4.18693e-07 0)
(0.00100219 4.87058e-07 0)
(0.00100185 4.59179e-07 0)
(0.00100167 3.66171e-07 0)
(0.00100153 2.2894e-07 0)
(0.00100127 1.31304e-07 0)
(0.00100069 4.74834e-08 0)
(0.000999848 7.22674e-09 0)
(0.000999138 -9.91056e-08 0)
(0.000999065 -3.90203e-07 0)
(0.000999942 -6.72681e-07 0)
(0.00100086 -5.28533e-07 0)
(0.00100081 -1.56781e-08 0)
(0.000999447 -3.34428e-08 0)
)
;

boundaryField
{
    sides
    {
        type            slip;
    }
    inlet
    {
        type            fixedValue;
        value           uniform (0.001 0 0);
    }
    outlet
    {
        type            zeroGradient;
    }
    frontAndBack
    {
        type            empty;
    }
}


// ************************************************************************* //
