/*--------------------------------*- C++ -*----------------------------------*\
  =========                 |
  \\      /  F ield         | OpenFOAM: The Open Source CFD Toolbox
   \\    /   O peration     | Website:  https://openfoam.org
    \\  /    A nd           | Version:  9
     \\/     M anipulation  |
\*---------------------------------------------------------------------------*/
FoamFile
{
    format      ascii;
    class       surfaceScalarField;
    location    "3";
    object      phi_0;
}
// * * * * * * * * * * * * * * * * * * * * * * * * * * * * * * * * * * * * * //

dimensions      [0 4 -1 0 0 0 0];

internalField   nonuniform List<scalar> 
760
(
5.00242e-06
6.65134e-09
5.01293e-06
7.95667e-09
5.02054e-06
5.95811e-09
5.02085e-06
2.59145e-09
5.01856e-06
-1.01573e-09
5.015e-06
-3.09406e-09
5.01179e-06
-4.96073e-09
5.0101e-06
-5.31391e-09
5.00918e-06
-4.65288e-09
5.00869e-06
-3.83836e-09
5.00836e-06
-2.83416e-09
5.00665e-06
-1.9063e-09
5.00293e-06
-8.95936e-10
4.99793e-06
-5.17275e-10
4.99472e-06
1.52377e-10
4.99842e-06
3.0592e-09
5.00774e-06
5.60441e-09
5.01178e-06
2.99603e-09
5.00478e-06
-1.75185e-09
-1.97993e-09
5.00701e-06
1.33796e-08
5.01404e-06
1.24949e-08
5.01894e-06
7.50683e-09
5.02014e-06
3.06095e-09
5.01808e-06
-1.53282e-09
5.01475e-06
-4.94384e-09
5.01256e-06
-7.1759e-09
5.01097e-06
-8.3368e-09
5.01011e-06
-7.55846e-09
5.00979e-06
-6.25242e-09
5.00915e-06
-4.33455e-09
5.00727e-06
-2.60177e-09
5.0029e-06
-1.29086e-09
4.99813e-06
-6.56659e-10
4.99701e-06
5.80407e-10
5.00064e-06
4.73451e-09
5.00645e-06
9.62165e-09
5.00804e-06
6.39513e-09
5.0056e-06
-4.11991e-10
-1.54415e-09
5.01114e-06
1.84887e-08
5.01464e-06
1.24247e-08
5.01707e-06
4.94717e-09
5.01883e-06
1.26424e-09
5.01761e-06
-3.37091e-09
5.01537e-06
-5.47819e-09
5.01385e-06
-7.33031e-09
5.0125e-06
-7.60296e-09
5.01213e-06
-7.13565e-09
5.01182e-06
-5.77486e-09
5.01062e-06
-3.26484e-09
5.00843e-06
-1.32275e-09
5.00313e-06
-2.94065e-10
4.99858e-06
9.50171e-10
5.00014e-06
2.18942e-09
5.00492e-06
5.08677e-09
5.00433e-06
1.01023e-08
5.00192e-06
8.4504e-09
5.00578e-06
2.35898e-09
-9.07482e-11
5.01064e-06
1.92115e-08
5.01277e-06
1.03248e-08
5.01627e-06
6.90208e-10
5.01811e-06
-3.26804e-09
5.01777e-06
-4.71885e-09
5.01705e-06
-5.39611e-09
5.01555e-06
-6.38466e-09
5.01443e-06
-6.39171e-09
5.01448e-06
-5.43853e-09
5.01434e-06
-4.09255e-09
5.0126e-06
-1.79951e-09
5.00924e-06
9.89984e-10
5.00382e-06
2.35879e-09
4.9993e-06
3.7369e-09
5.00331e-06
5.34094e-09
5.00966e-06
5.61087e-09
5.00381e-06
7.20414e-09
4.99705e-06
7.38754e-09
5.00367e-06
4.93749e-09
1.74802e-09
5.00616e-06
1.60682e-08
5.00877e-06
8.55663e-09
5.01421e-06
-1.93922e-09
5.01786e-06
-6.12823e-09
5.01879e-06
-6.98407e-09
5.01874e-06
-6.07084e-09
5.01751e-06
-5.90807e-09
5.01713e-06
-6.41294e-09
5.01709e-06
-5.51275e-09
5.01804e-06
-3.81588e-09
5.01602e-06
1.15243e-10
5.01022e-06
4.94496e-09
5.0039e-06
8.67386e-09
4.99885e-06
8.27048e-09
5.00302e-06
7.65188e-09
5.01071e-06
5.99542e-09
5.00438e-06
4.14593e-09
4.99483e-06
4.22694e-09
5.00107e-06
4.96369e-09
2.80767e-09
5.00071e-06
1.16052e-08
5.00456e-06
7.47981e-09
5.01172e-06
-2.63892e-09
5.01653e-06
-7.73665e-09
5.0197e-06
-9.32656e-09
5.02023e-06
-9.16443e-09
5.01882e-06
-9.03373e-09
5.01954e-06
-9.23388e-09
5.01948e-06
-8.27381e-09
5.0217e-06
-5.95052e-09
5.02026e-06
6.53136e-10
5.01128e-06
1.04042e-08
5.00366e-06
1.7242e-08
5.00152e-06
1.44499e-08
5.00433e-06
8.90068e-09
5.00905e-06
5.95172e-09
5.00373e-06
3.04131e-09
4.99474e-06
2.91246e-09
4.99769e-06
4.76378e-09
2.95931e-09
4.99572e-06
6.92544e-09
5.00097e-06
5.5038e-09
5.00863e-06
-2.48131e-09
5.01462e-06
-7.96334e-09
5.01902e-06
-1.066e-08
5.01981e-06
-1.16185e-08
5.01915e-06
-1.43323e-08
5.02233e-06
-1.70485e-08
5.02774e-06
-1.84484e-08
5.03264e-06
-1.33562e-08
5.02781e-06
3.30012e-09
5.00957e-06
2.45819e-08
4.99513e-06
3.14126e-08
4.99716e-06
1.95233e-08
5.00398e-06
6.3442e-09
5.00578e-06
3.67036e-09
5.00212e-06
3.60973e-09
4.99739e-06
2.70522e-09
4.99706e-06
3.33618e-09
2.18356e-09
4.99334e-06
3.77648e-09
4.99883e-06
3.71263e-09
5.00552e-06
-1.60828e-09
5.01209e-06
-6.66754e-09
5.01742e-06
-1.0705e-08
5.0176e-06
-1.27568e-08
5.01683e-06
-1.90801e-08
5.01767e-06
-2.34107e-08
5.02741e-06
-3.40546e-08
5.05653e-06
-4.69222e-08
5.04731e-06
8.73415e-09
5.0131e-06
5.38391e-08
4.98763e-06
5.60518e-08
4.99431e-06
2.08599e-08
5.00498e-06
-4.33237e-10
5.00281e-06
2.86759e-09
4.99759e-06
6.38277e-09
4.99655e-06
3.92477e-09
4.99469e-06
1.74927e-09
4.89291e-10
4.99219e-06
1.68551e-09
4.99767e-06
1.95667e-09
5.00275e-06
-4.95756e-10
5.00845e-06
-4.07485e-09
5.01232e-06
-7.17095e-09
5.01084e-06
-1.15185e-08
5.01348e-06
-2.58303e-08
5.02494e-06
-4.09198e-08
5.05874e-06
-7.39711e-08
5.06805e-06
-6.17823e-08
5.04448e-06
2.7631e-08
4.98391e-06
1.08693e-07
4.97912e-06
5.97506e-08
4.99605e-06
1.16781e-08
5.00601e-06
-6.24952e-09
5.00054e-06
2.94418e-09
4.99611e-06
8.82476e-09
4.9985e-06
4.56737e-09
4.99604e-06
1.15216e-09
-4.59146e-10
4.99201e-06
9.21202e-11
4.99737e-06
1.37533e-10
5.00215e-06
-1.93105e-11
5.00682e-06
-2.22302e-10
5.00859e-06
-5.01384e-10
4.99781e-06
-6.5255e-10
4.96992e-06
-6.71916e-10
4.92293e-06
-6.14615e-10
4.84374e-06
-5.06252e-10
4.77605e-06
-3.98912e-10
4.79918e-06
-4.7812e-10
4.90261e-06
-5.0426e-10
4.96188e-06
-4.4978e-10
4.98221e-06
-5.49759e-10
4.98017e-06
-7.61663e-10
4.97745e-06
-9.02986e-10
4.98524e-06
-1.0033e-09
4.99547e-06
-1.05334e-09
4.99485e-06
-1.12832e-09
-1.58692e-09
4.99202e-06
-1.53566e-09
4.99735e-06
-1.69902e-09
5.00221e-06
5.30857e-10
5.00681e-06
3.4601e-09
5.00861e-06
6.16943e-09
4.99776e-06
1.02138e-08
4.96986e-06
2.45245e-08
4.92287e-06
3.97074e-08
4.84367e-06
7.29417e-08
4.77585e-06
6.10652e-08
4.79915e-06
-2.87563e-08
4.90264e-06
-1.09702e-07
4.96199e-06
-6.07159e-08
4.98208e-06
-1.25657e-08
4.98014e-06
4.76634e-09
4.97727e-06
-4.41198e-09
4.98513e-06
-1.06121e-08
4.99531e-06
-6.68927e-09
4.99462e-06
-3.43718e-09
-2.78935e-09
4.99221e-06
-3.64602e-09
4.99775e-06
-3.59514e-09
5.0028e-06
1.56419e-09
5.00864e-06
6.02146e-09
5.01261e-06
9.6312e-09
5.01109e-06
1.13919e-08
5.01368e-06
1.78512e-08
5.02496e-06
2.22585e-08
5.05862e-06
3.29896e-08
5.06826e-06
4.57395e-08
5.04411e-06
-9.66404e-09
4.98344e-06
-5.4696e-08
4.97861e-06
-5.69368e-08
4.99572e-06
-2.20645e-08
5.00523e-06
-1.02829e-09
4.99989e-06
-4.42278e-09
4.99553e-06
-8.03129e-09
4.9979e-06
-5.97308e-09
4.99545e-06
-4.351e-09
-3.81131e-09
4.99339e-06
-6.89007e-09
4.99892e-06
-5.31622e-09
5.00566e-06
2.34906e-09
5.0122e-06
7.38446e-09
5.01764e-06
9.75072e-09
5.01768e-06
1.06736e-08
5.01682e-06
1.3156e-08
5.0176e-06
1.57549e-08
5.02721e-06
1.71944e-08
5.05616e-06
1.22568e-08
5.047e-06
-4.35292e-09
5.01275e-06
-2.5577e-08
4.98741e-06
-3.24641e-08
4.99404e-06
-2.08007e-08
5.00429e-06
-7.64213e-09
5.0018e-06
-4.76431e-09
4.99641e-06
-4.94588e-09
4.99549e-06
-4.67972e-09
4.9938e-06
-5.92925e-09
-5.24806e-09
4.99592e-06
-1.16656e-08
5.00098e-06
-7.30651e-09
5.00886e-06
2.66708e-09
5.01491e-06
7.44228e-09
5.01949e-06
8.71495e-09
5.01989e-06
7.93372e-09
5.01931e-06
7.73593e-09
5.02257e-06
8.01086e-09
5.02784e-06
7.12071e-09
5.03241e-06
4.85307e-09
5.02756e-06
-1.77585e-09
5.00903e-06
-1.13522e-08
4.99427e-06
-1.81864e-08
4.99609e-06
-1.55569e-08
5.0029e-06
-9.92869e-09
5.00458e-06
-6.98231e-09
5.00052e-06
-4.9389e-09
4.996e-06
-4.59114e-09
4.99533e-06
-7.20011e-09
-6.14613e-09
5.00103e-06
-1.61399e-08
5.00474e-06
-8.53567e-09
5.01221e-06
2.26523e-09
5.01696e-06
5.67656e-09
5.01977e-06
6.08332e-09
5.02033e-06
5.0688e-09
5.01887e-06
5.03246e-09
5.01939e-06
5.251e-09
5.01938e-06
4.46294e-09
5.02153e-06
2.62202e-09
5.01982e-06
-9.30339e-10
5.01065e-06
-5.82664e-09
5.00273e-06
-9.69058e-09
5.00054e-06
-9.1212e-09
5.00329e-06
-8.79816e-09
5.00753e-06
-7.32737e-09
5.00199e-06
-5.44785e-09
4.99322e-06
-6.12275e-09
4.99539e-06
-8.21837e-09
-6.28252e-09
5.00646e-06
-1.90987e-08
5.00931e-06
-1.03399e-08
5.01452e-06
-7.72874e-10
5.01842e-06
3.00408e-09
5.01915e-06
3.96354e-09
5.01882e-06
4.66157e-09
5.01745e-06
5.0076e-09
5.01708e-06
5.59145e-09
5.01712e-06
4.70572e-09
5.01779e-06
3.34679e-09
5.01558e-06
8.68714e-10
5.00934e-06
-1.84746e-09
5.00301e-06
-3.10439e-09
4.99771e-06
-4.60829e-09
5.00156e-06
-6.16843e-09
5.00896e-06
-6.77213e-09
5.00213e-06
-8.57958e-09
4.9924e-06
-8.92622e-09
4.9981e-06
-7.23877e-09
-4.88779e-09
5.01083e-06
-1.82388e-08
5.01329e-06
-1.2254e-08
5.01662e-06
-5.02234e-09
5.01836e-06
-1.55936e-09
5.01805e-06
2.79019e-09
5.01721e-06
4.91584e-09
5.01561e-06
6.42693e-09
5.01447e-06
6.66558e-09
5.01405e-06
6.53656e-09
5.014e-06
5.08872e-09
5.01215e-06
2.57127e-09
5.00845e-06
5.43856e-10
5.00274e-06
-2.69991e-10
4.99772e-06
-1.57334e-09
5.0017e-06
-2.92014e-09
5.00742e-06
-6.31672e-09
5.00133e-06
-1.09522e-08
4.99384e-06
-9.58575e-09
5.00074e-06
-3.71481e-09
-1.96101e-09
5.01129e-06
-1.30881e-08
5.01509e-06
-1.22271e-08
5.01761e-06
-7.56552e-09
5.01914e-06
-3.46508e-09
5.01788e-06
1.3391e-09
5.01556e-06
4.54137e-09
5.01392e-06
6.55397e-09
5.01236e-06
7.43838e-09
5.01211e-06
6.65323e-09
5.01128e-06
5.59793e-09
5.00982e-06
3.52577e-09
5.00743e-06
1.99305e-09
5.00191e-06
8.32712e-10
4.997e-06
1.4538e-11
4.99822e-06
-1.14456e-09
5.00261e-06
-5.70549e-09
5.00164e-06
-1.04738e-08
4.9986e-06
-7.57747e-09
5.00227e-06
-3.83916e-11
5.40351e-10
5.00705e-06
-6.44927e-09
5.01409e-06
-7.80251e-09
5.01948e-06
-5.80872e-09
5.02056e-06
-2.60666e-09
5.01822e-06
8.08493e-10
5.01504e-06
2.83995e-09
5.01257e-06
4.917e-09
5.01079e-06
5.0069e-09
5.00975e-06
4.46233e-09
5.00929e-06
3.81112e-09
5.00822e-06
2.75868e-09
5.0061e-06
1.87439e-09
5.00145e-06
8.99439e-10
4.99661e-06
4.18808e-10
4.99488e-06
-4.65172e-10
4.9983e-06
-3.27401e-09
5.00361e-06
-5.8915e-09
5.00443e-06
-3.73719e-09
5.00165e-06
1.4258e-09
1.02305e-09
5.00251e-06
5.01327e-06
5.02094e-06
5.02135e-06
5.01897e-06
5.01532e-06
5.01193e-06
5.00989e-06
5.00858e-06
5.00793e-06
5.00742e-06
5.00544e-06
5.0014e-06
4.99602e-06
4.99245e-06
4.9959e-06
5.0048e-06
5.00813e-06
5.00016e-06
)
;

boundaryField
{
    sides
    {
        type            calculated;
        value           uniform 0;
    }
    inlet
    {
        type            calculated;
        value           nonuniform List<scalar> 
20
(
-5e-06
-5e-06
-5e-06
-5e-06
-5e-06
-5e-06
-5e-06
-5e-06
-5e-06
-5e-06
-5e-06
-5e-06
-5e-06
-5e-06
-5e-06
-5e-06
-5e-06
-5e-06
-5e-06
-5e-06
)
;
    }
    outlet
    {
        type            calculated;
        value           nonuniform List<scalar> 
20
(
4.99897e-06
5.00394e-06
5.01014e-06
5.01114e-06
5.00894e-06
5.00278e-06
4.99811e-06
4.99324e-06
4.9925e-06
4.99114e-06
4.99087e-06
4.99189e-06
4.99195e-06
4.99579e-06
4.9998e-06
5.0056e-06
5.00878e-06
5.0066e-06
4.99965e-06
4.99269e-06
)
;
    }
    frontAndBack
    {
        type            empty;
        value           nonuniform List<scalar> 0();
    }
}


// ************************************************************************* //
