/*--------------------------------*- C++ -*----------------------------------*\
  =========                 |
  \\      /  F ield         | OpenFOAM: The Open Source CFD Toolbox
   \\    /   O peration     | Website:  https://openfoam.org
    \\  /    A nd           | Version:  9
     \\/     M anipulation  |
\*---------------------------------------------------------------------------*/
FoamFile
{
    format      ascii;
    class       volVectorField;
    location    "3";
    object      U;
}
// * * * * * * * * * * * * * * * * * * * * * * * * * * * * * * * * * * * * * //

dimensions      [0 1 -1 0 0 0 0];

internalField   nonuniform List<vector> 
400
(
(0.0998969 0.000133352 0)
(0.100186 0.000117721 0)
(0.10035 5.1867e-05 0)
(0.100493 -9.9226e-06 0)
(0.100511 -5.13376e-05 0)
(0.100437 -7.87332e-05 0)
(0.100342 -8.51203e-05 0)
(0.100275 -7.8645e-05 0)
(0.100233 -6.79269e-05 0)
(0.100207 -5.51843e-05 0)
(0.100182 -4.09103e-05 0)
(0.100133 -2.91109e-05 0)
(0.100036 -2.04047e-05 0)
(0.0999135 -1.29724e-05 0)
(0.0998637 1.93524e-06 0)
(0.0999692 3.05016e-05 0)
(0.100151 4.29455e-05 0)
(0.100222 9.675e-06 0)
(0.100149 -3.03899e-05 0)
(0.100052 -3.47146e-05 0)
(0.0999117 0.000364562 0)
(0.100176 0.000313785 0)
(0.100277 0.000152007 0)
(0.100407 -6.7453e-07 0)
(0.100449 -0.000112289 0)
(0.100407 -0.000177528 0)
(0.100345 -0.000194996 0)
(0.100293 -0.000176401 0)
(0.100257 -0.000148403 0)
(0.100234 -0.000111527 0)
(0.100208 -7.27589e-05 0)
(0.100153 -4.23753e-05 0)
(0.100052 -2.31698e-05 0)
(0.0999354 1.9498e-07 0)
(0.0999076 4.42136e-05 0)
(0.10001 0.000105887 0)
(0.100131 0.000138856 0)
(0.100146 6.63532e-05 0)
(0.10011 -2.95306e-05 0)
(0.100093 -3.95952e-05 0)
(0.0999156 0.000481363 0)
(0.100141 0.000388507 0)
(0.100175 0.00017631 0)
(0.100263 -1.40602e-05 0)
(0.100339 -0.000149841 0)
(0.100356 -0.000224919 0)
(0.100345 -0.00024213 0)
(0.100322 -0.000229291 0)
(0.100299 -0.000194291 0)
(0.100283 -0.000146575 0)
(0.100251 -9.64758e-05 0)
(0.100182 -5.8225e-05 0)
(0.100078 -4.04756e-05 0)
(0.0999801 -4.60137e-06 0)
(0.0999703 6.4756e-05 0)
(0.100063 0.000132728 0)
(0.100113 0.000164023 0)
(0.100051 9.7726e-05 0)
(0.10005 1.60138e-05 0)
(0.100139 -1.18378e-05 0)
(0.0999 0.000464587 0)
(0.100077 0.000370087 0)
(0.100091 0.000141997 0)
(0.100146 -2.92537e-05 0)
(0.100251 -0.000139488 0)
(0.100319 -0.000194137 0)
(0.100343 -0.000207146 0)
(0.100342 -0.000203238 0)
(0.10034 -0.000168374 0)
(0.100332 -0.000123946 0)
(0.100297 -6.75987e-05 0)
(0.100209 -1.30342e-05 0)
(0.100105 1.67312e-05 0)
(0.10004 4.95468e-05 0)
(0.100046 0.000115396 0)
(0.100108 0.00015318 0)
(0.100097 0.000135561 0)
(0.0999981 9.29904e-05 0)
(0.10001 7.23372e-05 0)
(0.10012 3.60112e-05 0)
(0.0998814 0.00036143 0)
(0.100003 0.000309253 0)
(0.100039 9.7046e-05 0)
(0.100076 -4.67395e-05 0)
(0.100194 -0.000129957 0)
(0.100294 -0.000163299 0)
(0.100339 -0.000180792 0)
(0.100362 -0.00017811 0)
(0.100378 -0.000153475 0)
(0.100384 -0.000110401 0)
(0.100362 -5.90915e-05 0)
(0.100267 6.91944e-06 0)
(0.10014 6.67614e-05 0)
(0.100078 0.000100149 0)
(0.100076 0.000154117 0)
(0.100082 0.000173837 0)
(0.100051 0.000122023 0)
(0.0999903 8.84591e-05 0)
(0.100005 0.000118594 0)
(0.100078 7.22924e-05 0)
(0.0998719 0.000242239 0)
(0.099951 0.000242914 0)
(0.100015 6.70181e-05 0)
(0.100039 -6.47873e-05 0)
(0.100163 -0.000130798 0)
(0.100275 -0.000159524 0)
(0.100331 -0.000187379 0)
(0.10037 -0.000192677 0)
(0.100409 -0.000171426 0)
(0.100427 -9.54382e-05 0)
(0.100414 1.76651e-05 0)
(0.100335 0.000146951 0)
(0.100199 0.000232336 0)
(0.100126 0.000203401 0)
(0.100122 0.000139226 0)
(0.100075 0.000104217 0)
(0.100009 6.59478e-05 0)
(0.0999987 4.87296e-05 0)
(0.100003 9.90581e-05 0)
(0.0999923 6.67443e-05 0)
(0.0998721 0.000138645 0)
(0.0999151 0.000176616 0)
(0.100001 3.85229e-05 0)
(0.100016 -8.47433e-05 0)
(0.100137 -0.000151195 0)
(0.100246 -0.000193206 0)
(0.100308 -0.000234369 0)
(0.100379 -0.000275839 0)
(0.100476 -0.000278511 0)
(0.100573 -0.000251819 0)
(0.100605 -5.68709e-05 0)
(0.100481 0.000272282 0)
(0.100196 0.000510093 0)
(0.0999806 0.000456745 0)
(0.0999752 0.000245949 0)
(0.100007 0.000125446 0)
(0.0999928 0.00010043 0)
(0.100029 9.17112e-05 0)
(0.100027 0.000105699 0)
(0.099952 6.10044e-05 0)
(0.099881 6.54056e-05 0)
(0.0999054 0.000118216 0)
(0.0999921 1.72578e-05 0)
(0.099989 -9.47477e-05 0)
(0.100097 -0.000177433 0)
(0.100202 -0.000242822 0)
(0.10025 -0.000340241 0)
(0.10033 -0.000379743 0)
(0.10043 -0.000395189 0)
(0.100654 -0.000219955 0)
(0.100946 0.000111817 0)
(0.100911 0.000485291 0)
(0.100393 0.000515257 0)
(0.0998635 0.000270829 0)
(0.0997904 5.64636e-05 0)
(0.0999291 3.69316e-05 0)
(0.099974 8.20765e-05 0)
(0.100009 7.70999e-05 0)
(0.0999739 5.85237e-05 0)
(0.099888 2.56581e-05 0)
(0.0998929 2.85026e-05 0)
(0.0999045 6.98409e-05 0)
(0.0999763 1.16148e-05 0)
(0.0999458 -7.7029e-05 0)
(0.100026 -0.000154644 0)
(0.1001 -0.000239195 0)
(0.100165 -0.00050293 0)
(0.100332 -0.000762462 0)
(0.100632 -0.00126839 0)
(0.101075 -0.00154392 0)
(0.101282 0.000435339 0)
(0.100849 0.00205113 0)
(0.0999366 0.00161498 0)
(0.099478 0.000414755 0)
(0.0997156 -0.000116111 0)
(0.100022 6.23788e-06 0)
(0.100027 0.000166351 0)
(0.100006 0.000123364 0)
(0.099973 2.87798e-05 0)
(0.0998967 -1.10023e-05 0)
(0.0998962 9.47201e-06 0)
(0.0999206 2.3617e-05 0)
(0.0999381 7.08669e-06 0)
(0.0999851 -3.32636e-05 0)
(0.09982 -6.47037e-05 0)
(0.100102 -0.000110326 0)
(0.0994395 -0.000315383 0)
(0.0998309 -0.000530634 0)
(0.0993114 -0.00113114 0)
(0.101905 -0.00150009 0)
(0.106131 4.20212e-05 0)
(0.101245 0.00157583 0)
(0.0987953 0.00127162 0)
(0.0979355 0.000317541 0)
(0.0988961 -7.88162e-05 0)
(0.0997735 3.63843e-05 0)
(0.0998851 0.000165861 0)
(0.0998517 0.000127247 0)
(0.0998731 4.41208e-05 0)
(0.0998836 -8.25641e-06 0)
(0.099897 -5.59125e-06 0)
(0.0999215 -1.73224e-05 0)
(0.0999394 -5.10269e-06 0)
(0.0999865 2.53325e-05 0)
(0.0998217 4.72224e-05 0)
(0.100103 8.72098e-05 0)
(0.099441 0.000293822 0)
(0.0998316 0.000511833 0)
(0.0993114 0.00111595 0)
(0.101906 0.00148777 0)
(0.106129 -5.7404e-05 0)
(0.101243 -0.00159238 0)
(0.0987975 -0.00129045 0)
(0.0979375 -0.000339516 0)
(0.0988972 5.19973e-05 0)
(0.0997735 -6.79265e-05 0)
(0.0998809 -0.000201874 0)
(0.0998469 -0.00017187 0)
(0.0998702 -9.69262e-05 0)
(0.0998789 -5.98684e-05 0)
(0.0998954 -2.50954e-05 0)
(0.0999068 -6.38575e-05 0)
(0.0999802 -8.66362e-06 0)
(0.0999517 7.16284e-05 0)
(0.100034 0.000140688 0)
(0.10011 0.000219917 0)
(0.100175 0.000481357 0)
(0.100341 0.000741687 0)
(0.100638 0.00124936 0)
(0.101078 0.00152559 0)
(0.101284 -0.000451952 0)
(0.100849 -0.00206822 0)
(0.0999294 -0.0016343 0)
(0.099467 -0.000436374 0)
(0.0997038 9.44432e-05 0)
(0.100011 -3.20864e-05 0)
(0.100018 -0.000198616 0)
(0.0999917 -0.000165757 0)
(0.099956 -8.06607e-05 0)
(0.0998857 -5.64476e-05 0)
(0.0998849 -6.2736e-05 0)
(0.0999096 -0.000113077 0)
(0.0999987 -1.53494e-05 0)
(0.0999987 8.92408e-05 0)
(0.100108 0.000163707 0)
(0.100212 0.000222475 0)
(0.100257 0.000314 0)
(0.100335 0.000353554 0)
(0.100434 0.000370229 0)
(0.100656 0.000198135 0)
(0.100945 -0.000131558 0)
(0.100907 -0.000505575 0)
(0.10039 -0.000536156 0)
(0.0998623 -0.000292417 0)
(0.0997867 -8.04324e-05 0)
(0.0999179 -6.25064e-05 0)
(0.0999538 -0.000114585 0)
(0.0999833 -0.000117221 0)
(0.09995 -0.000101462 0)
(0.0998663 -8.71927e-05 0)
(0.0998779 -0.000138104 0)
(0.0999213 -0.000172848 0)
(0.100012 -3.67399e-05 0)
(0.100032 8.25389e-05 0)
(0.100154 0.000141151 0)
(0.100259 0.000173224 0)
(0.10032 0.000212435 0)
(0.100392 0.00025304 0)
(0.100487 0.000257915 0)
(0.10058 0.000232021 0)
(0.100607 4.0166e-05 0)
(0.10048 -0.000287104 0)
(0.100188 -0.000525413 0)
(0.0999667 -0.000476968 0)
(0.0999591 -0.000270494 0)
(0.0999875 -0.000158213 0)
(0.09997 -0.000138772 0)
(0.100002 -0.000135451 0)
(0.099994 -0.000146505 0)
(0.0999119 -0.000118573 0)
(0.0998805 -0.000243257 0)
(0.0999621 -0.000239269 0)
(0.100033 -6.17982e-05 0)
(0.100062 6.22714e-05 0)
(0.10018 0.000117912 0)
(0.100288 0.000140544 0)
(0.100344 0.000164454 0)
(0.100381 0.000167016 0)
(0.100416 0.000144744 0)
(0.100433 7.21373e-05 0)
(0.100418 -3.97624e-05 0)
(0.100333 -0.000169826 0)
(0.100191 -0.000255131 0)
(0.100115 -0.00022458 0)
(0.100106 -0.000160178 0)
(0.10005 -0.000130472 0)
(0.0999785 -9.70519e-05 0)
(0.0999676 -9.16197e-05 0)
(0.0999694 -0.000138146 0)
(0.0999411 -0.000122056 0)
(0.0998936 -0.000361644 0)
(0.10002 -0.000306159 0)
(0.100058 -9.22902e-05 0)
(0.100097 4.24236e-05 0)
(0.100216 0.000114704 0)
(0.100312 0.000147152 0)
(0.100352 0.000160319 0)
(0.100374 0.000158239 0)
(0.100393 0.000137372 0)
(0.100396 9.48745e-05 0)
(0.100366 4.23022e-05 0)
(0.100264 -2.20907e-05 0)
(0.100134 -8.17434e-05 0)
(0.100066 -0.000114538 0)
(0.100055 -0.000175724 0)
(0.100052 -0.00019814 0)
(0.100013 -0.000151036 0)
(0.0999531 -0.000127918 0)
(0.099962 -0.000166906 0)
(0.100011 -0.000134893 0)
(0.0999138 -0.000462327 0)
(0.100097 -0.000367431 0)
(0.100115 -0.000139109 0)
(0.100169 2.86673e-05 0)
(0.100275 0.000131162 0)
(0.100341 0.000179089 0)
(0.100359 0.000194447 0)
(0.100359 0.000193533 0)
(0.100353 0.000158529 0)
(0.100338 0.000113096 0)
(0.100301 5.80071e-05 0)
(0.100209 4.39666e-06 0)
(0.100098 -2.61106e-05 0)
(0.100023 -6.15739e-05 0)
(0.10002 -0.000131018 0)
(0.100075 -0.000168515 0)
(0.100053 -0.000152806 0)
(0.0999452 -0.000117811 0)
(0.0999557 -0.000109054 0)
(0.100059 -8.8997e-05 0)
(0.0999297 -0.00047665 0)
(0.100162 -0.000385374 0)
(0.100202 -0.000178992 0)
(0.10029 7.61484e-06 0)
(0.100364 0.000137644 0)
(0.100383 0.000203739 0)
(0.10037 0.000221197 0)
(0.10034 0.000209022 0)
(0.100313 0.00017299 0)
(0.100296 0.000128078 0)
(0.100257 7.96161e-05 0)
(0.10018 3.95487e-05 0)
(0.100069 1.92946e-05 0)
(0.0999617 -1.83889e-05 0)
(0.0999464 -8.48697e-05 0)
(0.10003 -0.000155022 0)
(0.100067 -0.000184375 0)
(0.0999903 -0.000119922 0)
(0.0999859 -4.19679e-05 0)
(0.100062 -3.53179e-05 0)
(0.0999262 -0.000358621 0)
(0.100192 -0.000306014 0)
(0.1003 -0.000146097 0)
(0.100435 6.98762e-06 0)
(0.100474 0.000119309 0)
(0.100431 0.000183544 0)
(0.100368 0.000198569 0)
(0.100312 0.000180913 0)
(0.100273 0.000155697 0)
(0.100245 0.000116338 0)
(0.100212 7.60076e-05 0)
(0.100148 4.56237e-05 0)
(0.100041 2.6764e-05 0)
(0.0999192 3.7266e-06 0)
(0.0998828 -3.93689e-05 0)
(0.0999749 -0.000104749 0)
(0.100089 -0.000135982 0)
(0.100085 -6.77448e-05 0)
(0.100037 3.22863e-05 0)
(0.100006 1.88159e-05 0)
(0.0999143 -0.000133874 0)
(0.100206 -0.000122003 0)
(0.100377 -5.96479e-05 0)
(0.100525 -3.29678e-06 0)
(0.100542 3.40258e-05 0)
(0.100466 5.92166e-05 0)
(0.10037 6.38741e-05 0)
(0.100298 5.86396e-05 0)
(0.100248 4.82822e-05 0)
(0.100216 3.42466e-05 0)
(0.100186 1.92672e-05 0)
(0.100131 8.2677e-06 0)
(0.100027 1.7043e-06 0)
(0.099896 -5.61249e-06 0)
(0.099838 -2.16852e-05 0)
(0.0999326 -5.06853e-05 0)
(0.100106 -6.29967e-05 0)
(0.100156 -3.54448e-05 0)
(0.100075 1.02735e-05 0)
(0.0999375 -6.96065e-07 0)
)
;

boundaryField
{
    sides
    {
        type            calculated;
        value           nonuniform List<vector> 
40
(
(0.0999143 0 0)
(0.100206 0 0)
(0.100377 0 0)
(0.100525 0 0)
(0.100542 0 0)
(0.100466 0 0)
(0.10037 0 0)
(0.100298 0 0)
(0.100248 0 0)
(0.100216 0 0)
(0.100186 0 0)
(0.100131 0 0)
(0.100027 0 0)
(0.099896 0 0)
(0.099838 0 0)
(0.0999326 0 0)
(0.100106 0 0)
(0.100156 0 0)
(0.100075 0 0)
(0.0999375 0 0)
(0.0998969 0 0)
(0.100186 0 0)
(0.10035 0 0)
(0.100493 0 0)
(0.100511 0 0)
(0.100437 0 0)
(0.100342 0 0)
(0.100275 0 0)
(0.100233 0 0)
(0.100207 0 0)
(0.100182 0 0)
(0.100133 0 0)
(0.100036 0 0)
(0.0999135 0 0)
(0.0998637 0 0)
(0.0999692 0 0)
(0.100151 0 0)
(0.100222 0 0)
(0.100149 0 0)
(0.100052 0 0)
)
;
    }
    inlet
    {
        type            calculated;
        value           nonuniform List<vector> 
20
(
(0.0996802 0 0)
(0.0997792 0 0)
(0.0999153 0 0)
(0.100017 0 0)
(0.100063 0 0)
(0.100071 0 0)
(0.100056 0 0)
(0.100043 0 0)
(0.100032 0 0)
(0.100028 0 0)
(0.100029 0 0)
(0.100035 0 0)
(0.100048 0 0)
(0.100064 0 0)
(0.100081 0 0)
(0.100076 0 0)
(0.10003 0 0)
(0.0999295 0 0)
(0.0997948 0 0)
(0.0996985 0 0)
)
;
    }
    outlet
    {
        type            calculated;
        value           nonuniform List<vector> 
20
(
(0.100064 -3.47188e-05 0)
(0.100096 -3.95964e-05 0)
(0.10013 -1.18369e-05 0)
(0.100102 3.60046e-05 0)
(0.100053 7.22745e-05 0)
(0.0999663 6.6727e-05 0)
(0.099933 6.09928e-05 0)
(0.0998771 2.56553e-05 0)
(0.0998912 -1.10017e-05 0)
(0.0998817 -8.25625e-06 0)
(0.0998774 -5.98675e-05 0)
(0.0998815 -5.64452e-05 0)
(0.0998571 -8.71846e-05 0)
(0.0998946 -0.000118552 0)
(0.0999158 -0.000122025 0)
(0.0999824 -0.000134855 0)
(0.100034 -8.89748e-05 0)
(0.10005 -3.53139e-05 0)
(0.100009 1.88166e-05 0)
(0.0999504 -6.96154e-07 0)
)
;
    }
    frontAndBack
    {
        type            empty;
    }
}


// ************************************************************************* //
