/*--------------------------------*- C++ -*----------------------------------*\
  =========                 |
  \\      /  F ield         | OpenFOAM: The Open Source CFD Toolbox
   \\    /   O peration     | Website:  https://openfoam.org
    \\  /    A nd           | Version:  9
     \\/     M anipulation  |
\*---------------------------------------------------------------------------*/
FoamFile
{
    format      ascii;
    class       volVectorField;
    location    "84";
    object      ddt0(hU);
}
// * * * * * * * * * * * * * * * * * * * * * * * * * * * * * * * * * * * * * //

dimensions      [0 2 -2 0 0 0 0];

internalField   nonuniform List<vector> 
400
(
(1.39465e-09 -2.87033e-09 0)
(-2.83122e-09 -2.02425e-10 0)
(-3.97927e-09 4.82203e-10 0)
(-3.99719e-09 9.79687e-10 0)
(-2.57522e-09 2.40575e-09 0)
(-3.73557e-10 3.59802e-10 0)
(3.54844e-10 4.12253e-10 0)
(2.47726e-09 -1.21852e-09 0)
(2.21282e-09 -5.70601e-10 0)
(4.36559e-09 -1.87412e-09 0)
(9.92248e-10 -3.72039e-09 0)
(-8.2341e-10 -1.27778e-09 0)
(-2.08688e-09 -1.44035e-09 0)
(-5.96712e-10 1.25798e-09 0)
(3.36502e-09 5.46922e-10 0)
(1.74342e-09 -1.0401e-09 0)
(6.80672e-10 -1.10322e-09 0)
(1.35437e-09 5.59526e-10 0)
(2.43003e-10 1.41773e-09 0)
(2.65182e-10 7.04021e-10 0)
(2.61175e-09 -4.02695e-09 0)
(8.60121e-10 -7.49163e-10 0)
(-1.23142e-09 2.17087e-10 0)
(-2.08219e-09 2.60857e-09 0)
(-1.93278e-09 3.99965e-09 0)
(-1.23825e-09 5.36572e-10 0)
(-7.02612e-10 6.38613e-11 0)
(6.93967e-10 -9.99682e-10 0)
(2.39797e-09 -2.04264e-09 0)
(7.99964e-11 -2.8283e-09 0)
(2.35046e-09 -6.23476e-09 0)
(-2.43028e-10 -4.57859e-09 0)
(-8.5028e-10 -1.9668e-09 0)
(9.45165e-10 1.45866e-09 0)
(5.58005e-10 1.38865e-09 0)
(6.74644e-10 -1.67859e-09 0)
(2.81413e-10 -3.04159e-09 0)
(2.54737e-10 -1.50393e-09 0)
(-2.48274e-10 6.19462e-10 0)
(-1.88179e-09 7.38672e-10 0)
(9.21195e-10 -1.4733e-09 0)
(2.74062e-09 -1.5967e-09 0)
(1.73889e-09 9.75489e-11 0)
(4.29057e-10 2.66933e-09 0)
(-5.18018e-10 1.51077e-09 0)
(-2.19028e-09 2.63507e-10 0)
(-5.89671e-10 9.53216e-10 0)
(-1.69914e-09 8.02694e-10 0)
(9.14577e-10 -7.567e-10 0)
(4.29937e-11 -5.77425e-09 0)
(-2.57056e-09 -1.83777e-11 0)
(2.96103e-09 -8.89882e-09 0)
(3.13456e-10 -2.47765e-09 0)
(2.03243e-09 -2.74954e-10 0)
(1.56046e-09 -1.31364e-09 0)
(-8.71902e-10 -2.3609e-09 0)
(-2.373e-09 -3.11554e-09 0)
(-1.56537e-09 -2.20911e-09 0)
(-1.58999e-11 -4.76366e-10 0)
(-1.34377e-09 -5.10207e-11 0)
(-4.96259e-10 6.01522e-11 0)
(3.25318e-09 -1.60096e-09 0)
(2.90836e-09 1.82894e-10 0)
(1.95581e-09 6.38587e-10 0)
(-1.75808e-10 -8.14139e-10 0)
(-4.70533e-10 1.14496e-09 0)
(-2.08235e-09 3.76756e-09 0)
(-7.21364e-11 -4.71816e-11 0)
(-6.80972e-09 7.98839e-10 0)
(6.29157e-09 -6.6622e-09 0)
(-4.34747e-09 -3.1494e-09 0)
(-6.00501e-09 4.22069e-09 0)
(8.84203e-09 -7.63637e-09 0)
(5.32701e-10 -3.69582e-09 0)
(1.7919e-09 -3.81593e-09 0)
(2.83547e-09 -4.95373e-09 0)
(-5.8338e-10 -2.93769e-09 0)
(-1.79894e-09 4.57841e-10 0)
(-1.61273e-09 1.43563e-09 0)
(-2.46472e-09 4.15336e-10 0)
(-8.88399e-10 1.536e-09 0)
(2.06381e-09 -2.68053e-10 0)
(2.47713e-09 -1.00349e-09 0)
(1.75331e-09 -1.84108e-09 0)
(1.41723e-09 -1.27687e-09 0)
(2.58921e-10 3.35358e-09 0)
(-1.06241e-09 1.83476e-09 0)
(-4.90386e-09 1.95406e-09 0)
(8.67676e-10 -9.56373e-09 0)
(-1.4464e-08 1.74196e-08 0)
(2.37829e-08 -1.17104e-08 0)
(-1.58018e-08 1.52609e-08 0)
(-1.18779e-08 9.73141e-09 0)
(8.87174e-09 -5.30805e-09 0)
(1.34854e-09 -5.283e-09 0)
(2.52972e-09 -4.96861e-09 0)
(4.73769e-09 -3.64784e-09 0)
(2.4591e-09 -9.7687e-10 0)
(-5.38655e-10 1.86551e-10 0)
(-2.61732e-09 2.44477e-10 0)
(-1.12253e-09 2.34471e-09 0)
(-7.34977e-12 1.03087e-09 0)
(6.32193e-10 -1.41873e-09 0)
(1.77732e-09 -2.26101e-09 0)
(2.50702e-09 1.83757e-10 0)
(7.72222e-10 1.75766e-09 0)
(-1.41401e-09 4.71875e-11 0)
(-9.09356e-09 -5.36203e-09 0)
(1.0503e-08 5.58517e-09 0)
(-8.8904e-09 1.6064e-08 0)
(-9.34398e-09 2.55518e-08 0)
(3.02345e-08 -8.94508e-09 0)
(-3.11111e-08 2.64552e-08 0)
(-2.03424e-08 1.37142e-08 0)
(3.16782e-09 -5.07513e-10 0)
(4.93025e-09 -2.89021e-09 0)
(5.82691e-09 -3.57796e-09 0)
(5.73369e-09 -3.6761e-09 0)
(3.60745e-09 -2.76945e-09 0)
(9.37304e-10 -1.01224e-09 0)
(-1.27231e-09 1.60638e-09 0)
(-1.97119e-09 1.37521e-09 0)
(-4.91529e-10 2.99349e-11 0)
(1.70776e-09 7.6738e-11 0)
(2.71625e-09 8.2184e-10 0)
(6.36482e-10 -1.76703e-09 0)
(-6.67601e-09 -3.96773e-09 0)
(5.70194e-09 -3.08931e-09 0)
(-7.75199e-09 1.78663e-08 0)
(5.03064e-08 -2.60984e-08 0)
(-7.18538e-08 2.10422e-07 0)
(5.64382e-09 2.38313e-08 0)
(2.66039e-08 -3.78334e-09 0)
(-3.10661e-08 1.44493e-08 0)
(-2.21991e-08 9.65827e-09 0)
(-1.97896e-09 2.07745e-09 0)
(4.89797e-09 -1.03272e-09 0)
(6.26638e-09 -2.86647e-09 0)
(6.68856e-09 -2.76112e-09 0)
(5.39309e-09 -1.27397e-09 0)
(-1.10093e-09 7.95063e-11 0)
(-2.17658e-09 1.25767e-09 0)
(-6.1772e-10 2.09713e-09 0)
(1.47246e-09 2.41545e-09 0)
(1.2384e-09 -4.72492e-10 0)
(-1.69242e-09 -5.42479e-09 0)
(-2.03446e-09 -3.93864e-09 0)
(3.44343e-09 9.27495e-09 0)
(-1.02459e-08 -6.23914e-09 0)
(1.78518e-07 5.90649e-09 0)
(1.00609e-07 -2.16235e-07 0)
(-2.55814e-07 -2.30223e-08 0)
(-2.21591e-08 -1.57442e-08 0)
(2.5308e-09 -1.0535e-08 0)
(-1.56557e-08 8.28137e-09 0)
(-1.01406e-08 1.02643e-08 0)
(-9.65348e-10 5.16837e-09 0)
(3.36539e-09 1.42679e-09 0)
(6.9045e-09 -1.13296e-10 0)
(7.24172e-09 -4.60249e-10 0)
(-2.10651e-10 -6.36431e-10 0)
(-1.24284e-09 1.27968e-09 0)
(-8.20374e-12 3.05153e-09 0)
(7.3293e-11 1.97814e-09 0)
(-1.17865e-09 -2.02132e-09 0)
(-1.1319e-09 -6.58941e-09 0)
(2.15076e-09 -4.72685e-10 0)
(-2.0033e-09 1.26559e-08 0)
(9.66602e-09 -6.96227e-09 0)
(-1.75829e-07 7.63389e-09 0)
(-9.70875e-08 -2.25392e-07 0)
(2.52554e-07 -2.548e-08 0)
(2.6456e-08 -2.09225e-08 0)
(3.63599e-09 -1.37908e-08 0)
(8.42011e-09 1.6136e-09 0)
(-6.36057e-09 9.665e-09 0)
(-1.23972e-09 8.0461e-09 0)
(-3.53675e-09 4.21548e-09 0)
(2.41877e-09 2.14708e-09 0)
(4.82511e-09 1.17054e-09 0)
(5.70637e-10 -7.21487e-11 0)
(-1.06389e-10 1.29109e-09 0)
(-1.65813e-10 1.94769e-09 0)
(-1.19338e-09 -4.59102e-10 0)
(-3.13488e-09 -2.99443e-09 0)
(-3.69306e-10 -2.48521e-09 0)
(7.53889e-09 1.02725e-09 0)
(-3.74828e-09 3.44268e-09 0)
(8.58497e-09 1.43279e-08 0)
(-5.46224e-08 -2.6126e-08 0)
(7.1082e-08 1.973e-07 0)
(-8.68633e-10 1.02162e-09 0)
(-2.70011e-08 -1.25149e-08 0)
(3.40645e-08 4.5287e-09 0)
(2.04466e-08 -2.584e-10 0)
(-1.02057e-09 1.16168e-09 0)
(-1.73952e-08 3.99432e-09 0)
(-7.37391e-09 3.7024e-09 0)
(-1.35519e-09 2.90609e-09 0)
(1.01456e-09 1.56841e-09 0)
(8.45501e-10 8.8242e-10 0)
(-2.14682e-10 5.09717e-10 0)
(-9.6093e-10 -3.43375e-10 0)
(-2.21303e-09 -2.64016e-09 0)
(-2.57586e-09 -1.49476e-09 0)
(9.70719e-10 1.71261e-09 0)
(4.64333e-09 1.89836e-09 0)
(8.60466e-09 -6.23092e-09 0)
(-1.91083e-08 6.62343e-09 0)
(3.6704e-08 -2.40931e-09 0)
(-3.79887e-08 4.70972e-08 0)
(-4.84485e-08 5.59994e-09 0)
(4.98183e-08 1.77599e-08 0)
(2.29467e-08 8.70527e-09 0)
(5.55153e-09 -1.93934e-09 0)
(2.8858e-10 -3.30054e-09 0)
(-5.19216e-09 -1.74581e-09 0)
(-5.43216e-09 5.65373e-10 0)
(-2.59898e-09 1.36137e-09 0)
(-1.57827e-09 3.74018e-10 0)
(3.30164e-10 1.12072e-09 0)
(-1.42167e-09 -1.12392e-09 0)
(-1.84558e-09 -2.35783e-09 0)
(-1.59167e-09 -2.57779e-09 0)
(-1.12749e-09 1.10503e-09 0)
(9.5088e-10 5.44327e-09 0)
(2.47109e-09 -1.77603e-09 0)
(4.35868e-09 -5.55277e-09 0)
(-1.00113e-08 -1.19466e-08 0)
(-5.19504e-09 3.60701e-08 0)
(6.32552e-07 -5.70008e-08 0)
(-5.18873e-08 1.3764e-08 0)
(-1.08785e-08 2.41728e-08 0)
(6.10455e-09 2.24558e-09 0)
(3.69205e-09 -2.72675e-09 0)
(1.70663e-11 -7.3406e-09 0)
(-3.42616e-09 -7.04219e-09 0)
(-1.64407e-09 -3.90522e-09 0)
(-8.01519e-10 -2.01287e-09 0)
(-1.21253e-09 -8.22485e-10 0)
(-6.94565e-10 1.76633e-11 0)
(-2.75347e-09 -2.35961e-09 0)
(-1.87601e-09 -3.04312e-09 0)
(3.16962e-10 -9.91589e-10 0)
(1.22465e-09 2.8365e-09 0)
(-9.07334e-10 6.77697e-09 0)
(-1.21144e-09 -1.36232e-10 0)
(2.09941e-10 -9.2741e-09 0)
(1.3795e-08 -4.94988e-09 0)
(8.85879e-09 1.46567e-08 0)
(-6.73794e-07 -3.34339e-08 0)
(8.99682e-08 8.92667e-09 0)
(2.2136e-08 6.61207e-09 0)
(-1.43648e-08 2.77896e-09 0)
(-7.629e-09 -2.42972e-09 0)
(-5.66434e-09 -8.88062e-09 0)
(9.19845e-11 -7.60814e-09 0)
(2.74213e-09 -4.11486e-09 0)
(1.33965e-09 -2.79227e-09 0)
(1.00615e-09 -1.15388e-09 0)
(-1.6964e-09 -1.7015e-09 0)
(-2.88356e-09 -2.08769e-09 0)
(-7.64839e-10 -1.82385e-09 0)
(2.51397e-09 -1.51254e-12 0)
(3.3594e-09 1.92667e-09 0)
(-1.51184e-09 4.85978e-09 0)
(-5.14643e-09 4.46948e-09 0)
(-2.50294e-09 -5.22965e-09 0)
(1.24317e-08 -4.11408e-09 0)
(-3.11502e-08 -2.64415e-08 0)
(7.37923e-08 3.71647e-08 0)
(1.06883e-08 1.05325e-08 0)
(-2.19526e-08 -1.0674e-08 0)
(-7.12398e-09 -4.60848e-09 0)
(-1.40431e-08 -6.56515e-09 0)
(-7.18515e-09 -5.59875e-09 0)
(3.28425e-09 -2.37744e-09 0)
(5.27306e-09 5.47227e-10 0)
(2.18015e-09 6.84078e-10 0)
(1.90815e-09 2.11941e-10 0)
(-2.23413e-09 -2.64636e-09 0)
(-1.12365e-09 -5.28741e-10 0)
(5.3625e-10 5.46393e-10 0)
(3.58847e-09 1.99903e-10 0)
(4.92782e-09 -1.35064e-09 0)
(5.14334e-10 -2.82719e-10 0)
(-6.40987e-09 4.93528e-09 0)
(-2.98524e-09 4.08662e-09 0)
(-6.10416e-09 -6.55734e-09 0)
(1.14001e-08 -9.1656e-09 0)
(-1.00294e-08 3.45149e-09 0)
(-9.65421e-09 -2.4641e-08 0)
(1.28234e-09 -9.59714e-09 0)
(-1.38549e-08 -1.03928e-08 0)
(-1.10949e-08 -6.0724e-09 0)
(6.12171e-10 6.00748e-11 0)
(8.22303e-09 4.06746e-09 0)
(6.36949e-09 5.52692e-09 0)
(8.44798e-10 4.4974e-09 0)
(-5.94297e-10 1.83964e-09 0)
(-1.69903e-09 -2.16277e-09 0)
(1.4684e-09 3.96433e-10 0)
(1.56478e-09 2.65146e-09 0)
(2.46591e-09 9.14974e-10 0)
(4.30543e-09 -3.09982e-09 0)
(2.32973e-09 -6.38079e-09 0)
(-2.21374e-09 1.23304e-10 0)
(-5.96561e-09 7.31453e-09 0)
(-1.69423e-09 3.7627e-09 0)
(-6.2641e-10 2.47621e-09 0)
(-2.61692e-09 -1.00555e-08 0)
(2.2137e-09 -1.05736e-09 0)
(-6.37094e-09 -7.11664e-09 0)
(-5.23502e-09 -4.70949e-09 0)
(7.13117e-10 2.02991e-09 0)
(7.64817e-09 7.60704e-09 0)
(9.76397e-09 8.1885e-09 0)
(4.487e-09 5.55786e-09 0)
(-2.52436e-09 3.53938e-09 0)
(-5.25093e-09 1.69222e-09 0)
(-2.70749e-10 -5.14722e-10 0)
(3.31872e-09 8.87968e-11 0)
(1.84855e-09 2.31676e-09 0)
(1.54642e-10 2.17444e-09 0)
(7.52858e-10 -1.83799e-09 0)
(2.69804e-09 -7.16148e-09 0)
(1.35925e-09 -5.85189e-09 0)
(-1.52017e-09 2.22306e-09 0)
(-2.65303e-09 7.26157e-09 0)
(-4.29895e-09 3.95283e-09 0)
(3.29365e-10 6.1572e-09 0)
(8.56608e-10 2.93728e-09 0)
(1.27785e-09 1.76301e-09 0)
(4.38003e-09 3.13411e-09 0)
(7.99531e-09 6.66529e-09 0)
(9.60998e-09 9.5256e-09 0)
(5.54696e-09 6.29433e-09 0)
(-5.53083e-10 2.04641e-10 0)
(-5.73202e-09 -1.98893e-09 0)
(-7.938e-09 -6.09003e-10 0)
(1.1214e-09 1.36659e-09 0)
(3.26142e-09 1.76377e-10 0)
(1.47403e-09 -5.58967e-10 0)
(-1.9105e-09 1.33272e-09 0)
(-2.97835e-09 8.49049e-10 0)
(4.6045e-10 -2.26687e-09 0)
(2.57446e-09 -5.74538e-09 0)
(1.60515e-09 -3.28307e-09 0)
(-1.91467e-09 6.78144e-11 0)
(-1.89632e-09 3.29228e-09 0)
(-1.35522e-09 6.67197e-09 0)
(-7.30121e-10 5.41479e-09 0)
(2.56408e-09 3.98932e-09 0)
(5.64438e-09 1.90658e-09 0)
(8.35899e-09 3.01448e-09 0)
(5.03793e-09 3.35782e-09 0)
(-1.24153e-09 -2.70376e-10 0)
(-4.43365e-09 -5.95651e-09 0)
(-5.62759e-09 -7.8128e-09 0)
(-5.29047e-09 -3.44166e-09 0)
(1.74935e-09 1.68005e-09 0)
(1.55692e-09 9.23848e-10 0)
(2.77329e-10 -2.33929e-09 0)
(-2.91582e-09 -8.65624e-10 0)
(-4.3256e-09 1.91887e-09 0)
(-1.59745e-09 2.00633e-09 0)
(2.07995e-09 -8.67639e-10 0)
(2.36836e-09 -3.43416e-09 0)
(4.76997e-10 -2.89057e-09 0)
(-4.45308e-10 -4.46521e-10 0)
(-1.46294e-09 9.12065e-10 0)
(-1.70669e-09 1.97881e-09 0)
(-1.06625e-09 -4.80672e-10 0)
(2.0078e-09 -2.67684e-09 0)
(3.554e-09 -3.32405e-09 0)
(-3.73708e-11 -3.31686e-09 0)
(-4.54029e-09 -4.20413e-09 0)
(-5.13123e-09 -6.98266e-09 0)
(-1.75028e-09 -8.27167e-09 0)
(2.80959e-09 -3.94753e-09 0)
(2.65389e-09 5.73324e-10 0)
(4.26193e-10 6.30953e-10 0)
(-8.82882e-10 -1.14291e-09 0)
(-3.51113e-09 -8.70047e-10 0)
(-4.41873e-09 8.31961e-10 0)
(-2.33655e-09 1.4718e-09 0)
(1.39589e-09 7.30407e-10 0)
(2.52198e-09 -9.67251e-10 0)
(2.11023e-09 -1.24031e-09 0)
(5.45751e-10 -7.55019e-10 0)
(-3.92642e-10 -5.08034e-10 0)
(-2.36632e-09 -1.86982e-10 0)
(-3.38486e-09 -1.38294e-09 0)
(-7.78661e-10 -2.23263e-09 0)
(6.1598e-10 -2.73542e-09 0)
(-9.59187e-10 -2.50144e-09 0)
(-3.81768e-09 -2.17489e-09 0)
(-3.63962e-09 -2.72681e-09 0)
(2.31929e-09 -3.14332e-09 0)
(9.2518e-09 -1.58726e-09 0)
)
;

boundaryField
{
    sides
    {
        type            calculated;
        value           nonuniform List<vector> 
40
(
(2.65389e-09 0 0)
(4.26193e-10 0 0)
(-8.82882e-10 0 0)
(-3.51113e-09 0 0)
(-4.41873e-09 0 0)
(-2.33655e-09 0 0)
(1.39589e-09 0 0)
(2.52198e-09 0 0)
(2.11023e-09 0 0)
(5.45751e-10 0 0)
(-3.92642e-10 0 0)
(-2.36632e-09 0 0)
(-3.38486e-09 0 0)
(-7.78661e-10 0 0)
(6.1598e-10 0 0)
(-9.59187e-10 0 0)
(-3.81768e-09 0 0)
(-3.63962e-09 0 0)
(2.31929e-09 0 0)
(9.2518e-09 0 0)
(1.39465e-09 0 0)
(-2.83122e-09 0 0)
(-3.97927e-09 0 0)
(-3.99719e-09 0 0)
(-2.57522e-09 0 0)
(-3.73557e-10 0 0)
(3.54844e-10 0 0)
(2.47726e-09 0 0)
(2.21282e-09 0 0)
(4.36559e-09 0 0)
(9.92248e-10 0 0)
(-8.2341e-10 0 0)
(-2.08688e-09 0 0)
(-5.96712e-10 0 0)
(3.36502e-09 0 0)
(1.74342e-09 0 0)
(6.80672e-10 0 0)
(1.35437e-09 0 0)
(2.43003e-10 0 0)
(2.65182e-10 0 0)
)
;
    }
    inlet
    {
        type            calculated;
        value           uniform (0 0 0);
    }
    outlet
    {
        type            calculated;
        value           nonuniform List<vector> 
20
(
(2.65182e-10 7.04021e-10 0)
(-1.88179e-09 7.38672e-10 0)
(-1.34377e-09 -5.10207e-11 0)
(-2.46472e-09 4.15336e-10 0)
(-2.61732e-09 2.44477e-10 0)
(9.37304e-10 -1.01224e-09 0)
(5.39309e-09 -1.27397e-09 0)
(7.24172e-09 -4.60249e-10 0)
(4.82511e-09 1.17054e-09 0)
(1.01456e-09 1.56841e-09 0)
(-1.57827e-09 3.74018e-10 0)
(-1.21253e-09 -8.22485e-10 0)
(1.00615e-09 -1.15388e-09 0)
(1.90815e-09 2.11941e-10 0)
(-5.94297e-10 1.83964e-09 0)
(-5.25093e-09 1.69222e-09 0)
(-7.938e-09 -6.09003e-10 0)
(-5.29047e-09 -3.44166e-09 0)
(2.80959e-09 -3.94753e-09 0)
(9.2518e-09 -1.58726e-09 0)
)
;
    }
    frontAndBack
    {
        type            empty;
    }
}


// ************************************************************************* //
