/*--------------------------------*- C++ -*----------------------------------*\
  =========                 |
  \\      /  F ield         | OpenFOAM: The Open Source CFD Toolbox
   \\    /   O peration     | Website:  https://openfoam.org
    \\  /    A nd           | Version:  9
     \\/     M anipulation  |
\*---------------------------------------------------------------------------*/
FoamFile
{
    format      ascii;
    class       volScalarField;
    location    "84";
    object      ddt0(h);
}
// * * * * * * * * * * * * * * * * * * * * * * * * * * * * * * * * * * * * * //

dimensions      [0 1 -1 0 0 0 0];

internalField   nonuniform List<scalar> 
400
(
2.49628e-08
1.11797e-09
-1.58023e-08
-8.17325e-09
-2.44852e-08
-1.62705e-08
-1.01851e-08
8.43214e-09
5.07394e-09
1.09938e-08
3.44473e-09
1.84272e-08
2.05851e-08
9.92358e-09
-2.79831e-09
-1.21214e-08
1.8875e-08
3.75957e-08
8.8387e-09
-4.00761e-09
1.54402e-08
1.14316e-09
2.72552e-09
-1.02722e-08
-1.4241e-08
-3.48644e-09
-3.17626e-09
2.0301e-09
1.16008e-08
-2.15864e-09
1.13698e-08
2.30172e-09
1.00418e-08
4.3152e-09
-9.59426e-09
-7.73368e-09
-5.37745e-10
3.15567e-09
4.93707e-09
-4.49326e-10
-8.73293e-09
3.7956e-09
1.3868e-08
-6.77831e-09
1.17382e-08
7.62522e-09
8.18297e-10
-9.26592e-09
7.42904e-09
4.25004e-09
-1.46847e-08
1.728e-08
-1.139e-08
1.57434e-09
5.705e-09
1.86554e-09
-1.21313e-08
-2.2363e-08
-1.10396e-08
4.14104e-10
-1.7464e-08
4.55839e-10
6.22413e-09
9.04228e-09
2.15512e-08
1.23209e-08
-1.48728e-08
1.55639e-08
-1.87969e-08
4.69215e-08
-2.94161e-08
-2.06963e-08
2.45086e-08
-1.18791e-08
1.71591e-08
2.48285e-08
-9.20928e-09
-3.46174e-08
-2.31341e-08
-5.02056e-09
-1.22282e-08
-1.34297e-09
7.04134e-10
8.11953e-09
1.92197e-08
-1.11455e-08
1.6997e-08
-4.94406e-09
6.62667e-08
-1.07362e-07
1.36022e-07
-1.20689e-07
-4.10916e-08
2.83829e-08
7.63009e-09
1.88114e-08
6.47405e-09
-1.46665e-08
-1.14836e-08
-2.41098e-09
-4.23411e-09
5.49045e-09
-1.16494e-09
1.03522e-09
-1.1293e-08
-4.53613e-09
1.75623e-08
4.39533e-08
5.24031e-10
-1.05137e-07
-4.5625e-08
1.22613e-07
-1.57031e-07
-6.70745e-08
1.56955e-08
1.93687e-08
1.71744e-08
1.56652e-08
1.58503e-08
8.60785e-09
7.25971e-10
1.07807e-08
2.2746e-09
-1.73335e-08
-1.64797e-08
-3.23543e-09
4.29208e-08
5.52288e-08
-2.4014e-07
3.26399e-07
-5.73423e-07
1.07177e-07
1.08877e-07
-9.57985e-08
-6.91084e-08
-7.08137e-09
1.77911e-08
2.93068e-08
3.33792e-08
1.82617e-08
2.55215e-09
1.13235e-08
-2.843e-09
-1.84589e-08
-1.31877e-08
2.20548e-08
3.54027e-08
-4.03706e-08
1.45923e-08
-1.23324e-07
4.43081e-07
-5.00757e-07
2.57542e-08
1.29962e-08
-5.45446e-08
-3.23e-08
-6.74513e-11
2.1743e-08
3.48707e-08
1.99018e-08
3.6457e-09
4.38517e-09
-6.65735e-09
-1.52378e-08
1.75529e-08
1.74177e-08
-6.92257e-09
-4.85208e-10
-3.68225e-08
1.27612e-07
-4.26992e-07
4.91179e-07
7.86526e-09
1.47053e-08
1.66108e-08
-2.67233e-08
4.6938e-08
-6.08566e-09
1.50318e-08
8.51087e-09
2.94852e-09
-3.23722e-09
-7.56433e-09
8.18381e-10
2.55149e-08
2.35428e-08
-5.69625e-08
-5.02413e-08
2.50685e-07
-3.22056e-07
5.8091e-07
-9.41646e-08
-1.22811e-07
1.07166e-07
6.43977e-08
-1.1466e-08
-1.08325e-07
-2.07389e-08
-7.2349e-09
1.16185e-09
1.39957e-09
-6.7479e-09
-9.49168e-10
9.50863e-09
2.2986e-08
-3.32534e-10
-3.88194e-08
-2.7414e-08
4.38141e-09
2.50699e-07
-2.83702e-07
-9.64184e-08
2.06149e-07
7.16519e-08
2.2477e-08
-5.32442e-09
-1.87658e-08
-1.22584e-08
-6.19839e-09
-4.20722e-09
2.74645e-09
-5.73976e-09
5.06914e-09
9.50976e-09
3.19338e-09
1.70986e-09
-2.9628e-08
-7.79576e-09
3.72845e-08
-2.59061e-07
5.99463e-06
-2.29136e-07
1.19748e-08
2.3256e-08
2.03589e-08
-3.87614e-09
-8.84938e-09
4.04387e-09
1.61647e-09
-3.59072e-09
5.01826e-09
6.5813e-10
3.17121e-09
3.45697e-09
-1.6438e-08
6.76562e-09
1.00187e-08
-1.21152e-08
-9.56163e-08
3.87999e-07
-6.26466e-06
4.39885e-07
2.20882e-08
-2.30442e-08
-1.38243e-08
-1.8173e-08
-1.48717e-09
1.42239e-08
2.97827e-09
-4.07614e-09
1.87336e-09
3.97368e-09
2.59118e-09
-3.50738e-09
-2.48839e-08
3.56538e-09
4.86112e-08
-3.11591e-08
1.10927e-08
-2.17781e-07
5.92482e-07
-5.03518e-08
-5.22538e-08
-1.6281e-08
-3.6693e-08
-1.70202e-08
8.51978e-09
1.63225e-08
2.35026e-09
-4.08292e-09
-1.11746e-08
3.78263e-09
8.39956e-09
5.01109e-09
-2.15397e-08
-7.06472e-09
4.98289e-08
4.10193e-08
-6.48211e-08
2.28746e-08
-1.20144e-07
-5.95197e-08
-2.55497e-08
-6.90703e-08
-3.00193e-08
1.00586e-08
1.59329e-08
8.57687e-09
8.39281e-10
-1.60163e-09
-2.35822e-08
-3.65074e-09
2.07081e-08
2.25263e-08
-2.94074e-09
-2.28546e-08
2.30996e-08
4.38427e-08
1.27201e-08
-3.0482e-09
-1.85899e-08
-2.03945e-09
-5.61557e-08
-3.10941e-08
1.36748e-08
3.77482e-08
1.62364e-08
-8.719e-09
-9.00808e-09
-1.73432e-09
-2.02039e-08
-1.3215e-08
1.64591e-08
3.58882e-08
1.7366e-08
-1.84544e-08
-2.02017e-08
1.2709e-08
2.62292e-08
1.34842e-08
2.42576e-08
2.73986e-09
4.76512e-09
2.02527e-08
4.46159e-08
4.64253e-08
7.6003e-09
-2.64423e-08
-2.62583e-08
-9.21945e-09
-1.82765e-09
-1.30693e-08
-3.51987e-09
2.65576e-08
2.45843e-08
-2.43524e-09
-3.13755e-08
-1.74172e-08
-1.75722e-09
6.96696e-09
5.2601e-09
5.78985e-09
2.21909e-08
2.77569e-08
3.3e-08
2.23595e-08
-2.22823e-09
-2.49635e-08
-3.12352e-08
-1.48054e-08
1.46991e-08
1.40195e-10
-1.43069e-08
-4.42735e-09
7.91876e-09
2.82396e-09
-9.05749e-09
-1.05831e-08
-3.47995e-09
-6.06386e-09
-1.35947e-08
-1.85518e-09
9.19486e-09
6.45872e-09
-8.79825e-09
-1.14675e-08
-1.75579e-09
-3.69804e-09
-1.28344e-08
-8.03327e-09
2.72232e-08
1.25776e-08
-1.2146e-08
-2.94617e-08
-1.56371e-08
-3.86845e-09
7.25624e-09
1.02116e-08
1.1367e-08
-2.15527e-09
-8.03852e-09
-9.60944e-10
5.35372e-09
-8.05851e-09
-3.43787e-08
-2.51627e-08
7.4287e-09
1.99894e-08
1.38422e-08
4.91733e-09
)
;

boundaryField
{
    sides
    {
        type            calculated;
        value           nonuniform List<scalar> 
40
(
2.72232e-08
1.25776e-08
-1.2146e-08
-2.94617e-08
-1.56371e-08
-3.86845e-09
7.25624e-09
1.02116e-08
1.1367e-08
-2.15527e-09
-8.03852e-09
-9.60944e-10
5.35372e-09
-8.05851e-09
-3.43787e-08
-2.51627e-08
7.4287e-09
1.99894e-08
1.38422e-08
4.91733e-09
2.49628e-08
1.11797e-09
-1.58023e-08
-8.17325e-09
-2.44852e-08
-1.62705e-08
-1.01851e-08
8.43214e-09
5.07394e-09
1.09938e-08
3.44473e-09
1.84272e-08
2.05851e-08
9.92358e-09
-2.79831e-09
-1.21214e-08
1.8875e-08
3.75957e-08
8.8387e-09
-4.00761e-09
)
;
    }
    inlet
    {
        type            calculated;
        value           nonuniform List<scalar> 
20
(
2.49628e-08
1.54402e-08
-8.73293e-09
-1.7464e-08
-1.22282e-08
-4.23411e-09
7.25971e-10
2.55215e-09
3.6457e-09
2.94852e-09
1.39957e-09
2.74645e-09
5.01826e-09
1.87336e-09
-1.11746e-08
-2.35822e-08
-2.02039e-08
-1.82765e-09
1.46991e-08
2.72232e-08
)
;
    }
    outlet
    {
        type            calculated;
        value           uniform 0;
    }
    frontAndBack
    {
        type            empty;
    }
}


// ************************************************************************* //
