/*--------------------------------*- C++ -*----------------------------------*\
  =========                 |
  \\      /  F ield         | OpenFOAM: The Open Source CFD Toolbox
   \\    /   O peration     | Website:  https://openfoam.org
    \\  /    A nd           | Version:  9
     \\/     M anipulation  |
\*---------------------------------------------------------------------------*/
FoamFile
{
    format      ascii;
    class       volVectorField;
    location    "84";
    object      hU;
}
// * * * * * * * * * * * * * * * * * * * * * * * * * * * * * * * * * * * * * //

dimensions      [0 2 -1 0 0 0 0];

internalField   nonuniform List<vector> 
400
(
(0.001 -2.46237e-08 0)
(0.00100004 -7.05667e-08 0)
(0.00100012 -1.13111e-07 0)
(0.00100024 -1.52188e-07 0)
(0.00100039 -1.86855e-07 0)
(0.00100058 -2.16377e-07 0)
(0.00100078 -2.36652e-07 0)
(0.00100099 -2.45304e-07 0)
(0.00100118 -2.36309e-07 0)
(0.00100133 -2.11356e-07 0)
(0.0010014 -1.68754e-07 0)
(0.0010014 -1.28756e-07 0)
(0.00100129 -9.93101e-08 0)
(0.00100111 -9.31501e-08 0)
(0.00100087 -9.9744e-08 0)
(0.00100064 -1.358e-07 0)
(0.00100044 -1.56893e-07 0)
(0.00100034 -2.01462e-07 0)
(0.00100026 -1.88768e-07 0)
(0.00100033 -2.68517e-07 0)
(0.001 -2.74985e-08 0)
(0.00100005 -7.897e-08 0)
(0.00100013 -1.28086e-07 0)
(0.00100026 -1.73565e-07 0)
(0.00100042 -2.12386e-07 0)
(0.00100062 -2.39554e-07 0)
(0.00100084 -2.45353e-07 0)
(0.00100108 -2.20196e-07 0)
(0.0010013 -1.5466e-07 0)
(0.00100147 -4.80322e-08 0)
(0.00100156 9.30427e-08 0)
(0.00100154 2.46797e-07 0)
(0.00100141 3.88994e-07 0)
(0.00100119 4.76529e-07 0)
(0.00100092 5.0507e-07 0)
(0.00100067 4.51665e-07 0)
(0.00100048 3.77897e-07 0)
(0.00100036 2.56568e-07 0)
(0.00100033 2.04978e-07 0)
(0.00100029 8.09288e-08 0)
(0.001 -5.31993e-08 0)
(0.00100004 -1.59375e-07 0)
(0.00100013 -2.66887e-07 0)
(0.00100026 -3.73306e-07 0)
(0.00100043 -4.72918e-07 0)
(0.00100064 -5.54886e-07 0)
(0.0010009 -6.02971e-07 0)
(0.00100117 -5.97259e-07 0)
(0.00100143 -5.18062e-07 0)
(0.00100164 -3.52387e-07 0)
(0.00100176 -1.10207e-07 0)
(0.00100176 1.6162e-07 0)
(0.00100159 4.01346e-07 0)
(0.0010013 5.19882e-07 0)
(0.00100095 4.99482e-07 0)
(0.00100062 3.53846e-07 0)
(0.00100037 2.03024e-07 0)
(0.00100026 4.59064e-08 0)
(0.00100022 -3.47806e-09 0)
(0.0010003 -1.17298e-07 0)
(0.001 -7.36516e-08 0)
(0.00100004 -2.22617e-07 0)
(0.00100013 -3.75192e-07 0)
(0.00100026 -5.30663e-07 0)
(0.00100045 -6.80722e-07 0)
(0.00100069 -8.09625e-07 0)
(0.001001 -8.88293e-07 0)
(0.00100134 -8.85232e-07 0)
(0.00100171 -7.55693e-07 0)
(0.00100203 -4.75929e-07 0)
(0.00100222 -2.32093e-08 0)
(0.00100219 4.93055e-07 0)
(0.00100192 9.36176e-07 0)
(0.00100146 1.1391e-06 0)
(0.00100097 1.05421e-06 0)
(0.00100058 7.42866e-07 0)
(0.00100041 4.24167e-07 0)
(0.00100035 1.70814e-07 0)
(0.0010004 1.0254e-07 0)
(0.00100035 4.25053e-10 0)
(0.001 -9.04968e-08 0)
(0.00100004 -2.77983e-07 0)
(0.00100012 -4.7752e-07 0)
(0.00100025 -6.94789e-07 0)
(0.00100044 -9.21371e-07 0)
(0.00100072 -1.13897e-06 0)
(0.00100109 -1.29825e-06 0)
(0.00100155 -1.33694e-06 0)
(0.00100206 -1.17636e-06 0)
(0.00100257 -7.77829e-07 0)
(0.0010029 -1.71109e-07 0)
(0.00100288 5.80617e-07 0)
(0.00100244 1.23186e-06 0)
(0.00100167 1.51107e-06 0)
(0.00100086 1.37434e-06 0)
(0.00100031 9.64094e-07 0)
(0.00100013 5.81716e-07 0)
(0.00100021 3.15483e-07 0)
(0.00100036 2.63106e-07 0)
(0.00100043 1.6819e-07 0)
(0.001 -1.02582e-07 0)
(0.00100003 -3.18228e-07 0)
(0.00100009 -5.62626e-07 0)
(0.00100019 -8.45631e-07 0)
(0.00100038 -1.17342e-06 0)
(0.00100068 -1.525e-06 0)
(0.00100115 -1.859e-06 0)
(0.00100178 -2.05471e-06 0)
(0.00100254 -1.91234e-06 0)
(0.00100326 -1.1983e-06 0)
(0.00100377 8.68997e-08 0)
(0.00100378 1.54461e-06 0)
(0.00100309 2.43696e-06 0)
(0.00100192 2.30582e-06 0)
(0.00100082 1.42945e-06 0)
(0.00100019 4.91681e-07 0)
(0.00100017 1.30862e-08 0)
(0.00100037 -8.49631e-08 0)
(0.00100064 6.06512e-08 0)
(0.00100054 5.01191e-08 0)
(0.001 -1.02003e-07 0)
(0.001 -3.33192e-07 0)
(0.00100002 -6.02164e-07 0)
(0.00100008 -9.62542e-07 0)
(0.00100021 -1.39283e-06 0)
(0.00100048 -1.94667e-06 0)
(0.001001 -2.48983e-06 0)
(0.00100188 -3.08474e-06 0)
(0.00100321 -3.23283e-06 0)
(0.00100473 -2.88025e-06 0)
(0.00100573 -6.5933e-07 0)
(0.00100535 2.55808e-06 0)
(0.00100349 4.82892e-06 0)
(0.00100112 4.738e-06 0)
(0.000999607 3.02876e-06 0)
(0.000999372 1.26359e-06 0)
(0.00100001 4.30791e-07 0)
(0.00100056 3.26608e-07 0)
(0.00100093 5.62015e-07 0)
(0.00100066 5.33872e-07 0)
(0.000999995 -9.2303e-08 0)
(0.000999968 -2.88581e-07 0)
(0.000999907 -5.76958e-07 0)
(0.000999876 -9.56821e-07 0)
(0.000999879 -1.57779e-06 0)
(0.0010001 -2.34577e-06 0)
(0.0010005 -3.40341e-06 0)
(0.00100152 -4.12382e-06 0)
(0.00100308 -4.37172e-06 0)
(0.00100602 -2.55103e-06 0)
(0.00100912 7.41635e-07 0)
(0.00100913 4.26307e-06 0)
(0.0010055 4.71749e-06 0)
(0.00100073 2.78262e-06 0)
(0.000998148 7.36711e-07 0)
(0.000998273 -2.73909e-07 0)
(0.000999798 -2.85626e-07 0)
(0.00100088 -9.91917e-09 0)
(0.00100133 2.11699e-07 0)
(0.00100085 1.02661e-07 0)
(0.000999995 -4.91814e-08 0)
(0.000999915 -2.03696e-07 0)
(0.000999756 -3.86266e-07 0)
(0.000999531 -7.34786e-07 0)
(0.000999287 -1.33885e-06 0)
(0.00099921 -2.48257e-06 0)
(0.000999707 -4.68837e-06 0)
(0.00100139 -8.06709e-06 0)
(0.00100491 -1.32841e-05 0)
(0.00100957 -1.49137e-05 0)
(0.00101188 3.82958e-06 0)
(0.00100894 1.87255e-05 0)
(0.00100222 1.57798e-05 0)
(0.000997567 5.74206e-06 0)
(0.000996885 -3.14909e-07 0)
(0.000998459 -1.26239e-06 0)
(0.00100027 -9.42515e-08 0)
(0.001001 6.34315e-07 0)
(0.00100107 6.51353e-07 0)
(0.00100054 2.4346e-07 0)
(0.000999804 -1.97483e-08 0)
(0.00100017 -6.65011e-08 0)
(0.000999216 -1.51103e-07 0)
(0.000999904 -2.48622e-07 0)
(0.000997521 -5.92729e-07 0)
(0.000998843 -1.13224e-06 0)
(0.000993347 -2.88423e-06 0)
(0.000997531 -5.59252e-06 0)
(0.000991667 -1.15407e-05 0)
(0.000915829 -1.27053e-05 0)
(0.00095147 2.8364e-07 0)
(0.00101023 1.46403e-05 0)
(0.000990951 1.30848e-05 0)
(0.000983977 5.14227e-06 0)
(0.000989586 1.9481e-07 0)
(0.000996279 -7.80961e-07 0)
(0.000999234 -1.11351e-07 0)
(0.000999411 2.48347e-07 0)
(0.000998647 1.74138e-07 0)
(0.000998504 -1.85002e-07 0)
(0.000999804 1.32025e-08 0)
(0.00100017 4.60764e-08 0)
(0.000999215 1.17577e-07 0)
(0.000999903 1.99746e-07 0)
(0.000997518 5.28892e-07 0)
(0.000998837 1.05111e-06 0)
(0.000993339 2.7863e-06 0)
(0.000997521 5.47272e-06 0)
(0.00099165 1.13969e-05 0)
(0.000915811 1.25496e-05 0)
(0.000951429 -4.73283e-07 0)
(0.0010102 -1.4905e-05 0)
(0.00099095 -1.34062e-05 0)
(0.000983967 -5.535e-06 0)
(0.000989566 -6.4835e-07 0)
(0.000996241 2.48053e-07 0)
(0.000999193 -4.72203e-07 0)
(0.000999365 -1.00212e-06 0)
(0.000998632 -9.88326e-07 0)
(0.000998454 -8.88471e-07 0)
(0.000999995 4.27716e-08 0)
(0.000999915 1.83875e-07 0)
(0.000999755 3.53279e-07 0)
(0.00099953 6.87001e-07 0)
(0.000999285 1.27633e-06 0)
(0.00099921 2.40191e-06 0)
(0.000999702 4.58919e-06 0)
(0.00100139 7.94171e-06 0)
(0.0010049 1.31295e-05 0)
(0.00100957 1.47191e-05 0)
(0.00101191 -4.06405e-06 0)
(0.0010089 -1.90046e-05 0)
(0.00100214 -1.60954e-05 0)
(0.000997477 -6.12407e-06 0)
(0.000996813 -8.56497e-08 0)
(0.000998399 7.74193e-07 0)
(0.00100016 -4.27828e-07 0)
(0.00100085 -1.30521e-06 0)
(0.00100088 -1.37915e-06 0)
(0.00100037 -1.25059e-06 0)
(0.000999996 8.61158e-08 0)
(0.000999967 2.69766e-07 0)
(0.000999905 5.44588e-07 0)
(0.000999871 9.10148e-07 0)
(0.00099987 1.51383e-06 0)
(0.00100008 2.26221e-06 0)
(0.00100048 3.2943e-06 0)
(0.00100149 3.99029e-06 0)
(0.00100303 4.20957e-06 0)
(0.00100595 2.36369e-06 0)
(0.00100899 -9.76877e-07 0)
(0.00100906 -4.54044e-06 0)
(0.00100543 -5.02142e-06 0)
(0.00100066 -3.1314e-06 0)
(0.000998056 -1.13313e-06 0)
(0.000998133 -2.52804e-07 0)
(0.000999622 -3.23392e-07 0)
(0.00100064 -7.41765e-07 0)
(0.00100106 -9.67139e-07 0)
(0.00100055 -1.07372e-06 0)
(0.001 9.6087e-08 0)
(0.001 3.15179e-07 0)
(0.00100002 5.71525e-07 0)
(0.00100007 9.17859e-07 0)
(0.0010002 1.33395e-06 0)
(0.00100046 1.87134e-06 0)
(0.00100097 2.39958e-06 0)
(0.00100185 2.97546e-06 0)
(0.00100318 3.11164e-06 0)
(0.00100469 2.73049e-06 0)
(0.00100568 5.04164e-07 0)
(0.00100527 -2.75339e-06 0)
(0.00100338 -5.07896e-06 0)
(0.00100096 -5.07181e-06 0)
(0.000999408 -3.4502e-06 0)
(0.000999122 -1.79445e-06 0)
(0.000999745 -1.02109e-06 0)
(0.00100025 -1.05919e-06 0)
(0.00100061 -1.30687e-06 0)
(0.00100024 -1.51526e-06 0)
(0.001 9.71614e-08 0)
(0.00100003 3.02159e-07 0)
(0.00100008 5.35631e-07 0)
(0.00100018 8.06328e-07 0)
(0.00100036 1.1217e-06 0)
(0.00100066 1.45893e-06 0)
(0.00100112 1.77844e-06 0)
(0.00100174 1.95211e-06 0)
(0.00100248 1.78359e-06 0)
(0.00100317 1.03528e-06 0)
(0.00100366 -2.79348e-07 0)
(0.00100363 -1.78357e-06 0)
(0.00100292 -2.7112e-06 0)
(0.00100171 -2.63197e-06 0)
(0.00100058 -1.77854e-06 0)
(0.000999905 -8.94638e-07 0)
(0.000999859 -4.26668e-07 0)
(0.000999982 -4.47788e-07 0)
(0.00100022 -6.16082e-07 0)
(0.00100001 -8.48247e-07 0)
(0.001 8.56318e-08 0)
(0.00100004 2.63893e-07 0)
(0.00100011 4.544e-07 0)
(0.00100024 6.62099e-07 0)
(0.00100043 8.7774e-07 0)
(0.0010007 1.0832e-06 0)
(0.00100106 1.22895e-06 0)
(0.0010015 1.25345e-06 0)
(0.001002 1.07501e-06 0)
(0.00100248 6.58207e-07 0)
(0.0010028 1.85802e-08 0)
(0.00100274 -7.69704e-07 0)
(0.00100227 -1.44969e-06 0)
(0.00100146 -1.77359e-06 0)
(0.00100062 -1.66684e-06 0)
(0.00100001 -1.34691e-06 0)
(0.000999794 -1.02874e-06 0)
(0.000999765 -9.37102e-07 0)
(0.000999884 -9.45389e-07 0)
(0.000999767 -1.10827e-06 0)
(0.001 6.94783e-08 0)
(0.00100004 2.09707e-07 0)
(0.00100012 3.54019e-07 0)
(0.00100025 5.01546e-07 0)
(0.00100043 6.43892e-07 0)
(0.00100066 7.64456e-07 0)
(0.00100096 8.35832e-07 0)
(0.00100129 8.25297e-07 0)
(0.00100163 6.92005e-07 0)
(0.00100191 4.07072e-07 0)
(0.00100206 -4.64059e-08 0)
(0.001002 -5.75497e-07 0)
(0.00100171 -1.03471e-06 0)
(0.0010012 -1.28031e-06 0)
(0.00100065 -1.22853e-06 0)
(0.00100016 -9.93426e-07 0)
(0.000999914 -7.0174e-07 0)
(0.000999739 -5.57427e-07 0)
(0.000999751 -4.87836e-07 0)
(0.00099956 -5.98344e-07 0)
(0.001 5.11991e-08 0)
(0.00100004 1.50153e-07 0)
(0.00100012 2.46416e-07 0)
(0.00100025 3.38298e-07 0)
(0.00100041 4.2107e-07 0)
(0.00100062 4.82449e-07 0)
(0.00100086 5.07375e-07 0)
(0.00100112 4.72457e-07 0)
(0.00100137 3.6129e-07 0)
(0.00100157 1.56022e-07 0)
(0.00100167 -1.16548e-07 0)
(0.00100161 -4.20941e-07 0)
(0.00100139 -6.81271e-07 0)
(0.00100103 -8.4227e-07 0)
(0.00100064 -8.50398e-07 0)
(0.00100022 -7.71036e-07 0)
(0.000999949 -6.38376e-07 0)
(0.000999688 -5.97588e-07 0)
(0.000999627 -5.62198e-07 0)
(0.000999387 -6.84828e-07 0)
(0.001 3.54943e-08 0)
(0.00100004 1.05209e-07 0)
(0.00100011 1.74114e-07 0)
(0.00100023 2.4086e-07 0)
(0.00100038 3.01416e-07 0)
(0.00100056 3.49218e-07 0)
(0.00100077 3.74922e-07 0)
(0.00100097 3.68513e-07 0)
(0.00100116 3.19775e-07 0)
(0.0010013 2.24111e-07 0)
(0.00100136 8.60712e-08 0)
(0.00100131 -7.05721e-08 0)
(0.00100115 -2.06416e-07 0)
(0.00100086 -2.97881e-07 0)
(0.00100054 -3.13177e-07 0)
(0.00100017 -2.82596e-07 0)
(0.0009999 -2.03298e-07 0)
(0.000999613 -1.69372e-07 0)
(0.000999517 -1.19024e-07 0)
(0.00099925 -1.98386e-07 0)
(0.001 -3.68804e-09 0)
(0.00100004 -9.65081e-09 0)
(0.00100012 -1.31145e-08 0)
(0.00100024 -1.52214e-08 0)
(0.00100038 -1.75385e-08 0)
(0.00100056 -2.31144e-08 0)
(0.00100075 -3.38357e-08 0)
(0.00100094 -5.34611e-08 0)
(0.00100111 -8.17903e-08 0)
(0.00100123 -1.222e-07 0)
(0.00100128 -1.70053e-07 0)
(0.00100121 -2.3147e-07 0)
(0.00100107 -2.90705e-07 0)
(0.00100081 -3.41531e-07 0)
(0.00100053 -3.60021e-07 0)
(0.00100018 -3.68297e-07 0)
(0.000999946 -3.42593e-07 0)
(0.00099961 -3.53026e-07 0)
(0.000999523 -3.27996e-07 0)
(0.000999132 -4.10585e-07 0)
)
;

boundaryField
{
    sides
    {
        type            slip;
    }
    inlet
    {
        type            fixedValue;
        value           uniform (0.001 0 0);
    }
    outlet
    {
        type            zeroGradient;
    }
    frontAndBack
    {
        type            empty;
    }
}


// ************************************************************************* //
