/*--------------------------------*- C++ -*----------------------------------*\
  =========                 |
  \\      /  F ield         | OpenFOAM: The Open Source CFD Toolbox
   \\    /   O peration     | Website:  https://openfoam.org
    \\  /    A nd           | Version:  9
     \\/     M anipulation  |
\*---------------------------------------------------------------------------*/
FoamFile
{
    format      ascii;
    class       volVectorField;
    location    "84";
    object      hU_0;
}
// * * * * * * * * * * * * * * * * * * * * * * * * * * * * * * * * * * * * * //

dimensions      [0 2 -1 0 0 0 0];

internalField   nonuniform List<vector> 
400
(
(0.001 -2.44327e-08 0)
(0.00100004 -7.05188e-08 0)
(0.00100012 -1.13086e-07 0)
(0.00100024 -1.5228e-07 0)
(0.00100039 -1.87002e-07 0)
(0.00100058 -2.16376e-07 0)
(0.00100078 -2.36649e-07 0)
(0.00100099 -2.45241e-07 0)
(0.00100118 -2.36226e-07 0)
(0.00100133 -2.11222e-07 0)
(0.0010014 -1.68411e-07 0)
(0.0010014 -1.2865e-07 0)
(0.00100129 -9.92416e-08 0)
(0.00100111 -9.32544e-08 0)
(0.00100087 -9.98122e-08 0)
(0.00100064 -1.35704e-07 0)
(0.00100044 -1.56866e-07 0)
(0.00100034 -2.01646e-07 0)
(0.00100026 -1.88929e-07 0)
(0.00100033 -2.68576e-07 0)
(0.001 -2.73086e-08 0)
(0.00100005 -7.88581e-08 0)
(0.00100013 -1.28003e-07 0)
(0.00100026 -1.73762e-07 0)
(0.00100042 -2.1257e-07 0)
(0.00100062 -2.39523e-07 0)
(0.00100084 -2.45318e-07 0)
(0.00100108 -2.20173e-07 0)
(0.0010013 -1.54492e-07 0)
(0.00100147 -4.77523e-08 0)
(0.00100156 9.35059e-08 0)
(0.00100154 2.4722e-07 0)
(0.00100141 3.89089e-07 0)
(0.00100119 4.76395e-07 0)
(0.00100092 5.05006e-07 0)
(0.00100067 4.51874e-07 0)
(0.00100048 3.7806e-07 0)
(0.00100036 2.56469e-07 0)
(0.00100033 2.04825e-07 0)
(0.00100029 8.08664e-08 0)
(0.001 -5.32101e-08 0)
(0.00100004 -1.59242e-07 0)
(0.00100013 -2.66874e-07 0)
(0.00100026 -3.73439e-07 0)
(0.00100043 -4.72914e-07 0)
(0.00100064 -5.54853e-07 0)
(0.0010009 -6.03086e-07 0)
(0.00100117 -5.97281e-07 0)
(0.00100143 -5.18066e-07 0)
(0.00100164 -3.518e-07 0)
(0.00100176 -1.10153e-07 0)
(0.00100176 1.62148e-07 0)
(0.00100159 4.01652e-07 0)
(0.0010013 5.19893e-07 0)
(0.00100095 4.99698e-07 0)
(0.00100062 3.54216e-07 0)
(0.00100037 2.03311e-07 0)
(0.00100026 4.59802e-08 0)
(0.00100022 -3.54153e-09 0)
(0.0010003 -1.17318e-07 0)
(0.001 -7.36718e-08 0)
(0.00100004 -2.22512e-07 0)
(0.00100013 -3.75239e-07 0)
(0.00100026 -5.30662e-07 0)
(0.00100045 -6.80644e-07 0)
(0.00100069 -8.09789e-07 0)
(0.001001 -8.88529e-07 0)
(0.00100134 -8.85239e-07 0)
(0.00100171 -7.55489e-07 0)
(0.00100203 -4.75897e-07 0)
(0.00100222 -2.25273e-08 0)
(0.00100219 4.92394e-07 0)
(0.00100192 9.36434e-07 0)
(0.00100146 1.13948e-06 0)
(0.00100097 1.05458e-06 0)
(0.00100058 7.43391e-07 0)
(0.00100041 4.24557e-07 0)
(0.00100035 1.70867e-07 0)
(0.0010004 1.02434e-07 0)
(0.00100035 3.76076e-10 0)
(0.001 -9.05654e-08 0)
(0.00100004 -2.7795e-07 0)
(0.00100012 -4.77464e-07 0)
(0.00100025 -6.9468e-07 0)
(0.00100044 -9.21404e-07 0)
(0.00100072 -1.13929e-06 0)
(0.00100109 -1.29831e-06 0)
(0.00100155 -1.33691e-06 0)
(0.00100206 -1.17581e-06 0)
(0.00100257 -7.79397e-07 0)
(0.0010029 -1.70815e-07 0)
(0.00100288 5.80071e-07 0)
(0.00100244 1.23046e-06 0)
(0.00100167 1.51102e-06 0)
(0.00100086 1.37469e-06 0)
(0.00100031 9.64514e-07 0)
(0.00100013 5.82175e-07 0)
(0.00100021 3.15826e-07 0)
(0.00100036 2.63287e-07 0)
(0.00100043 1.68238e-07 0)
(0.001 -1.02713e-07 0)
(0.00100003 -3.18278e-07 0)
(0.00100009 -5.62521e-07 0)
(0.00100019 -8.45558e-07 0)
(0.00100038 -1.17356e-06 0)
(0.00100068 -1.52511e-06 0)
(0.00100115 -1.85886e-06 0)
(0.00100178 -2.05417e-06 0)
(0.00100254 -1.9138e-06 0)
(0.00100326 -1.19839e-06 0)
(0.00100377 8.36157e-08 0)
(0.00100377 1.54526e-06 0)
(0.00100309 2.43556e-06 0)
(0.00100192 2.30421e-06 0)
(0.00100082 1.42898e-06 0)
(0.00100019 4.91738e-07 0)
(0.00100017 1.34286e-08 0)
(0.00100037 -8.44478e-08 0)
(0.00100064 6.11074e-08 0)
(0.00100054 5.03087e-08 0)
(0.001 -1.02102e-07 0)
(0.001 -3.333e-07 0)
(0.00100002 -6.02198e-07 0)
(0.00100008 -9.62636e-07 0)
(0.00100021 -1.39289e-06 0)
(0.00100048 -1.94641e-06 0)
(0.001001 -2.48944e-06 0)
(0.00100188 -3.08483e-06 0)
(0.00100321 -3.23406e-06 0)
(0.00100473 -2.8793e-06 0)
(0.00100573 -6.63508e-07 0)
(0.00100536 2.55429e-06 0)
(0.00100349 4.82933e-06 0)
(0.00100112 4.73723e-06 0)
(0.000999609 3.02768e-06 0)
(0.000999373 1.26309e-06 0)
(0.00100001 4.30751e-07 0)
(0.00100056 3.26852e-07 0)
(0.00100093 5.62326e-07 0)
(0.00100066 5.34031e-07 0)
(0.000999996 -9.23028e-08 0)
(0.000999968 -2.88724e-07 0)
(0.000999907 -5.77189e-07 0)
(0.000999876 -9.5702e-07 0)
(0.000999879 -1.57761e-06 0)
(0.0010001 -2.34522e-06 0)
(0.0010005 -3.40329e-06 0)
(0.00100152 -4.12473e-06 0)
(0.00100308 -4.37063e-06 0)
(0.00100602 -2.5512e-06 0)
(0.00100908 7.47613e-07 0)
(0.00100914 4.26652e-06 0)
(0.0010055 4.71881e-06 0)
(0.00100073 2.78396e-06 0)
(0.000998149 7.36517e-07 0)
(0.000998274 -2.7484e-07 0)
(0.000999799 -2.86331e-07 0)
(0.00100088 -1.02618e-08 0)
(0.00100133 2.11587e-07 0)
(0.00100085 1.02655e-07 0)
(0.000999995 -4.91385e-08 0)
(0.000999915 -2.03868e-07 0)
(0.000999756 -3.86553e-07 0)
(0.000999531 -7.34885e-07 0)
(0.000999287 -1.33852e-06 0)
(0.00099921 -2.48201e-06 0)
(0.000999706 -4.68865e-06 0)
(0.00100139 -8.06812e-06 0)
(0.00100491 -1.32829e-05 0)
(0.00100957 -1.49139e-05 0)
(0.00101191 3.83647e-06 0)
(0.00100894 1.87294e-05 0)
(0.00100221 1.57814e-05 0)
(0.000997566 5.74368e-06 0)
(0.000996884 -3.14416e-07 0)
(0.000998459 -1.26303e-06 0)
(0.00100027 -9.51157e-08 0)
(0.001001 6.3371e-07 0)
(0.00100107 6.50941e-07 0)
(0.00100054 2.43256e-07 0)
(0.000999804 -1.97586e-08 0)
(0.00100017 -6.6657e-08 0)
(0.000999216 -1.51249e-07 0)
(0.000999904 -2.48497e-07 0)
(0.000997521 -5.92445e-07 0)
(0.000998843 -1.13207e-06 0)
(0.000993347 -2.88444e-06 0)
(0.000997532 -5.59293e-06 0)
(0.000991666 -1.15416e-05 0)
(0.000915832 -1.27038e-05 0)
(0.000951469 2.79703e-07 0)
(0.00101022 1.46383e-05 0)
(0.000990954 1.30862e-05 0)
(0.000983975 5.14233e-06 0)
(0.000989583 1.94878e-07 0)
(0.000996278 -7.80968e-07 0)
(0.000999235 -1.11646e-07 0)
(0.000999412 2.47989e-07 0)
(0.000998647 1.73776e-07 0)
(0.000998504 -1.85208e-07 0)
(0.000999804 1.31291e-08 0)
(0.00100017 4.60216e-08 0)
(0.000999215 1.17658e-07 0)
(0.000999903 2e-07 0)
(0.000997518 5.28942e-07 0)
(0.000998837 1.05089e-06 0)
(0.000993339 2.78627e-06 0)
(0.00099752 5.47325e-06 0)
(0.000991651 1.13958e-05 0)
(0.00091581 1.25496e-05 0)
(0.000951425 -4.67915e-07 0)
(0.00101021 -1.49048e-05 0)
(0.000990948 -1.34071e-05 0)
(0.000983965 -5.53603e-06 0)
(0.000989564 -6.48481e-07 0)
(0.000996241 2.48316e-07 0)
(0.000999193 -4.71935e-07 0)
(0.000999366 -1.00204e-06 0)
(0.000998633 -9.88388e-07 0)
(0.000998454 -8.88512e-07 0)
(0.000999995 4.27001e-08 0)
(0.000999915 1.83993e-07 0)
(0.000999755 3.53511e-07 0)
(0.00099953 6.87204e-07 0)
(0.000999285 1.27609e-06 0)
(0.00099921 2.40148e-06 0)
(0.000999702 4.58948e-06 0)
(0.00100139 7.94232e-06 0)
(0.0010049 1.31299e-05 0)
(0.00100958 1.47172e-05 0)
(0.00101189 -4.07275e-06 0)
(0.00100889 -1.90055e-05 0)
(0.00100214 -1.60979e-05 0)
(0.000997476 -6.12495e-06 0)
(0.000996813 -8.56893e-08 0)
(0.000998399 7.74752e-07 0)
(0.00100016 -4.27116e-07 0)
(0.00100085 -1.30471e-06 0)
(0.00100088 -1.37889e-06 0)
(0.00100037 -1.25051e-06 0)
(0.000999996 8.61156e-08 0)
(0.000999968 2.70002e-07 0)
(0.000999906 5.44858e-07 0)
(0.000999871 9.10208e-07 0)
(0.00099987 1.51348e-06 0)
(0.00100008 2.26163e-06 0)
(0.00100048 3.29456e-06 0)
(0.00100149 3.99103e-06 0)
(0.00100303 4.20996e-06 0)
(0.00100594 2.36284e-06 0)
(0.00100901 -9.84702e-07 0)
(0.00100907 -4.54209e-06 0)
(0.00100542 -5.02248e-06 0)
(0.00100066 -3.13195e-06 0)
(0.000998057 -1.13317e-06 0)
(0.000998134 -2.52107e-07 0)
(0.000999622 -3.22623e-07 0)
(0.00100064 -7.41299e-07 0)
(0.00100106 -9.66861e-07 0)
(0.00100055 -1.07362e-06 0)
(0.001 9.61596e-08 0)
(0.001 3.1538e-07 0)
(0.00100002 5.71718e-07 0)
(0.00100007 9.17894e-07 0)
(0.0010002 1.33377e-06 0)
(0.00100046 1.87086e-06 0)
(0.00100097 2.39936e-06 0)
(0.00100185 2.97605e-06 0)
(0.00100317 3.11222e-06 0)
(0.00100469 2.73112e-06 0)
(0.00100568 5.13154e-07 0)
(0.00100527 -2.75412e-06 0)
(0.00100338 -5.07849e-06 0)
(0.00100096 -5.07154e-06 0)
(0.000999409 -3.44969e-06 0)
(0.000999122 -1.79384e-06 0)
(0.000999745 -1.02077e-06 0)
(0.00100025 -1.05922e-06 0)
(0.00100061 -1.30693e-06 0)
(0.00100024 -1.51527e-06 0)
(0.001 9.72683e-08 0)
(0.00100003 3.02199e-07 0)
(0.00100008 5.35664e-07 0)
(0.00100018 8.06429e-07 0)
(0.00100036 1.12191e-06 0)
(0.00100066 1.45886e-06 0)
(0.00100112 1.77795e-06 0)
(0.00100174 1.95204e-06 0)
(0.00100248 1.78416e-06 0)
(0.00100317 1.0367e-06 0)
(0.00100365 -2.80155e-07 0)
(0.00100363 -1.78181e-06 0)
(0.00100292 -2.71019e-06 0)
(0.00100171 -2.63106e-06 0)
(0.00100058 -1.77778e-06 0)
(0.000999905 -8.94359e-07 0)
(0.000999859 -4.26948e-07 0)
(0.000999981 -4.48365e-07 0)
(0.00100022 -6.16544e-07 0)
(0.00100001 -8.48418e-07 0)
(0.001 8.57645e-08 0)
(0.00100004 2.63816e-07 0)
(0.00100011 4.54217e-07 0)
(0.00100024 6.62136e-07 0)
(0.00100043 8.78158e-07 0)
(0.0010007 1.08369e-06 0)
(0.00100106 1.2287e-06 0)
(0.0010015 1.25277e-06 0)
(0.001002 1.07497e-06 0)
(0.00100248 6.5814e-07 0)
(0.0010028 1.96684e-08 0)
(0.00100274 -7.69169e-07 0)
(0.00100227 -1.44893e-06 0)
(0.00100146 -1.7728e-06 0)
(0.00100062 -1.66662e-06 0)
(0.00100001 -1.34736e-06 0)
(0.000999793 -1.02948e-06 0)
(0.000999765 -9.37769e-07 0)
(0.000999884 -9.45837e-07 0)
(0.000999767 -1.10845e-06 0)
(0.001 6.961e-08 0)
(0.00100004 2.09666e-07 0)
(0.00100012 3.53742e-07 0)
(0.00100025 5.01367e-07 0)
(0.00100043 6.44145e-07 0)
(0.00100066 7.65129e-07 0)
(0.00100095 8.36133e-07 0)
(0.00100129 8.24898e-07 0)
(0.00100163 6.91377e-07 0)
(0.00100191 4.06695e-07 0)
(0.00100206 -4.68204e-08 0)
(0.001002 -5.75712e-07 0)
(0.00100171 -1.03455e-06 0)
(0.0010012 -1.28027e-06 0)
(0.00100065 -1.22897e-06 0)
(0.00100016 -9.94291e-07 0)
(0.000999913 -7.02415e-07 0)
(0.000999739 -5.57581e-07 0)
(0.000999752 -4.87761e-07 0)
(0.000999561 -5.98327e-07 0)
(0.001 5.12433e-08 0)
(0.00100004 1.50183e-07 0)
(0.00100012 2.46338e-07 0)
(0.00100025 3.38024e-07 0)
(0.00100041 4.20944e-07 0)
(0.00100062 4.82721e-07 0)
(0.00100086 5.07896e-07 0)
(0.00100112 4.72669e-07 0)
(0.00100137 3.61171e-07 0)
(0.00100157 1.55659e-07 0)
(0.00100167 -1.17263e-07 0)
(0.00100161 -4.2147e-07 0)
(0.00100139 -6.81588e-07 0)
(0.00100103 -8.42487e-07 0)
(0.00100064 -8.5087e-07 0)
(0.00100022 -7.71596e-07 0)
(0.000999949 -6.38465e-07 0)
(0.000999689 -5.97028e-07 0)
(0.000999628 -5.61445e-07 0)
(0.000999388 -6.84493e-07 0)
(0.001 3.549e-08 0)
(0.00100004 1.05235e-07 0)
(0.00100011 1.74255e-07 0)
(0.00100023 2.40711e-07 0)
(0.00100038 3.01089e-07 0)
(0.00100056 3.49043e-07 0)
(0.00100077 3.75148e-07 0)
(0.00100097 3.68916e-07 0)
(0.00100116 3.20075e-07 0)
(0.0010013 2.24121e-07 0)
(0.00100136 8.59288e-08 0)
(0.00100131 -7.07854e-08 0)
(0.00100115 -2.06472e-07 0)
(0.00100086 -2.97821e-07 0)
(0.00100054 -3.13193e-07 0)
(0.00100017 -2.82557e-07 0)
(0.000999901 -2.02939e-07 0)
(0.000999613 -1.68588e-07 0)
(0.000999517 -1.18093e-07 0)
(0.00099925 -1.97941e-07 0)
(0.001 -3.67872e-09 0)
(0.00100004 -9.64879e-09 0)
(0.00100012 -1.30219e-08 0)
(0.00100024 -1.52496e-08 0)
(0.00100038 -1.77012e-08 0)
(0.00100056 -2.32657e-08 0)
(0.00100075 -3.38293e-08 0)
(0.00100094 -5.33004e-08 0)
(0.00100111 -8.16227e-08 0)
(0.00100123 -1.22119e-07 0)
(0.00100128 -1.7e-07 0)
(0.00100121 -2.31456e-07 0)
(0.00100107 -2.90619e-07 0)
(0.00100081 -3.41408e-07 0)
(0.00100053 -3.59906e-07 0)
(0.00100018 -3.68159e-07 0)
(0.000999946 -3.42376e-07 0)
(0.00099961 -3.52686e-07 0)
(0.000999523 -3.27601e-07 0)
(0.000999131 -4.10388e-07 0)
)
;

boundaryField
{
    sides
    {
        type            slip;
    }
    inlet
    {
        type            fixedValue;
        value           uniform (0.001 0 0);
    }
    outlet
    {
        type            zeroGradient;
    }
    frontAndBack
    {
        type            empty;
    }
}


// ************************************************************************* //
