/*--------------------------------*- C++ -*----------------------------------*\
  =========                 |
  \\      /  F ield         | OpenFOAM: The Open Source CFD Toolbox
   \\    /   O peration     | Website:  https://openfoam.org
    \\  /    A nd           | Version:  9
     \\/     M anipulation  |
\*---------------------------------------------------------------------------*/
FoamFile
{
    format      ascii;
    class       surfaceScalarField;
    location    "84";
    object      phi;
}
// * * * * * * * * * * * * * * * * * * * * * * * * * * * * * * * * * * * * * //

dimensions      [0 4 -1 0 0 0 0];

internalField   nonuniform List<scalar> 
760
(
5.00009e-06
-9.63609e-11
5.0004e-06
-3.06454e-10
5.00091e-06
-5.11657e-10
5.00161e-06
-7.03319e-10
5.00249e-06
-8.70303e-10
5.0035e-06
-1.00026e-09
5.00456e-06
-1.05729e-09
5.00557e-06
-1.01359e-09
5.0064e-06
-8.32326e-10
5.00692e-06
-5.25518e-10
5.00705e-06
-1.27429e-10
5.00665e-06
3.93211e-10
5.00579e-06
8.5038e-10
5.00469e-06
1.10189e-09
5.00352e-06
1.17095e-09
5.00257e-06
9.5018e-10
5.00185e-06
7.11463e-10
5.00161e-06
2.4126e-10
5.0015e-06
1.03714e-10
-3.92226e-10
5.00012e-06
-2.18004e-10
5.00045e-06
-6.34594e-10
5.00098e-06
-1.04486e-09
5.00172e-06
-1.4407e-09
5.00265e-06
-1.80151e-09
5.00374e-06
-2.08994e-09
5.00493e-06
-2.24351e-09
5.00611e-06
-2.19023e-09
5.00713e-06
-1.8542e-09
5.00777e-06
-1.17141e-09
5.00774e-06
-9.9228e-11
5.00725e-06
8.80565e-10
5.00626e-06
1.83869e-09
5.00495e-06
2.41173e-09
5.00368e-06
2.44382e-09
5.00277e-06
1.85605e-09
5.00224e-06
1.2405e-09
5.00191e-06
5.75244e-10
5.00165e-06
3.64692e-10
-1.4976e-10
5.00011e-06
-3.24291e-10
5.00043e-06
-9.54531e-10
5.00096e-06
-1.57724e-09
5.00172e-06
-2.20479e-09
5.00272e-06
-2.8042e-09
5.00394e-06
-3.31313e-09
5.00532e-06
-3.61949e-09
5.00672e-06
-3.58996e-09
5.00793e-06
-3.05927e-09
5.00872e-06
-1.96696e-09
5.00893e-06
-3.0857e-10
5.00825e-06
1.56073e-09
5.00687e-06
3.22017e-09
5.00515e-06
4.12843e-09
5.0035e-06
4.08792e-09
5.0023e-06
3.05307e-09
5.00166e-06
1.88711e-09
5.00147e-06
7.67851e-10
5.00144e-06
3.95376e-10
-2.22517e-10
5.0001e-06
-4.20528e-10
5.00041e-06
-1.26253e-09
5.00095e-06
-2.11466e-09
5.00175e-06
-3.0114e-09
5.00285e-06
-3.91428e-09
5.00429e-06
-4.74631e-09
5.00601e-06
-5.34571e-09
5.00795e-06
-5.52584e-09
5.00983e-06
-4.95108e-09
5.01107e-06
-3.19999e-09
5.01119e-06
-4.36115e-10
5.00999e-06
2.77738e-09
5.00765e-06
5.5638e-09
5.00514e-06
6.6319e-09
5.00347e-06
5.75699e-09
5.00269e-06
3.8248e-09
5.00247e-06
2.11048e-09
5.00231e-06
9.39853e-10
5.00199e-06
7.12256e-10
3.401e-10
5.00008e-06
-4.99429e-10
5.00034e-06
-1.51978e-09
5.00084e-06
-2.60918e-09
5.00164e-06
-3.81612e-09
5.00286e-06
-5.13731e-09
5.00458e-06
-6.46285e-09
5.00679e-06
-7.57194e-09
5.00941e-06
-8.14568e-09
5.01238e-06
-7.92864e-09
5.01478e-06
-5.57865e-09
5.01482e-06
-4.68275e-10
5.01283e-06
4.76059e-09
5.00867e-06
9.75836e-09
5.0046e-06
1.07111e-08
5.00224e-06
8.11187e-09
5.00174e-06
4.32086e-09
5.00204e-06
1.80761e-09
5.00225e-06
7.30739e-10
5.00201e-06
9.57113e-10
6.291e-10
5.00004e-06
-5.40682e-10
5.0002e-06
-1.67547e-09
5.00054e-06
-2.94913e-09
5.00121e-06
-4.48716e-09
5.00241e-06
-6.33482e-09
5.00452e-06
-8.57697e-09
5.0076e-06
-1.06517e-08
5.01166e-06
-1.22266e-08
5.01554e-06
-1.17653e-08
5.01899e-06
-9.06818e-09
5.02022e-06
-1.64146e-09
5.01601e-06
8.94264e-09
5.00949e-06
1.62722e-08
5.00421e-06
1.60203e-08
5.00217e-06
1.01612e-08
5.0025e-06
3.99852e-09
5.00327e-06
1.03192e-09
5.00339e-06
6.02865e-10
5.0028e-06
1.55152e-09
1.42424e-09
4.99998e-06
-5.22456e-10
4.99994e-06
-1.63423e-09
5.00003e-06
-3.03981e-09
5.00036e-06
-4.81351e-09
5.00122e-06
-7.19336e-09
5.00292e-06
-1.02789e-08
5.00679e-06
-1.45387e-08
5.01392e-06
-1.93346e-08
5.02376e-06
-2.16016e-08
5.03093e-06
-1.62474e-08
5.02871e-06
4.96232e-10
5.01673e-06
2.09702e-08
5.00416e-06
2.881e-08
4.99872e-06
2.14617e-08
5.00057e-06
8.32192e-09
5.00285e-06
1.73151e-09
5.00372e-06
1.64053e-10
5.00366e-06
6.5433e-10
5.00304e-06
2.16559e-09
1.68224e-09
4.99986e-06
-3.89924e-10
4.99955e-06
-1.32062e-09
4.99912e-06
-2.61113e-09
4.99886e-06
-4.54128e-09
4.99933e-06
-7.66794e-09
5.00035e-06
-1.1311e-08
5.00364e-06
-1.78262e-08
5.00982e-06
-2.55081e-08
5.02488e-06
-3.66642e-08
5.05624e-06
-4.74946e-08
5.04998e-06
5.40763e-09
5.02314e-06
4.77402e-08
4.99817e-06
5.38027e-08
4.99349e-06
2.61391e-08
4.99946e-06
2.35358e-09
5.00407e-06
-2.87227e-09
5.00491e-06
-6.67685e-10
5.00373e-06
1.83635e-09
5.00351e-06
2.38143e-09
9.70119e-10
4.99977e-06
-1.5848e-10
4.99915e-06
-7.04823e-10
4.99792e-06
-1.3776e-09
4.99611e-06
-2.731e-09
4.99402e-06
-5.57909e-09
4.99374e-06
-1.1033e-08
4.99945e-06
-2.3538e-08
5.01714e-06
-4.319e-08
5.0557e-06
-7.52259e-08
5.0667e-06
-5.8601e-08
5.04978e-06
2.36784e-08
4.99653e-06
1.01056e-07
4.98931e-06
6.09989e-08
4.99591e-06
1.9537e-08
5.00018e-06
-1.92871e-09
5.00292e-06
-5.61302e-09
5.00252e-06
-2.4061e-10
5.00184e-06
2.51703e-09
5.00254e-06
1.67811e-09
7.79477e-11
4.99986e-06
-1.60188e-11
4.9992e-06
-5.08233e-11
4.99791e-06
-8.51363e-11
4.99531e-06
-1.27902e-10
4.98989e-06
-1.71297e-10
4.97908e-06
-2.21171e-10
4.95583e-06
-2.69703e-10
4.91296e-06
-3.37629e-10
4.83812e-06
-3.96757e-10
4.77997e-06
-4.53113e-10
4.8043e-06
-5.55578e-10
4.90603e-06
-7.34094e-10
4.9678e-06
-7.34189e-10
4.98823e-06
-8.93555e-10
4.98744e-06
-1.1609e-09
4.98325e-06
-1.4264e-09
4.98455e-06
-1.5564e-09
4.9889e-06
-1.8265e-09
4.99247e-06
-1.89439e-09
-2.58423e-09
4.99986e-06
1.26627e-10
4.99921e-06
6.01746e-10
4.99791e-06
1.21123e-09
4.99529e-06
2.48103e-09
4.98987e-06
5.24932e-09
4.97905e-06
1.0602e-08
4.95578e-06
2.30119e-08
4.91291e-06
4.25397e-08
4.83802e-06
7.44448e-08
4.77976e-06
5.78521e-08
4.80422e-06
-2.52257e-08
4.90601e-06
-1.0245e-07
4.96778e-06
-6.25083e-08
4.98806e-06
-2.1201e-08
4.98735e-06
-4.57291e-10
4.98292e-06
2.99477e-09
4.98442e-06
-3.05304e-09
4.98888e-06
-6.28658e-09
4.99234e-06
-5.35831e-09
-4.98377e-09
4.99977e-06
3.57788e-10
4.99915e-06
1.22136e-09
4.99792e-06
2.44163e-09
4.9961e-06
4.29546e-09
4.99402e-06
7.33407e-09
4.99373e-06
1.08911e-08
4.99943e-06
1.73159e-08
5.01708e-06
2.48889e-08
5.05562e-06
3.59056e-08
5.0671e-06
4.63732e-08
5.04957e-06
-7.43248e-09
4.9961e-06
-4.90992e-08
4.98884e-06
-5.52602e-08
4.99568e-06
-2.80509e-08
5.0001e-06
-4.8731e-09
5.0023e-06
7.8469e-10
5.00165e-06
-2.39662e-09
5.0009e-06
-5.53858e-09
5.00168e-06
-6.13985e-09
-5.95201e-09
4.99986e-06
4.90941e-10
4.99955e-06
1.53885e-09
4.99911e-06
2.87793e-09
4.99883e-06
4.57911e-09
4.99927e-06
6.89033e-09
5.00026e-06
9.89729e-09
5.00347e-06
1.41087e-08
5.0096e-06
1.87663e-08
5.02461e-06
2.09132e-08
5.05553e-06
1.54028e-08
5.04965e-06
-1.77156e-09
5.02283e-06
-2.21661e-08
4.99786e-06
-3.03222e-08
4.99315e-06
-2.33424e-08
4.99863e-06
-1.03513e-08
5.00345e-06
-4.02509e-09
5.00373e-06
-2.67499e-09
5.00235e-06
-4.16521e-09
5.00216e-06
-5.94702e-09
-6.53602e-09
4.99998e-06
5.11425e-10
4.99993e-06
1.58872e-09
5e-06
2.80311e-09
5.00031e-06
4.27818e-09
5.00114e-06
6.06537e-09
5.00279e-06
8.23348e-09
5.00667e-06
1.02227e-08
5.01378e-06
1.16711e-08
5.02357e-06
1.1126e-08
5.0307e-06
8.26404e-09
5.0284e-06
6.31358e-10
5.01623e-06
-1.00516e-08
5.00349e-06
-1.75675e-08
4.99776e-06
-1.7617e-08
4.99941e-06
-1.19894e-08
5.00161e-06
-6.21851e-09
5.0024e-06
-3.46627e-09
5.00213e-06
-3.89171e-09
5.00119e-06
-5.00893e-09
-5.97692e-09
5.00004e-06
4.73714e-10
5.00018e-06
1.44473e-09
5.0005e-06
2.48361e-09
5.00115e-06
3.63349e-09
5.00232e-06
4.89494e-09
5.00439e-06
6.15435e-09
5.00741e-06
7.19597e-09
5.01139e-06
7.69383e-09
5.01513e-06
7.39265e-09
5.01853e-06
4.88767e-09
5.01955e-06
-4.08555e-10
5.01523e-06
-5.70314e-09
5.00854e-06
-1.08735e-08
5.0031e-06
-1.21792e-08
5.00088e-06
-9.75005e-09
5.00101e-06
-6.34453e-09
5.00155e-06
-4.00802e-09
5.00131e-06
-3.65318e-09
5.00035e-06
-4.04633e-09
-4.97663e-09
5.00008e-06
3.97995e-10
5.00033e-06
1.19924e-09
5.00079e-06
2.01252e-09
5.00156e-06
2.86104e-09
5.00275e-06
3.71275e-09
5.00441e-06
4.49196e-09
5.00655e-06
5.04236e-09
5.00909e-06
5.15127e-09
5.01203e-06
4.45864e-09
5.0144e-06
2.5146e-09
5.01414e-06
-1.36479e-10
5.01208e-06
-3.6362e-09
5.00775e-06
-6.53457e-09
5.00349e-06
-7.90663e-09
5.00093e-06
-7.18525e-09
5.00013e-06
-5.54615e-09
5.0001e-06
-3.98227e-09
4.99987e-06
-3.42426e-09
4.99917e-06
-3.34391e-09
-4.17269e-09
5.0001e-06
3.0266e-10
5.0004e-06
9.02372e-10
5.00091e-06
1.49916e-09
5.00167e-06
2.09158e-09
5.00273e-06
2.65008e-09
5.00412e-06
3.10946e-09
5.00579e-06
3.37411e-09
5.00763e-06
3.30526e-09
5.00932e-06
2.75363e-09
5.01026e-06
1.57398e-09
5.01043e-06
-2.99693e-10
5.00903e-06
-2.23259e-09
5.0065e-06
-4.00609e-09
5.00368e-06
-5.07869e-09
5.00154e-06
-5.05823e-09
5.00034e-06
-4.35199e-09
4.9997e-06
-3.34352e-09
4.99916e-06
-2.89011e-09
4.99844e-06
-2.62864e-09
-3.21672e-09
5.0001e-06
2.01772e-10
5.00041e-06
5.95404e-10
5.00093e-06
9.8156e-10
5.00166e-06
1.35449e-09
5.00261e-06
1.69326e-09
5.00378e-06
1.95031e-09
5.00509e-06
2.06406e-09
5.00645e-06
1.95234e-09
5.00764e-06
1.55408e-09
5.00838e-06
8.29023e-10
5.00821e-06
-1.28625e-10
5.00734e-06
-1.35796e-09
5.0057e-06
-2.37664e-09
5.00368e-06
-3.06693e-09
5.00179e-06
-3.17273e-09
5.00033e-06
-2.90052e-09
4.99931e-06
-2.32685e-09
4.99851e-06
-2.09615e-09
4.99772e-06
-1.83514e-09
-2.27924e-09
5.00008e-06
1.16929e-10
5.00037e-06
3.05844e-10
5.00086e-06
4.91011e-10
5.00155e-06
6.70596e-10
5.00241e-06
8.31383e-10
5.00341e-06
9.49061e-10
5.00449e-06
9.95349e-10
5.00551e-06
9.33622e-10
5.00632e-06
7.34674e-10
5.00679e-06
3.60568e-10
5.00681e-06
-1.42055e-10
5.00607e-06
-6.28631e-10
5.00479e-06
-1.09268e-09
5.00315e-06
-1.43098e-09
5.00148e-06
-1.50429e-09
5.00002e-06
-1.44017e-09
4.99888e-06
-1.18764e-09
4.99792e-06
-1.13504e-09
4.99707e-06
-9.77117e-10
-1.42515e-09
5.00011e-06
5.00041e-06
5.00091e-06
5.00158e-06
5.00242e-06
5.00337e-06
5.00436e-06
5.0053e-06
5.00603e-06
5.00639e-06
5.00625e-06
5.00562e-06
5.00453e-06
5.0031e-06
5.00161e-06
5.00017e-06
4.99898e-06
4.99785e-06
4.99687e-06
)
;

boundaryField
{
    sides
    {
        type            calculated;
        value           uniform 0;
    }
    inlet
    {
        type            calculated;
        value           nonuniform List<scalar> 
20
(
-5e-06
-5e-06
-5e-06
-5e-06
-5e-06
-5e-06
-5e-06
-5e-06
-5e-06
-5e-06
-5e-06
-5e-06
-5e-06
-5e-06
-5e-06
-5e-06
-5e-06
-5e-06
-5e-06
-5e-06
)
;
    }
    outlet
    {
        type            calculated;
        value           nonuniform List<scalar> 
20
(
5.00189e-06
5.0014e-06
5.00152e-06
5.00143e-06
5.00172e-06
5.002e-06
5.00278e-06
5.00422e-06
5.00343e-06
4.99514e-06
4.99474e-06
5.00265e-06
5.00274e-06
5.00063e-06
4.99935e-06
4.99836e-06
4.99749e-06
4.99679e-06
4.99622e-06
4.99545e-06
)
;
    }
    frontAndBack
    {
        type            empty;
        value           nonuniform List<scalar> 0();
    }
}


// ************************************************************************* //
