/*--------------------------------*- C++ -*----------------------------------*\
  =========                 |
  \\      /  F ield         | OpenFOAM: The Open Source CFD Toolbox
   \\    /   O peration     | Website:  https://openfoam.org
    \\  /    A nd           | Version:  9
     \\/     M anipulation  |
\*---------------------------------------------------------------------------*/
FoamFile
{
    format      ascii;
    class       surfaceScalarField;
    location    "84";
    object      phi_0;
}
// * * * * * * * * * * * * * * * * * * * * * * * * * * * * * * * * * * * * * //

dimensions      [0 4 -1 0 0 0 0];

internalField   nonuniform List<scalar> 
760
(
5.00009e-06
-9.59107e-11
5.0004e-06
-3.06135e-10
5.00091e-06
-5.10723e-10
5.00162e-06
-7.03929e-10
5.00249e-06
-8.71385e-10
5.0035e-06
-9.99735e-10
5.00456e-06
-1.057e-09
5.00557e-06
-1.01309e-09
5.0064e-06
-8.31658e-10
5.00692e-06
-5.25206e-10
5.00705e-06
-1.25903e-10
5.00665e-06
3.9386e-10
5.00579e-06
8.50871e-10
5.00469e-06
1.10068e-09
5.00352e-06
1.17013e-09
5.00257e-06
9.50965e-10
5.00185e-06
7.11346e-10
5.00161e-06
2.40279e-10
5.0015e-06
1.02989e-10
-3.92362e-10
5.00012e-06
-2.18226e-10
5.00045e-06
-6.34108e-10
5.00098e-06
-1.04426e-09
5.00172e-06
-1.44171e-09
5.00265e-06
-1.80163e-09
5.00374e-06
-2.08939e-09
5.00493e-06
-2.24309e-09
5.00611e-06
-2.19081e-09
5.00713e-06
-1.85355e-09
5.00777e-06
-1.17003e-09
5.00774e-06
-9.81843e-11
5.00725e-06
8.83641e-10
5.00626e-06
1.83856e-09
5.00495e-06
2.41132e-09
5.00368e-06
2.44389e-09
5.00277e-06
1.85731e-09
5.00224e-06
1.24146e-09
5.00191e-06
5.7461e-10
5.00165e-06
3.6379e-10
-1.49962e-10
5.00011e-06
-3.2438e-10
5.00043e-06
-9.53875e-10
5.00096e-06
-1.57778e-09
5.00172e-06
-2.20503e-09
5.00272e-06
-2.80369e-09
5.00394e-06
-3.31304e-09
5.00532e-06
-3.62108e-09
5.00672e-06
-3.58974e-09
5.00793e-06
-3.06021e-09
5.00872e-06
-1.9622e-09
5.00893e-06
-3.0954e-10
5.00825e-06
1.5628e-09
5.00687e-06
3.22288e-09
5.00515e-06
4.12898e-09
5.0035e-06
4.09008e-09
5.0023e-06
3.05582e-09
5.00166e-06
1.88874e-09
5.00147e-06
7.67919e-10
5.00144e-06
3.94646e-10
-2.22947e-10
5.0001e-06
-4.206e-10
5.00041e-06
-1.26213e-09
5.00094e-06
-2.11468e-09
5.00175e-06
-3.01111e-09
5.00285e-06
-3.91392e-09
5.00428e-06
-4.74817e-09
5.00601e-06
-5.34658e-09
5.00795e-06
-5.52614e-09
5.00984e-06
-4.9476e-09
5.01107e-06
-3.20419e-09
5.01119e-06
-4.26973e-10
5.00999e-06
2.7687e-09
5.00765e-06
5.5633e-09
5.00514e-06
6.63476e-09
5.00347e-06
5.75845e-09
5.00269e-06
3.82711e-09
5.00247e-06
2.11306e-09
5.00231e-06
9.41489e-10
5.00199e-06
7.12766e-10
3.40143e-10
5.00008e-06
-4.99988e-10
5.00034e-06
-1.5197e-09
5.00083e-06
-2.60851e-09
5.00164e-06
-3.81528e-09
5.00286e-06
-5.13822e-09
5.00457e-06
-6.46449e-09
5.0068e-06
-7.57173e-09
5.00942e-06
-8.14473e-09
5.01238e-06
-7.92612e-09
5.01479e-06
-5.59134e-09
5.01481e-06
-4.8099e-10
5.01285e-06
4.76472e-09
5.00867e-06
9.74431e-09
5.0046e-06
1.07064e-08
5.00224e-06
8.11368e-09
5.00174e-06
4.32252e-09
5.00204e-06
1.80998e-09
5.00225e-06
7.33589e-10
5.00201e-06
9.59324e-10
6.29905e-10
5.00004e-06
-5.41395e-10
5.0002e-06
-1.67587e-09
5.00054e-06
-2.94858e-09
5.00121e-06
-4.48727e-09
5.00241e-06
-6.33564e-09
5.00452e-06
-8.57661e-09
5.0076e-06
-1.06504e-08
5.01166e-06
-1.22218e-08
5.01552e-06
-1.17855e-08
5.01901e-06
-9.04819e-09
5.02021e-06
-1.67737e-09
5.016e-06
8.94777e-09
5.00951e-06
1.62778e-08
5.00422e-06
1.60099e-08
5.00217e-06
1.01542e-08
5.00249e-06
3.99704e-09
5.00327e-06
1.03293e-09
5.00339e-06
6.05174e-10
5.00279e-06
1.55394e-09
1.42537e-09
4.99998e-06
-5.22736e-10
4.99994e-06
-1.63482e-09
5.00003e-06
-3.04064e-09
5.00036e-06
-4.81439e-09
5.00122e-06
-7.19324e-09
5.00292e-06
-1.02764e-08
5.0068e-06
-1.45357e-08
5.0139e-06
-1.93413e-08
5.02377e-06
-2.15943e-08
5.0309e-06
-1.62608e-08
5.02874e-06
6.28894e-10
5.01672e-06
2.09395e-08
5.00416e-06
2.88124e-08
4.99873e-06
2.14659e-08
5.00058e-06
8.31809e-09
5.00285e-06
1.72829e-09
5.00372e-06
1.62115e-10
5.00366e-06
6.53997e-10
5.00304e-06
2.1663e-09
1.68271e-09
4.99987e-06
-3.89699e-10
4.99955e-06
-1.32153e-09
4.99912e-06
-2.61267e-09
4.99886e-06
-4.54235e-09
4.99933e-06
-7.66601e-09
5.00036e-06
-1.13078e-08
5.00364e-06
-1.78285e-08
5.00982e-06
-2.55079e-08
5.02489e-06
-3.6665e-08
5.05614e-06
-4.74838e-08
5.04991e-06
6.75015e-09
5.02317e-06
4.7797e-08
4.99817e-06
5.38112e-08
4.99349e-06
2.6145e-08
4.99947e-06
2.35334e-09
5.00408e-06
-2.87462e-09
5.00491e-06
-6.70601e-10
5.00372e-06
1.83298e-09
5.0035e-06
2.37949e-09
9.69726e-10
4.99977e-06
-1.58359e-10
4.99915e-06
-7.05776e-10
4.99792e-06
-1.37901e-09
4.99611e-06
-2.73064e-09
4.99402e-06
-5.57738e-09
4.99374e-06
-1.10306e-08
4.99945e-06
-2.35399e-08
5.01714e-06
-4.31978e-08
5.0557e-06
-7.52146e-08
5.0668e-06
-5.86156e-08
5.04985e-06
2.38027e-08
4.9965e-06
1.0103e-07
4.9893e-06
6.10029e-08
4.9959e-06
1.95422e-08
5.00018e-06
-1.9278e-09
5.00292e-06
-5.61405e-09
5.00252e-06
-2.78159e-10
5.00184e-06
2.51408e-09
5.00254e-06
1.67551e-09
7.84715e-11
4.99986e-06
-1.62978e-11
4.9992e-06
-5.15163e-11
4.99791e-06
-8.51982e-11
4.99531e-06
-1.2671e-10
4.98989e-06
-1.70152e-10
4.97908e-06
-2.22132e-10
4.95582e-06
-2.70302e-10
4.91297e-06
-3.34341e-10
4.83811e-06
-4.14837e-10
4.78e-06
-4.28163e-10
4.80427e-06
-6.0839e-10
4.90604e-06
-7.18865e-10
4.9678e-06
-7.24974e-10
4.98822e-06
-8.9949e-10
4.98744e-06
-1.16294e-09
4.98325e-06
-1.42554e-09
4.98455e-06
-1.55575e-09
4.9889e-06
-1.82719e-09
4.99247e-06
-1.89539e-09
-2.58459e-09
4.99986e-06
1.26236e-10
4.99921e-06
6.01919e-10
4.99791e-06
1.21217e-09
4.9953e-06
2.48236e-09
4.98987e-06
5.24844e-09
4.97905e-06
1.06007e-08
4.95578e-06
2.30121e-08
4.91291e-06
4.25426e-08
4.83804e-06
7.44507e-08
4.77973e-06
5.78235e-08
4.80424e-06
-2.50539e-08
4.90601e-06
-1.02467e-07
4.96776e-06
-6.25263e-08
4.98805e-06
-2.12077e-08
4.98734e-06
-4.57383e-10
4.98292e-06
2.99695e-09
4.98442e-06
-3.05055e-09
4.98888e-06
-6.28474e-09
4.99235e-06
-5.35746e-09
-4.98356e-09
4.99977e-06
3.57661e-10
4.99915e-06
1.22253e-09
4.99792e-06
2.44297e-09
4.9961e-06
4.29589e-09
4.99402e-06
7.33222e-09
4.99373e-06
1.08885e-08
4.99943e-06
1.73187e-08
5.01708e-06
2.48911e-08
5.05562e-06
3.5902e-08
5.06714e-06
4.63746e-08
5.04943e-06
-8.84343e-09
4.9961e-06
-4.90817e-08
4.98884e-06
-5.52714e-08
4.99568e-06
-2.80555e-08
5.00009e-06
-4.87331e-09
5.0023e-06
7.86534e-10
5.00165e-06
-2.39286e-09
5.0009e-06
-5.53555e-09
5.00168e-06
-6.13801e-09
-5.95136e-09
4.99987e-06
4.91223e-10
4.99955e-06
1.54019e-09
4.99911e-06
2.87916e-09
4.99883e-06
4.57904e-09
4.99927e-06
6.88842e-09
5.00027e-06
9.89449e-09
5.00347e-06
1.41092e-08
5.0096e-06
1.87693e-08
5.02461e-06
2.09187e-08
5.0555e-06
1.53867e-08
5.04982e-06
-1.59634e-09
5.02281e-06
-2.21904e-08
4.99786e-06
-3.03229e-08
4.99315e-06
-2.33423e-08
4.99863e-06
-1.03508e-08
5.00345e-06
-4.02231e-09
5.00373e-06
-2.67233e-09
5.00235e-06
-4.16383e-09
5.00216e-06
-5.94617e-09
-6.53569e-09
4.99998e-06
5.11835e-10
4.99993e-06
1.58933e-09
5e-06
2.80374e-09
5.0003e-06
4.27855e-09
5.00113e-06
6.06537e-09
5.0028e-06
8.23155e-09
5.00667e-06
1.02202e-08
5.01378e-06
1.16744e-08
5.02356e-06
1.11277e-08
5.03072e-06
8.28019e-09
5.02837e-06
6.06839e-10
5.01624e-06
-1.0042e-08
5.00349e-06
-1.75644e-08
4.99777e-06
-1.76152e-08
4.99941e-06
-1.19853e-08
5.00161e-06
-6.21527e-09
5.0024e-06
-3.46596e-09
5.00213e-06
-3.89349e-09
5.00119e-06
-5.01046e-09
-5.97742e-09
5.00004e-06
4.74232e-10
5.00018e-06
1.44428e-09
5.0005e-06
2.48325e-09
5.00115e-06
3.63424e-09
5.00232e-06
4.89712e-09
5.0044e-06
6.15541e-09
5.00741e-06
7.19324e-09
5.01139e-06
7.69066e-09
5.01513e-06
7.39637e-09
5.01852e-06
4.88769e-09
5.01956e-06
-3.99973e-10
5.01523e-06
-5.69703e-09
5.00854e-06
-1.08687e-08
5.00311e-06
-1.2173e-08
5.00088e-06
-9.74658e-09
5.00101e-06
-6.34459e-09
5.00155e-06
-4.01087e-09
5.00131e-06
-3.65712e-09
5.00035e-06
-4.04935e-09
-4.97777e-09
5.00008e-06
3.98736e-10
5.00033e-06
1.1987e-09
5.0008e-06
2.01094e-09
5.00156e-06
2.86084e-09
5.00275e-06
3.71511e-09
5.00441e-06
4.49584e-09
5.00656e-06
5.04215e-09
5.00909e-06
5.14725e-09
5.01203e-06
4.4547e-09
5.0144e-06
2.5143e-09
5.01414e-06
-1.34147e-10
5.01208e-06
-3.63509e-09
5.00775e-06
-6.53071e-09
5.00349e-06
-7.90418e-09
5.00093e-06
-7.1859e-09
5.00013e-06
-5.54981e-09
5.0001e-06
-3.98647e-09
4.99987e-06
-3.42704e-09
4.99917e-06
-3.34555e-09
-4.17345e-09
5.0001e-06
3.03245e-10
5.0004e-06
9.02539e-10
5.00091e-06
1.49787e-09
5.00167e-06
2.08999e-09
5.00273e-06
2.65046e-09
5.00412e-06
3.11253e-09
5.00579e-06
3.37723e-09
5.00763e-06
3.30482e-09
5.00933e-06
2.75064e-09
5.01027e-06
1.57057e-09
5.01043e-06
-3.02629e-10
5.00903e-06
-2.23536e-09
5.0065e-06
-4.0078e-09
5.00368e-06
-5.08019e-09
5.00154e-06
-5.06163e-09
5.00033e-06
-4.35661e-09
4.99969e-06
-3.34583e-09
4.99916e-06
-2.88893e-09
4.99845e-06
-2.62647e-09
-3.2159e-09
5.0001e-06
2.01824e-10
5.00041e-06
5.95873e-10
5.00093e-06
9.81964e-10
5.00166e-06
1.35287e-09
5.00261e-06
1.69128e-09
5.00378e-06
1.95008e-09
5.00509e-06
2.06662e-09
5.00645e-06
1.95503e-09
5.00764e-06
1.55526e-09
5.00838e-06
8.27715e-10
5.00821e-06
-1.31492e-10
5.00734e-06
-1.36038e-09
5.0057e-06
-2.37819e-09
5.00368e-06
-3.06789e-09
5.00179e-06
-3.1746e-09
5.00033e-06
-2.90205e-09
4.99931e-06
-2.32571e-09
4.99852e-06
-2.09175e-09
4.99773e-06
-1.82978e-09
-2.27677e-09
5.00008e-06
1.16897e-10
5.00037e-06
3.06115e-10
5.00086e-06
4.92081e-10
5.00155e-06
6.69949e-10
5.00241e-06
8.29279e-10
5.00341e-06
9.47419e-10
5.00448e-06
9.95831e-10
5.00551e-06
9.35903e-10
5.00632e-06
7.36764e-10
5.00679e-06
3.61307e-10
5.00681e-06
-1.42226e-10
5.00608e-06
-6.28825e-10
5.00479e-06
-1.09218e-09
5.00315e-06
-1.43031e-09
5.00148e-06
-1.50387e-09
5.00002e-06
-1.43935e-09
4.99888e-06
-1.18558e-09
4.99792e-06
-1.13132e-09
4.99707e-06
-9.72676e-10
-1.42297e-09
5.00011e-06
5.00041e-06
5.00091e-06
5.00159e-06
5.00242e-06
5.00337e-06
5.00436e-06
5.00529e-06
5.00603e-06
5.00639e-06
5.00625e-06
5.00562e-06
5.00453e-06
5.0031e-06
5.0016e-06
5.00017e-06
4.99898e-06
4.99785e-06
4.99687e-06
)
;

boundaryField
{
    sides
    {
        type            calculated;
        value           uniform 0;
    }
    inlet
    {
        type            calculated;
        value           nonuniform List<scalar> 
20
(
-5e-06
-5e-06
-5e-06
-5e-06
-5e-06
-5e-06
-5e-06
-5e-06
-5e-06
-5e-06
-5e-06
-5e-06
-5e-06
-5e-06
-5e-06
-5e-06
-5e-06
-5e-06
-5e-06
-5e-06
)
;
    }
    outlet
    {
        type            calculated;
        value           nonuniform List<scalar> 
20
(
5.00189e-06
5.0014e-06
5.00152e-06
5.00143e-06
5.00172e-06
5.002e-06
5.00278e-06
5.00421e-06
5.00343e-06
4.99514e-06
4.99475e-06
5.00265e-06
5.00274e-06
5.00063e-06
4.99935e-06
4.99836e-06
4.99749e-06
4.99679e-06
4.99621e-06
4.99545e-06
)
;
    }
    frontAndBack
    {
        type            empty;
        value           nonuniform List<scalar> 0();
    }
}


// ************************************************************************* //
