/*--------------------------------*- C++ -*----------------------------------*\
  =========                 |
  \\      /  F ield         | OpenFOAM: The Open Source CFD Toolbox
   \\    /   O peration     | Website:  https://openfoam.org
    \\  /    A nd           | Version:  9
     \\/     M anipulation  |
\*---------------------------------------------------------------------------*/
FoamFile
{
    format      ascii;
    class       volVectorField;
    location    "84";
    object      U;
}
// * * * * * * * * * * * * * * * * * * * * * * * * * * * * * * * * * * * * * //

dimensions      [0 1 -1 0 0 0 0];

internalField   nonuniform List<vector> 
400
(
(0.0999964 -2.46228e-06 0)
(0.100001 -7.05644e-06 0)
(0.100009 -1.13108e-05 0)
(0.100023 -1.52187e-05 0)
(0.10004 -1.86856e-05 0)
(0.100061 -2.16383e-05 0)
(0.100084 -2.36664e-05 0)
(0.100107 -2.45322e-05 0)
(0.100128 -2.36332e-05 0)
(0.100144 -2.1138e-05 0)
(0.100152 -1.68775e-05 0)
(0.100152 -1.28772e-05 0)
(0.10014 -9.9321e-06 0)
(0.10012 -9.31584e-06 0)
(0.100093 -9.97501e-06 0)
(0.100068 -1.35805e-05 0)
(0.100045 -1.56895e-05 0)
(0.100034 -2.01462e-05 0)
(0.100025 -1.88767e-05 0)
(0.100033 -2.68515e-05 0)
(0.099997 -2.74976e-06 0)
(0.100002 -7.89678e-06 0)
(0.100011 -1.28084e-05 0)
(0.100025 -1.73564e-05 0)
(0.100044 -2.12389e-05 0)
(0.100066 -2.39563e-05 0)
(0.100091 -2.45369e-05 0)
(0.100117 -2.20216e-05 0)
(0.100141 -1.54678e-05 0)
(0.100161 -4.80387e-06 0)
(0.100171 9.30563e-06 0)
(0.100168 2.46833e-05 0)
(0.100154 3.89044e-05 0)
(0.100129 4.76578e-05 0)
(0.1001 5.05107e-05 0)
(0.100071 4.51684e-05 0)
(0.10005 3.77905e-05 0)
(0.100037 2.5657e-05 0)
(0.100033 2.04979e-05 0)
(0.100029 8.09289e-06 0)
(0.0999969 -5.31975e-06 0)
(0.100002 -1.5937e-05 0)
(0.100011 -2.66882e-05 0)
(0.100025 -3.73305e-05 0)
(0.100044 -4.72925e-05 0)
(0.100068 -5.54908e-05 0)
(0.100096 -6.03012e-05 0)
(0.100127 -5.97318e-05 0)
(0.100156 -5.18129e-05 0)
(0.10018 -3.52441e-05 0)
(0.100193 -1.10226e-05 0)
(0.100192 1.61647e-05 0)
(0.100174 4.01406e-05 0)
(0.100142 5.19942e-05 0)
(0.100102 4.99519e-05 0)
(0.100066 3.53859e-05 0)
(0.100037 2.03026e-05 0)
(0.100026 4.59061e-06 0)
(0.100021 -3.47803e-07 0)
(0.100029 -1.17297e-05 0)
(0.0999963 -7.36487e-06 0)
(0.100001 -2.22609e-05 0)
(0.10001 -3.75182e-05 0)
(0.100025 -5.30658e-05 0)
(0.100046 -6.8073e-05 0)
(0.100073 -8.09657e-05 0)
(0.100107 -8.88358e-05 0)
(0.100146 -8.85332e-05 0)
(0.100186 -7.5581e-05 0)
(0.100222 -4.7602e-05 0)
(0.100243 -2.32142e-06 0)
(0.10024 4.93159e-05 0)
(0.100211 9.36345e-05 0)
(0.100159 0.000113925 0)
(0.100104 0.000105428 0)
(0.100061 7.42886e-05 0)
(0.100041 4.24169e-05 0)
(0.100035 1.70815e-05 0)
(0.10004 1.0254e-05 0)
(0.100035 4.25054e-08 0)
(0.0999953 -9.04924e-06 0)
(0.0999995 -2.77971e-05 0)
(0.100008 -4.77503e-05 0)
(0.100023 -6.94775e-05 0)
(0.100045 -9.21372e-05 0)
(0.100076 -0.0001139 0)
(0.100117 -0.000129834 0)
(0.100168 -0.000133711 0)
(0.100225 -0.000117658 0)
(0.100281 -7.78018e-05 0)
(0.100318 -1.71158e-05 0)
(0.100316 5.80781e-05 0)
(0.100267 0.000123215 0)
(0.100182 0.000151129 0)
(0.100091 0.000137441 0)
(0.100029 9.64078e-05 0)
(0.100009 5.81694e-05 0)
(0.100019 3.15475e-05 0)
(0.100036 2.63104e-05 0)
(0.100043 1.6819e-05 0)
(0.0999939 -1.02576e-05 0)
(0.0999968 -3.18209e-05 0)
(0.100003 -5.62596e-05 0)
(0.100015 -8.45597e-05 0)
(0.100036 -0.00011734 0)
(0.10007 -0.000152502 0)
(0.100122 -0.000185912 0)
(0.100192 -0.0002055 0)
(0.100277 -0.000191277 0)
(0.100357 -0.000119867 0)
(0.100414 8.69317e-06 0)
(0.100415 0.000154518 0)
(0.100339 0.000243768 0)
(0.100208 0.000230619 0)
(0.100085 0.000142949 0)
(0.100015 4.91659e-05 0)
(0.100012 1.30856e-06 0)
(0.100035 -8.49616e-06 0)
(0.100064 6.06516e-06 0)
(0.100055 5.01196e-06 0)
(0.0999923 -1.01995e-05 0)
(0.0999927 -3.33167e-05 0)
(0.0999948 -6.02119e-05 0)
(0.100001 -9.62477e-05 0)
(0.100016 -0.000139276 0)
(0.100046 -0.000194662 0)
(0.100103 -0.000248992 0)
(0.100202 -0.000308515 0)
(0.10035 -0.000323376 0)
(0.10052 -0.000288158 0)
(0.100632 -6.59717e-05 0)
(0.10059 0.000255948 0)
(0.100383 0.000483052 0)
(0.100117 0.000473825 0)
(0.0999477 0.000302836 0)
(0.0999219 0.00012634 0)
(0.0999927 4.30757e-05 0)
(0.100056 3.26607e-05 0)
(0.100095 5.62029e-05 0)
(0.100067 5.33879e-05 0)
(0.0999905 -9.22946e-06 0)
(0.0999873 -2.88553e-05 0)
(0.0999806 -5.769e-05 0)
(0.099977 -9.5672e-05 0)
(0.0999775 -0.000157762 0)
(0.100001 -0.000234557 0)
(0.100047 -0.00034033 0)
(0.10016 -0.000412412 0)
(0.100335 -0.000437287 0)
(0.10066 -0.000255249 0)
(0.101007 7.42334e-05 0)
(0.101012 0.000426725 0)
(0.100606 0.00047201 0)
(0.100072 0.000278257 0)
(0.0997818 7.36467e-05 0)
(0.0997968 -2.73825e-05 0)
(0.0999672 -2.8559e-05 0)
(0.100089 -9.91932e-07 0)
(0.100138 2.1171e-05 0)
(0.100087 1.02663e-05 0)
(0.0999894 -4.91765e-06 0)
(0.0999805 -2.03674e-05 0)
(0.0999629 -3.86217e-05 0)
(0.0999378 -7.34674e-05 0)
(0.0999106 -0.000133861 0)
(0.0999018 -0.000248209 0)
(0.0999567 -0.000468771 0)
(0.100145 -0.00080675 0)
(0.100537 -0.001329 0)
(0.101061 -0.0014929 0)
(0.101322 0.000383468 0)
(0.100998 0.00187446 0)
(0.100241 0.00157829 0)
(0.09972 0.000573995 0)
(0.0996445 -3.1477e-05 0)
(0.0998219 -0.000126209 0)
(0.100024 -9.42488e-06 0)
(0.100107 6.34357e-05 0)
(0.100113 6.51389e-05 0)
(0.100055 2.43463e-05 0)
(0.0999703 -1.97464e-06 0)
(0.100006 -6.64935e-06 0)
(0.0999078 -1.51082e-05 0)
(0.0999717 -2.48576e-05 0)
(0.0997258 -5.92573e-05 0)
(0.099844 -0.000113178 0)
(0.0992766 -0.000288254 0)
(0.0996753 -0.000558816 0)
(0.0991181 -0.0011535 0)
(0.102003 -0.00141509 0)
(0.10628 3.16829e-05 0)
(0.101267 0.00146758 0)
(0.0990078 0.00130733 0)
(0.0982226 0.000513313 0)
(0.0988553 1.94607e-05 0)
(0.0996049 -7.80782e-05 0)
(0.099935 -1.11364e-05 0)
(0.0999521 2.48375e-05 0)
(0.0998669 1.74142e-05 0)
(0.0998489 -1.84999e-05 0)
(0.099971 1.32013e-06 0)
(0.100006 4.60715e-06 0)
(0.0999084 1.17562e-05 0)
(0.0999722 1.9971e-05 0)
(0.0997261 5.28756e-05 0)
(0.0998441 0.000105069 0)
(0.0992764 0.000278468 0)
(0.0996747 0.000546848 0)
(0.099117 0.00113914 0)
(0.102001 0.00139774 0)
(0.106276 -5.28665e-05 0)
(0.101265 -0.00149411 0)
(0.0990081 -0.00133944 0)
(0.0982223 -0.000552518 0)
(0.0988537 -6.47677e-05 0)
(0.0996014 2.47997e-05 0)
(0.0999309 -4.72258e-05 0)
(0.0999477 -0.000100223 0)
(0.0998658 -9.88351e-05 0)
(0.0998442 -8.8846e-05 0)
(0.0999915 4.27682e-06 0)
(0.0999826 1.83859e-05 0)
(0.0999648 3.53241e-05 0)
(0.0999397 6.8691e-05 0)
(0.0999124 0.000127612 0)
(0.0999038 0.00024015 0)
(0.0999583 0.000458864 0)
(0.100146 0.000794228 0)
(0.100537 0.00131357 0)
(0.101063 0.00147345 0)
(0.101325 -0.000406942 0)
(0.100996 -0.00190245 0)
(0.100235 -0.00160987 0)
(0.099712 -0.000612189 0)
(0.0996385 -8.56129e-06 0)
(0.0998172 7.74017e-05 0)
(0.100014 -4.2782e-05 0)
(0.100092 -0.00013053 0)
(0.100093 -0.000137923 0)
(0.100038 -0.000125061 0)
(0.0999939 8.61108e-06 0)
(0.0999906 2.69749e-05 0)
(0.0999838 5.44552e-05 0)
(0.0999798 9.10082e-05 0)
(0.0999799 0.000151372 0)
(0.100003 0.000226209 0)
(0.100048 0.000329429 0)
(0.100159 0.00039907 0)
(0.100332 0.000421079 0)
(0.100655 0.000236509 0)
(0.101 -9.77852e-05 0)
(0.101007 -0.000454499 0)
(0.100601 -0.000502432 0)
(0.100067 -0.000313142 0)
(0.0997749 -0.000113278 0)
(0.0997846 -2.52731e-05 0)
(0.099951 -3.23355e-05 0)
(0.100066 -7.41782e-05 0)
(0.100111 -9.6719e-05 0)
(0.100057 -0.000107374 0)
(0.0999971 9.60842e-06 0)
(0.0999974 3.1517e-05 0)
(0.0999992 5.7151e-05 0)
(0.100005 9.17839e-05 0)
(0.100019 0.000133394 0)
(0.100049 0.000187138 0)
(0.100105 0.000239977 0)
(0.100203 0.000297599 0)
(0.100351 0.000311267 0)
(0.100519 0.000273187 0)
(0.100631 5.04478e-05 0)
(0.100586 -0.000275501 0)
(0.100375 -0.000508082 0)
(0.100105 -0.000507223 0)
(0.0999303 -0.000344983 0)
(0.0998989 -0.000179422 0)
(0.0999681 -0.000102103 0)
(0.100026 -0.00010592 0)
(0.100065 -0.000130691 0)
(0.100025 -0.000151528 0)
(0.1 9.71613e-06 0)
(0.100003 3.0216e-05 0)
(0.100009 5.35635e-05 0)
(0.10002 8.06344e-05 0)
(0.100041 0.000112175 0)
(0.100074 0.000145904 0)
(0.100124 0.000177866 0)
(0.100193 0.000195249 0)
(0.100276 0.000178409 0)
(0.100353 0.000103565 0)
(0.100407 -2.79464e-05 0)
(0.100405 -0.000178432 0)
(0.100326 -0.000271212 0)
(0.10019 -0.000263249 0)
(0.100064 -0.000177865 0)
(0.099989 -8.94625e-05 0)
(0.0999835 -4.26658e-05 0)
(0.0999983 -4.47788e-05 0)
(0.100024 -6.16093e-05 0)
(0.100002 -8.48257e-05 0)
(0.100003 8.5634e-06 0)
(0.100007 2.63901e-05 0)
(0.100015 4.54417e-05 0)
(0.100029 6.62133e-05 0)
(0.10005 8.77805e-05 0)
(0.10008 0.000108331 0)
(0.10012 0.000122913 0)
(0.100169 0.000125369 0)
(0.100225 0.000107528 0)
(0.100279 6.5841e-05 0)
(0.100315 1.85867e-06 0)
(0.100309 -7.69966e-05 0)
(0.100256 -0.00014501 0)
(0.100166 -0.000177394 0)
(0.100072 -0.0001667 0)
(0.100003 -0.000134695 0)
(0.0999792 -0.000102874 0)
(0.0999767 -9.37103e-05 0)
(0.0999894 -9.45398e-05 0)
(0.0999774 -0.000110827 0)
(0.100005 6.94817e-06 0)
(0.10001 2.09718e-05 0)
(0.100019 3.54042e-05 0)
(0.100033 5.01585e-05 0)
(0.100053 6.43955e-05 0)
(0.100079 7.64552e-05 0)
(0.100111 8.35964e-05 0)
(0.100148 8.25458e-05 0)
(0.100186 6.92168e-05 0)
(0.100218 4.07181e-05 0)
(0.100235 -4.64191e-06 0)
(0.100228 -5.75657e-05 0)
(0.100195 -0.000103496 0)
(0.100139 -0.000128055 0)
(0.100077 -0.000122868 0)
(0.100023 -9.93494e-05 0)
(0.0999951 -7.01766e-05 0)
(0.0999763 -5.5744e-05 0)
(0.0999768 -4.87844e-05 0)
(0.0999568 -5.98349e-05 0)
(0.100007 5.12026e-06 0)
(0.100012 1.50164e-05 0)
(0.100021 2.46436e-05 0)
(0.100034 3.38331e-05 0)
(0.100053 4.21119e-05 0)
(0.100076 4.82517e-05 0)
(0.100103 5.0746e-05 0)
(0.100131 4.7255e-05 0)
(0.100159 3.61371e-05 0)
(0.100182 1.56061e-05 0)
(0.100193 -1.16578e-05 0)
(0.100186 -4.21047e-05 0)
(0.100162 -6.81427e-05 0)
(0.100122 -8.42428e-05 0)
(0.100078 -8.50517e-05 0)
(0.100032 -7.7111e-05 0)
(0.100001 -6.38415e-05 0)
(0.0999726 -5.97611e-05 0)
(0.0999649 -5.62211e-05 0)
(0.0999396 -6.84834e-05 0)
(0.100009 3.54973e-06 0)
(0.100013 1.05218e-05 0)
(0.100021 1.74131e-05 0)
(0.100034 2.40887e-05 0)
(0.100051 3.01455e-05 0)
(0.100071 3.4927e-05 0)
(0.100094 3.74987e-05 0)
(0.100117 3.68585e-05 0)
(0.100138 3.19844e-05 0)
(0.100153 2.24163e-05 0)
(0.10016 8.60919e-06 0)
(0.100155 -7.05887e-06 0)
(0.100137 -2.06461e-05 0)
(0.100105 -2.97936e-05 0)
(0.100068 -3.13223e-05 0)
(0.100027 -2.82626e-05 0)
(0.0999971 -2.03313e-05 0)
(0.0999657 -1.6938e-05 0)
(0.0999541 -1.19026e-05 0)
(0.0999258 -1.98388e-05 0)
(0.10001 -3.6884e-07 0)
(0.100014 -9.65181e-07 0)
(0.100023 -1.3116e-06 0)
(0.100036 -1.52233e-06 0)
(0.100053 -1.7541e-06 0)
(0.100072 -2.31181e-06 0)
(0.100094 -3.38419e-06 0)
(0.100115 -5.3472e-06 0)
(0.100134 -8.18087e-06 0)
(0.100147 -1.22229e-05 0)
(0.100152 -1.70095e-05 0)
(0.100145 -2.31526e-05 0)
(0.100129 -2.90769e-05 0)
(0.1001 -3.41596e-05 0)
(0.100069 -3.60077e-05 0)
(0.10003 -3.68342e-05 0)
(0.100003 -3.42623e-05 0)
(0.0999669 -3.53047e-05 0)
(0.0999557 -3.28007e-05 0)
(0.0999145 -4.1059e-05 0)
)
;

boundaryField
{
    sides
    {
        type            calculated;
        value           nonuniform List<vector> 
40
(
(0.10001 0 0)
(0.100014 0 0)
(0.100023 0 0)
(0.100036 0 0)
(0.100053 0 0)
(0.100072 0 0)
(0.100094 0 0)
(0.100115 0 0)
(0.100134 0 0)
(0.100147 0 0)
(0.100152 0 0)
(0.100145 0 0)
(0.100129 0 0)
(0.1001 0 0)
(0.100069 0 0)
(0.10003 0 0)
(0.100003 0 0)
(0.0999669 0 0)
(0.0999557 0 0)
(0.0999145 0 0)
(0.0999964 0 0)
(0.100001 0 0)
(0.100009 0 0)
(0.100023 0 0)
(0.10004 0 0)
(0.100061 0 0)
(0.100084 0 0)
(0.100107 0 0)
(0.100128 0 0)
(0.100144 0 0)
(0.100152 0 0)
(0.100152 0 0)
(0.10014 0 0)
(0.10012 0 0)
(0.100093 0 0)
(0.100068 0 0)
(0.100045 0 0)
(0.100034 0 0)
(0.100025 0 0)
(0.100033 0 0)
)
;
    }
    inlet
    {
        type            calculated;
        value           nonuniform List<vector> 
20
(
(0.0999962 0 0)
(0.0999967 0 0)
(0.0999966 0 0)
(0.0999961 0 0)
(0.0999951 0 0)
(0.0999938 0 0)
(0.0999923 0 0)
(0.0999909 0 0)
(0.09999 0 0)
(0.0999899 0 0)
(0.0999906 0 0)
(0.099992 0 0)
(0.0999943 0 0)
(0.0999971 0 0)
(0.0999999 0 0)
(0.100003 0 0)
(0.100005 0 0)
(0.100007 0 0)
(0.100009 0 0)
(0.10001 0 0)
)
;
    }
    outlet
    {
        type            calculated;
        value           nonuniform List<vector> 
20
(
(0.100033 -2.68517e-05 0)
(0.100029 8.09288e-06 0)
(0.10003 -1.17298e-05 0)
(0.100035 4.25053e-08 0)
(0.100043 1.6819e-05 0)
(0.100054 5.01191e-06 0)
(0.100066 5.33872e-05 0)
(0.100085 1.02661e-05 0)
(0.100054 2.4346e-05 0)
(0.0998504 -1.85002e-05 0)
(0.0998454 -8.88471e-05 0)
(0.100037 -0.000125059 0)
(0.100055 -0.000107372 0)
(0.100024 -0.000151526 0)
(0.100001 -8.48247e-05 0)
(0.0999767 -0.000110827 0)
(0.099956 -5.98344e-05 0)
(0.0999387 -6.84828e-05 0)
(0.099925 -1.98386e-05 0)
(0.0999132 -4.10585e-05 0)
)
;
    }
    frontAndBack
    {
        type            empty;
    }
}


// ************************************************************************* //
