/*--------------------------------*- C++ -*----------------------------------*\
  =========                 |
  \\      /  F ield         | OpenFOAM: The Open Source CFD Toolbox
   \\    /   O peration     | Website:  https://openfoam.org
    \\  /    A nd           | Version:  9
     \\/     M anipulation  |
\*---------------------------------------------------------------------------*/
FoamFile
{
    format      ascii;
    class       volScalarField;
    location    "87";
    object      ddt0(h);
}
// * * * * * * * * * * * * * * * * * * * * * * * * * * * * * * * * * * * * * //

dimensions      [0 1 -1 0 0 0 0];

internalField   nonuniform List<scalar> 
400
(
-6.89568e-09
1.19451e-08
6.31543e-09
6.16893e-09
7.57414e-09
-4.68087e-09
2.60287e-09
-5.18005e-09
-8.86768e-10
1.10987e-08
2.39099e-08
1.53452e-08
-1.05608e-08
-1.1387e-08
7.76346e-09
1.98582e-08
6.11796e-09
-1.22786e-08
-8.18431e-09
-1.05665e-09
-3.49406e-09
-2.58633e-09
2.24713e-09
1.24395e-08
1.66524e-09
1.65435e-09
-8.25485e-10
-1.86503e-09
3.01456e-10
-9.17871e-09
1.48983e-08
-3.93399e-09
-7.70839e-09
-7.34978e-09
5.56033e-09
1.49444e-08
8.33574e-09
5.05144e-09
4.06396e-09
9.62483e-10
3.94959e-09
-1.185e-08
3.72727e-09
7.41871e-09
-4.23404e-09
1.13745e-09
2.22467e-09
-9.71605e-11
-5.97032e-09
-1.61905e-08
-2.12777e-08
9.9822e-09
-2.44161e-08
-8.34888e-09
3.37425e-10
-2.39953e-09
1.01417e-09
1.23062e-08
1.16344e-08
3.39462e-09
4.17694e-09
-4.29024e-09
1.90383e-09
-9.8638e-10
-8.46146e-09
7.59996e-09
-1.04573e-09
1.82502e-08
-6.58605e-08
4.08268e-08
-7.97899e-08
1.04116e-08
2.74744e-08
-3.33949e-08
-2.31041e-08
-2.05064e-08
-7.50036e-09
1.74874e-08
2.2872e-08
1.00778e-08
1.46185e-09
1.59278e-09
-1.21187e-10
-1.31587e-08
2.65152e-10
9.28376e-09
2.3459e-08
-4.96899e-08
3.70976e-09
-3.7827e-08
1.36308e-07
-1.0244e-07
6.91471e-08
5.20279e-08
-4.35077e-08
-5.08947e-08
-1.86025e-08
1.16478e-08
2.20979e-08
1.09601e-08
2.29902e-09
-9.30661e-10
-1.15012e-08
-1.11263e-08
1.0529e-08
3.15519e-08
-1.21475e-08
-6.66792e-08
1.22404e-07
-1.12282e-07
7.74751e-08
9.15842e-08
-7.3268e-08
5.89661e-08
3.57704e-08
-3.66102e-08
-3.84686e-08
-1.3874e-08
-8.81913e-10
2.71801e-10
7.33234e-09
-9.57297e-09
-1.72435e-08
-5.50174e-09
2.99696e-08
2.08376e-08
-5.32625e-08
5.06593e-08
-7.01669e-08
2.76322e-07
-3.61692e-07
9.60047e-08
8.02394e-08
-5.14836e-09
3.22238e-08
2.99537e-09
-2.74687e-08
-3.37574e-08
-2.98508e-08
-1.37714e-08
8.54053e-09
-1.1664e-08
-1.59231e-08
9.44447e-09
2.15894e-08
2.07406e-10
-2.21519e-08
-2.39313e-08
1.16436e-07
-1.19794e-07
-1.57499e-06
-2.97239e-07
2.96368e-08
6.39826e-08
3.88247e-08
2.19603e-08
-7.17534e-09
-3.07207e-08
-4.12526e-08
-1.9411e-08
4.61813e-09
-8.99572e-09
-1.16608e-09
1.29635e-08
5.69561e-09
-2.17518e-08
-2.40256e-10
2.77083e-08
-1.25061e-07
1.82707e-07
1.55643e-06
3.51261e-07
-2.09561e-09
-2.46927e-08
-1.74455e-09
2.67282e-08
7.50967e-08
1.42814e-09
-2.28079e-08
-4.19195e-08
2.53725e-10
-1.31249e-11
9.45256e-09
1.55367e-08
-2.50484e-08
-2.6641e-08
3.93121e-08
-2.75851e-08
9.0576e-08
-3.09479e-07
4.82145e-07
-1.58602e-07
-7.50235e-08
-1.11164e-08
-3.44485e-08
4.87796e-09
-1.64085e-08
2.14707e-08
3.18749e-09
2.31285e-08
1.08018e-09
6.9776e-09
1.15892e-08
5.8909e-09
-2.73331e-08
-3.86669e-08
3.74364e-08
6.83574e-08
-9.1926e-08
1.62407e-07
-7.49076e-07
9.48999e-10
2.54798e-08
-8.52842e-08
-2.79564e-08
2.99877e-08
3.96309e-08
2.84439e-08
1.34941e-08
2.10834e-09
3.06517e-09
8.86309e-09
3.19622e-09
-1.6033e-09
-1.79672e-08
-2.14391e-08
-7.05252e-09
6.87965e-08
5.07223e-09
-1.43088e-07
4.8147e-06
-4.16819e-07
-3.40359e-08
-4.12218e-08
9.55899e-09
3.34768e-08
2.70731e-08
1.00859e-08
3.32197e-09
1.99157e-09
1.41148e-09
6.20079e-09
-7.74393e-09
-4.42917e-09
6.11304e-09
-6.58853e-09
-1.67394e-08
-9.73074e-09
6.39769e-08
1.3629e-07
-4.83048e-06
5.1149e-07
-6.55344e-08
3.64248e-08
4.04332e-08
1.70611e-08
-3.12686e-09
-1.72017e-08
-1.22864e-08
-2.2565e-09
-1.91969e-09
1.81824e-09
-1.19448e-08
-9.36224e-09
2.93745e-08
1.3502e-08
-2.34202e-08
-2.66407e-08
1.69129e-08
-6.44739e-08
6.17064e-07
-1.34278e-07
8.8147e-08
5.47823e-08
1.48764e-08
-3.14375e-09
-2.52336e-08
-3.22144e-08
-1.5071e-08
-5.28621e-10
-1.47627e-09
2.1011e-09
-1.14841e-08
-2.0449e-08
2.67476e-08
4.30008e-08
-1.90911e-08
-2.88417e-08
-3.37977e-08
4.01158e-08
-4.43229e-08
6.59153e-08
1.83387e-08
1.96454e-08
4.66012e-09
-2.57549e-08
-3.47683e-08
-2.24192e-08
2.10648e-09
8.19481e-09
3.24926e-09
5.42532e-09
-4.49716e-09
-3.05371e-08
-1.5126e-09
3.99815e-08
2.14708e-08
-3.56692e-08
-8.69753e-09
-4.80132e-08
-4.99926e-08
-2.50428e-08
-1.16951e-09
1.11317e-08
-2.83124e-08
-4.57755e-08
-1.91706e-08
1.37333e-08
3.08423e-08
1.78044e-08
2.81875e-09
1.2288e-08
6.46102e-09
-2.28565e-08
-3.52248e-08
1.108e-08
3.26551e-08
1.73631e-08
-1.15946e-08
-1.22866e-08
-2.04426e-08
-3.2079e-08
-1.14224e-08
-2.40139e-08
-3.82316e-08
-3.15462e-08
8.44315e-09
4.53525e-08
4.95138e-08
2.14066e-08
-6.01934e-09
1.39393e-08
1.81973e-08
-3.57736e-09
-3.32718e-08
-2.39579e-08
1.52677e-08
2.86105e-08
1.67771e-08
1.00288e-08
3.41119e-09
5.17631e-10
-1.20755e-08
-1.52959e-08
-9.72849e-09
1.76398e-09
2.71058e-08
4.35364e-08
3.40167e-08
1.13596e-08
-9.15351e-09
4.76851e-11
1.83949e-08
1.82018e-08
-2.31076e-09
-2.09068e-08
-1.02521e-08
3.44616e-09
9.90554e-09
9.24025e-09
1.53441e-08
1.32896e-08
-4.31535e-09
-4.7629e-09
1.2527e-08
2.3795e-08
1.46604e-08
-2.20424e-09
-1.26297e-08
-7.90021e-09
-7.60796e-09
-1.54144e-08
8.32835e-09
3.22253e-08
2.44966e-08
1.20857e-09
-1.89414e-08
-1.59043e-08
-9.98041e-09
-2.19364e-09
4.30468e-09
3.84864e-09
-1.16637e-08
-1.43014e-08
1.46292e-08
2.436e-08
-7.42169e-09
-4.28396e-08
-5.13786e-08
-2.38576e-08
)
;

boundaryField
{
    sides
    {
        type            calculated;
        value           nonuniform List<scalar> 
40
(
-7.60796e-09
-1.54144e-08
8.32835e-09
3.22253e-08
2.44966e-08
1.20857e-09
-1.89414e-08
-1.59043e-08
-9.98041e-09
-2.19364e-09
4.30468e-09
3.84864e-09
-1.16637e-08
-1.43014e-08
1.46292e-08
2.436e-08
-7.42169e-09
-4.28396e-08
-5.13786e-08
-2.38576e-08
-6.89568e-09
1.19451e-08
6.31543e-09
6.16893e-09
7.57414e-09
-4.68087e-09
2.60287e-09
-5.18005e-09
-8.86768e-10
1.10987e-08
2.39099e-08
1.53452e-08
-1.05608e-08
-1.1387e-08
7.76346e-09
1.98582e-08
6.11796e-09
-1.22786e-08
-8.18431e-09
-1.05665e-09
)
;
    }
    inlet
    {
        type            calculated;
        value           nonuniform List<scalar> 
20
(
-6.89568e-09
-3.49406e-09
3.94959e-09
4.17694e-09
1.46185e-09
2.29902e-09
7.33234e-09
8.54053e-09
4.61813e-09
2.53725e-10
1.08018e-09
3.06517e-09
1.41148e-09
-1.91969e-09
-1.47627e-09
3.24926e-09
2.81875e-09
-6.01934e-09
-9.15351e-09
-7.60796e-09
)
;
    }
    outlet
    {
        type            calculated;
        value           uniform 0;
    }
    frontAndBack
    {
        type            empty;
    }
}


// ************************************************************************* //
