/*--------------------------------*- C++ -*----------------------------------*\
  =========                 |
  \\      /  F ield         | OpenFOAM: The Open Source CFD Toolbox
   \\    /   O peration     | Website:  https://openfoam.org
    \\  /    A nd           | Version:  9
     \\/     M anipulation  |
\*---------------------------------------------------------------------------*/
FoamFile
{
    format      ascii;
    class       volVectorField;
    location    "87";
    object      ddtCorrDdt0(hU);
}
// * * * * * * * * * * * * * * * * * * * * * * * * * * * * * * * * * * * * * //

dimensions      [0 2 -2 0 0 0 0];

internalField   nonuniform List<vector> 
400
(
(-1.11975e-09 1.54782e-09 0)
(2.79951e-09 5.87592e-10 0)
(5.17225e-09 5.56335e-10 0)
(5.12578e-09 -1.92762e-09 0)
(2.0544e-09 -2.00762e-09 0)
(-2.43065e-09 -1.93044e-09 0)
(-3.78204e-09 -4.51988e-10 0)
(-3.95241e-09 -2.86594e-10 0)
(-2.33348e-09 6.90448e-10 0)
(-6.37958e-10 5.26114e-10 0)
(4.96804e-10 7.38974e-10 0)
(2.16839e-09 2.59274e-09 0)
(3.32266e-09 1.84869e-09 0)
(3.7576e-09 6.71216e-10 0)
(-2.55855e-10 -8.66705e-10 0)
(-2.14905e-09 7.85275e-10 0)
(1.49265e-09 1.89174e-09 0)
(1.87052e-09 6.58615e-10 0)
(1.60999e-10 7.03741e-10 0)
(1.06953e-09 6.71012e-10 0)
(-1.18054e-09 2.64735e-09 0)
(4.64678e-10 2.24109e-09 0)
(2.4227e-09 1.06048e-09 0)
(3.17933e-09 -4.05128e-09 0)
(1.53077e-09 -4.47691e-09 0)
(-3.44222e-10 -4.10045e-09 0)
(-2.57718e-09 -1.49485e-09 0)
(-2.5039e-09 1.27356e-10 0)
(-1.22691e-09 8.75124e-10 0)
(-2.51554e-09 3.82004e-09 0)
(1.60185e-09 3.09365e-09 0)
(1.24499e-09 6.48313e-09 0)
(1.56806e-09 6.4433e-09 0)
(1.51158e-09 1.26032e-09 0)
(-2.6827e-10 -1.65063e-09 0)
(2.25692e-10 1.13454e-09 0)
(1.48662e-09 3.23177e-09 0)
(2.21924e-09 2.40765e-09 0)
(1.64959e-09 2.49873e-09 0)
(6.44366e-10 1.30302e-09 0)
(2.97803e-10 2.36269e-09 0)
(-1.14187e-09 2.7857e-09 0)
(-1.01081e-09 1.39745e-10 0)
(-2.41406e-10 -2.95236e-09 0)
(9.82993e-10 -3.69166e-09 0)
(9.07628e-10 -3.47095e-09 0)
(1.26406e-10 -1.8749e-09 0)
(-1.09415e-09 -1.10386e-10 0)
(1.16461e-09 3.02774e-09 0)
(-7.4862e-10 4.03765e-09 0)
(-1.55522e-09 9.83551e-09 0)
(4.69357e-09 2.47892e-09 0)
(-3.49988e-09 9.66027e-09 0)
(-3.98568e-09 4.87004e-09 0)
(-8.28643e-10 -3.27901e-10 0)
(7.68598e-10 7.72199e-10 0)
(1.98403e-09 2.26582e-09 0)
(3.15088e-09 2.27731e-09 0)
(1.50803e-09 1.68987e-09 0)
(-1.19377e-09 6.77684e-10 0)
(2.59287e-10 1.7097e-09 0)
(-2.09153e-09 1.46813e-09 0)
(-2.99135e-09 -5.22973e-10 0)
(-1.75012e-09 -2.0016e-11 0)
(1.84319e-10 -4.36936e-10 0)
(1.76268e-09 -2.00371e-09 0)
(3.10399e-10 -1.62201e-09 0)
(4.36007e-09 -1.45787e-09 0)
(-3.17294e-09 1.04727e-08 0)
(9.71603e-09 -3.53997e-09 0)
(-9.32587e-09 6.90564e-09 0)
(1.56856e-09 3.82923e-09 0)
(7.48917e-09 -2.06105e-09 0)
(-1.102e-08 8.13259e-09 0)
(-6.83729e-09 6.3e-09 0)
(-3.94081e-10 2.06642e-09 0)
(1.01538e-09 4.29144e-10 0)
(2.30094e-09 -1.00309e-09 0)
(2.33417e-09 -2.11298e-09 0)
(-7.05884e-12 -1.17813e-09 0)
(-1.27827e-10 -5.60652e-10 0)
(-2.1561e-09 -1.96177e-10 0)
(-2.62941e-09 6.91516e-10 0)
(-1.75258e-09 3.26867e-09 0)
(-3.26592e-10 1.92888e-09 0)
(1.09182e-10 -8.03738e-10 0)
(2.21386e-09 -3.46503e-09 0)
(5.85753e-09 7.92888e-09 0)
(1.18802e-09 -1.82056e-09 0)
(-6.54543e-09 5.72407e-09 0)
(2.20034e-08 -1.54537e-08 0)
(-1.64398e-08 8.49108e-09 0)
(9.44687e-09 -6.96556e-09 0)
(1.11155e-08 -5.2282e-09 0)
(-1.0756e-08 6.67898e-09 0)
(-9.72496e-09 5.87358e-09 0)
(-3.55802e-09 6.09455e-10 0)
(-2.28977e-10 -2.83588e-09 0)
(2.55293e-09 -4.20175e-09 0)
(3.05634e-09 -2.45479e-09 0)
(2.70603e-10 -2.58237e-09 0)
(-6.64311e-10 -1.26916e-09 0)
(-7.42074e-10 2.26171e-09 0)
(-9.28585e-10 4.34091e-09 0)
(-1.7665e-09 1.99093e-09 0)
(-1.71102e-09 -1.85267e-09 0)
(7.08224e-09 1.73499e-09 0)
(-2.0546e-09 6.90817e-09 0)
(1.37779e-08 -8.93118e-09 0)
(-1.80843e-08 1.68527e-09 0)
(8.08814e-09 2.86393e-09 0)
(1.85539e-08 -2.68591e-08 0)
(-1.76379e-08 -6.49578e-10 0)
(1.22413e-08 -7.84806e-09 0)
(1.12449e-08 -3.00563e-09 0)
(-7.81773e-09 4.135e-09 0)
(-1.14816e-08 2.75121e-09 0)
(-6.56615e-09 -3.34277e-10 0)
(1.6446e-11 -2.17659e-09 0)
(4.64263e-09 -1.48077e-09 0)
(1.32784e-09 -2.38137e-09 0)
(1.22809e-09 -9.09015e-10 0)
(1.32935e-09 2.17933e-09 0)
(-6.32742e-10 1.98102e-09 0)
(-3.34375e-09 -3.85012e-10 0)
(4.0771e-10 1.43473e-10 0)
(2.75357e-09 4.71513e-09 0)
(5.54796e-09 -1.48578e-09 0)
(-1.13198e-08 5.32591e-09 0)
(3.80335e-08 -3.12197e-08 0)
(-5.66442e-08 8.51392e-09 0)
(-1.99791e-09 -1.78715e-08 0)
(3.03164e-08 -1.16322e-08 0)
(2.67714e-09 9.92745e-10 0)
(9.63085e-09 -3.73402e-09 0)
(1.96381e-09 -1.04784e-09 0)
(-9.57301e-09 1.39837e-09 0)
(-1.06325e-08 2.08802e-09 0)
(-4.37594e-09 1.5218e-09 0)
(2.95744e-09 3.88503e-10 0)
(1.77675e-09 -4.87929e-10 0)
(2.34507e-09 3.22598e-10 0)
(1.77246e-09 5.00124e-10 0)
(-8.95374e-10 -1.73798e-09 0)
(-2.37032e-09 -1.94127e-09 0)
(-1.92235e-10 3.60143e-09 0)
(4.12175e-09 3.02244e-09 0)
(2.69521e-09 -5.04544e-09 0)
(-1.45979e-08 -6.9749e-10 0)
(-1.69511e-08 2.74599e-08 0)
(-1.45224e-07 -1.13898e-08 0)
(-4.25382e-08 2.6783e-08 0)
(1.19762e-08 1.39118e-08 0)
(2.11521e-08 3.20526e-09 0)
(9.7766e-09 -1.8889e-09 0)
(3.58117e-09 -4.92503e-09 0)
(-5.68741e-09 -1.89593e-09 0)
(-8.91026e-09 2.98915e-09 0)
(-5.96297e-09 4.00565e-09 0)
(5.82917e-10 1.68026e-09 0)
(1.3277e-09 1.17753e-09 0)
(1.81435e-09 8.37031e-10 0)
(9.6028e-10 -1.27401e-09 0)
(-8.53401e-10 -3.83605e-09 0)
(-3.452e-10 -1.14572e-09 0)
(9.42019e-10 5.40266e-09 0)
(-1.02258e-09 2.92563e-09 0)
(-8.0152e-10 -7.00589e-09 0)
(1.5397e-08 -2.59091e-09 0)
(2.03857e-08 2.13614e-08 0)
(1.35874e-07 -9.97707e-09 0)
(4.9545e-08 3.18863e-08 0)
(-3.52203e-09 9.15265e-09 0)
(-1.492e-08 -1.92324e-10 0)
(-1.40529e-09 -4.0969e-09 0)
(4.51141e-09 -8.30399e-09 0)
(8.28573e-09 -2.63544e-09 0)
(-1.74683e-09 2.14127e-09 0)
(-4.60717e-09 4.21893e-09 0)
(-3.98585e-09 1.66769e-09 0)
(1.98745e-10 1.24374e-09 0)
(6.11091e-10 1.60579e-10 0)
(-2.80436e-10 -1.93895e-09 0)
(3.18928e-11 -2.20376e-09 0)
(2.30287e-09 2.53586e-10 0)
(1.17754e-09 4.65795e-09 0)
(-2.4458e-09 3.39631e-09 0)
(-3.76641e-09 -3.40427e-09 0)
(1.13095e-08 -3.41307e-09 0)
(-4.15822e-08 -2.97519e-08 0)
(7.17402e-08 1.54791e-08 0)
(-8.20092e-09 -1.63959e-08 0)
(-3.20102e-08 -1.0863e-08 0)
(6.23763e-10 -6.28647e-09 0)
(-5.32517e-09 -8.76058e-09 0)
(3.28e-09 -7.10686e-09 0)
(3.64945e-09 -3.19878e-09 0)
(2.82507e-09 -3.2339e-10 0)
(-1.0261e-09 1.75576e-09 0)
(1.33793e-09 6.68188e-10 0)
(-4.15634e-10 9.89658e-11 0)
(-2.41803e-10 -7.34686e-10 0)
(-1.1777e-10 -9.31812e-10 0)
(7.06513e-10 1.11348e-09 0)
(3.25183e-09 2.0225e-09 0)
(2.4336e-09 -4.06706e-10 0)
(-5.38302e-09 2.77435e-09 0)
(-3.34431e-09 4.2401e-09 0)
(-1.05401e-08 -7.03627e-09 0)
(3.513e-08 -1.68404e-08 0)
(-8.08096e-08 5.76518e-08 0)
(-1.49141e-08 -2.64829e-08 0)
(1.03206e-08 -3.65743e-09 0)
(-1.88917e-08 -6.89516e-09 0)
(-5.02564e-09 -4.86874e-09 0)
(1.02759e-08 -4.17719e-11 0)
(1.13951e-08 -1.34513e-09 0)
(5.8369e-09 -1.02166e-09 0)
(8.97036e-10 -6.00537e-10 0)
(-3.71685e-10 -8.47645e-11 0)
(-4.91075e-10 -8.32877e-10 0)
(1.71924e-10 -7.11016e-10 0)
(8.33297e-10 5.06152e-10 0)
(1.21887e-09 3.45271e-09 0)
(1.46954e-09 1.75601e-09 0)
(2.37032e-09 -3.51614e-09 0)
(-2.2124e-09 -4.06359e-09 0)
(-3.68557e-09 1.07245e-08 0)
(-2.2218e-08 2.21742e-09 0)
(4.4896e-08 2.77723e-08 0)
(5.10333e-07 -9.73252e-08 0)
(-1.06282e-07 1.18474e-08 0)
(-7.42199e-09 -2.20317e-09 0)
(-3.66638e-09 -2.03538e-09 0)
(5.53873e-09 8.45187e-09 0)
(9.64008e-09 8.41239e-09 0)
(7.07036e-09 3.50832e-09 0)
(2.61318e-09 9.7193e-11 0)
(8.30002e-11 -7.9812e-10 0)
(-3.2319e-11 -1.6348e-10 0)
(-1.26795e-10 -2.98558e-10 0)
(1.17729e-09 3.43139e-10 0)
(1.88202e-09 9.37863e-10 0)
(7.1754e-10 3.03423e-09 0)
(-4.84346e-10 8.027e-10 0)
(-9.33444e-11 -5.45615e-09 0)
(3.63138e-09 -5.70856e-09 0)
(-4.11138e-09 1.21129e-09 0)
(2.32301e-08 1.40857e-08 0)
(-6.27353e-08 1.81484e-08 0)
(-5.16107e-07 -4.40026e-08 0)
(1.3642e-07 6.64858e-09 0)
(-1.24357e-08 3.96445e-09 0)
(3.23845e-09 1.12129e-08 0)
(1.22078e-08 1.10312e-08 0)
(3.77175e-09 7.9735e-09 0)
(-1.02118e-09 3.55935e-09 0)
(-2.63364e-09 1.9197e-10 0)
(-2.12938e-09 -7.79561e-10 0)
(-1.01277e-09 -1.7535e-10 0)
(9.33612e-11 1.63558e-09 0)
(1.22428e-09 1.35065e-09 0)
(1.72834e-09 -1.8554e-10 0)
(-8.0045e-11 -1.83802e-10 0)
(-2.43594e-09 4.54887e-10 0)
(-4.48674e-10 -4.37308e-09 0)
(3.31587e-09 -6.32725e-09 0)
(6.78409e-09 -4.57821e-09 0)
(-2.95143e-09 4.82405e-09 0)
(-6.26079e-09 -1.38698e-08 0)
(6.79789e-08 8.79033e-08 0)
(-2.52601e-08 4.87202e-09 0)
(9.83277e-09 6.85278e-09 0)
(1.26158e-08 9.85088e-09 0)
(2.21643e-09 4.79919e-09 0)
(-1.86761e-09 2.70561e-09 0)
(-5.58848e-09 5.18272e-10 0)
(-5.30943e-09 -1.62527e-09 0)
(-2.26623e-09 -1.43697e-09 0)
(-5.46725e-10 -1.54361e-10 0)
(-7.27933e-11 3.12971e-09 0)
(-6.51714e-10 1.4147e-09 0)
(-2.54191e-10 -1.96996e-09 0)
(-8.28846e-10 -4.01745e-09 0)
(-2.70877e-09 -3.38803e-10 0)
(-1.59634e-09 1.03232e-09 0)
(3.74438e-09 -4.29724e-09 0)
(5.11113e-09 -5.48151e-09 0)
(2.6675e-09 -7.43712e-09 0)
(8.70373e-09 5.3257e-09 0)
(-6.39375e-09 -7.17057e-09 0)
(6.69693e-09 3.60833e-09 0)
(1.24601e-09 7.1028e-09 0)
(-3.9248e-10 1.75487e-10 0)
(4.60407e-10 -1.9706e-09 0)
(-5.1832e-09 -3.11416e-09 0)
(-8.01453e-09 -3.11346e-09 0)
(-4.33165e-09 -3.00647e-09 0)
(9.97276e-10 -1.23176e-09 0)
(1.4189e-09 2.33338e-10 0)
(-5.65749e-10 2.57363e-09 0)
(-3.55158e-09 5.09842e-10 0)
(-3.12011e-09 -2.51024e-09 0)
(-1.26696e-09 -5.65153e-09 0)
(-5.70388e-10 -1.68102e-09 0)
(-1.20928e-09 5.41272e-09 0)
(1.82987e-09 3.86157e-09 0)
(2.8668e-09 -4.83788e-09 0)
(4.50732e-09 -4.70165e-09 0)
(-4.34596e-09 -8.70337e-09 0)
(-1.39347e-09 -5.95749e-09 0)
(1.23006e-09 -4.04015e-09 0)
(-2.10096e-09 -5.77836e-09 0)
(-1.48524e-09 -5.29162e-09 0)
(-6.19428e-09 -8.1114e-09 0)
(-7.74427e-09 -8.04587e-09 0)
(-4.30303e-09 -4.7407e-09 0)
(2.02063e-09 -1.66763e-09 0)
(6.10907e-09 3.59364e-10 0)
(3.24861e-09 6.33199e-10 0)
(-1.45543e-09 -4.72494e-10 0)
(-4.895e-09 -6.77424e-10 0)
(-4.83738e-09 -1.0721e-09 0)
(-9.35213e-10 -2.67521e-09 0)
(2.00251e-09 -2.06122e-09 0)
(1.40074e-09 4.77341e-09 0)
(-6.59963e-10 7.50157e-09 0)
(1.06998e-09 2.28276e-09 0)
(5.72799e-10 -3.14785e-09 0)
(1.4611e-09 -3.55905e-09 0)
(1.01326e-09 -1.26313e-09 0)
(-2.17746e-09 -6.92173e-09 0)
(-2.67988e-09 -6.83389e-09 0)
(-7.42509e-09 -7.81236e-09 0)
(-7.51822e-09 -7.39756e-09 0)
(-2.85647e-09 -5.78614e-09 0)
(3.31223e-09 -1.97386e-09 0)
(8.43945e-09 1.6872e-09 0)
(8.48345e-09 2.17227e-09 0)
(2.83695e-09 7.08048e-10 0)
(-1.77876e-09 -4.7145e-09 0)
(-3.03877e-09 -1.98321e-09 0)
(-3.30055e-09 1.95171e-09 0)
(-8.40971e-11 3.03887e-09 0)
(3.4768e-09 5.48102e-10 0)
(2.51024e-09 3.57212e-10 0)
(-6.07969e-10 2.9656e-09 0)
(-1.35119e-09 3.32212e-09 0)
(5.85067e-10 1.05404e-09 0)
(2.87275e-09 1.32997e-09 0)
(9.1358e-10 -8.30498e-10 0)
(-1.28576e-09 -2.54548e-09 0)
(-3.62472e-09 -3.6397e-09 0)
(-5.09397e-09 -8.97062e-10 0)
(-3.05735e-09 2.31587e-09 0)
(2.02393e-09 2.1146e-09 0)
(8.36712e-09 2.32989e-09 0)
(1.00198e-08 3.12139e-09 0)
(5.27764e-09 2.09655e-09 0)
(-5.98747e-10 4.17191e-10 0)
(-2.99805e-10 -6.44573e-09 0)
(1.16714e-09 -3.15488e-09 0)
(7.10431e-10 3.46764e-09 0)
(1.46437e-09 6.17468e-09 0)
(2.43204e-09 3.39767e-09 0)
(9.33588e-10 -1.8445e-09 0)
(-1.44273e-09 -2.82003e-09 0)
(-2.16081e-09 -1.06681e-09 0)
(2.27068e-10 5.02126e-10 0)
(1.37782e-09 4.15425e-10 0)
(8.19376e-10 -6.40542e-10 0)
(1.0423e-10 -9.01469e-10 0)
(-7.36531e-11 4.24049e-10 0)
(2.01218e-10 5.16303e-09 0)
(3.87256e-11 8.06847e-09 0)
(2.34289e-09 6.64537e-09 0)
(5.39351e-09 3.23355e-09 0)
(4.18156e-09 6.29917e-10 0)
(-1.38984e-09 -3.04247e-10 0)
(-4.99185e-09 -1.40138e-10 0)
(9.68763e-10 -3.03412e-09 0)
(4.48162e-09 -1.79372e-09 0)
(4.43323e-09 1.60076e-09 0)
(3.3113e-09 3.18139e-09 0)
(1.15148e-09 2.05728e-09 0)
(-1.09403e-09 -7.54141e-10 0)
(-2.95579e-09 -2.18684e-09 0)
(-2.40203e-09 -1.46716e-09 0)
(-8.54243e-10 -5.38831e-10 0)
(2.35682e-10 -5.01332e-10 0)
(-2.65317e-10 -4.41792e-10 0)
(4.32324e-10 -4.91602e-10 0)
(2.63976e-09 7.57382e-10 0)
(2.54685e-09 2.88988e-09 0)
(5.47729e-10 4.07156e-09 0)
(-7.64136e-10 3.27225e-09 0)
(-8.60388e-10 9.77663e-10 0)
(-1.72832e-09 -8.16737e-10 0)
(-5.21403e-09 -9.85039e-10 0)
(-6.76872e-09 -2.41392e-10 0)
)
;

boundaryField
{
    sides
    {
        type            calculated;
        value           nonuniform List<vector> 
40
(
(9.68763e-10 0 0)
(4.48162e-09 0 0)
(4.43323e-09 0 0)
(3.3113e-09 0 0)
(1.15148e-09 0 0)
(-1.09403e-09 0 0)
(-2.95579e-09 0 0)
(-2.40203e-09 0 0)
(-8.54243e-10 0 0)
(2.35682e-10 0 0)
(-2.65317e-10 0 0)
(4.32324e-10 0 0)
(2.63976e-09 0 0)
(2.54685e-09 0 0)
(5.47729e-10 0 0)
(-7.64136e-10 0 0)
(-8.60388e-10 0 0)
(-1.72832e-09 0 0)
(-5.21403e-09 0 0)
(-6.76872e-09 0 0)
(-1.11975e-09 0 0)
(2.79951e-09 0 0)
(5.17225e-09 0 0)
(5.12578e-09 0 0)
(2.0544e-09 0 0)
(-2.43065e-09 0 0)
(-3.78204e-09 0 0)
(-3.95241e-09 0 0)
(-2.33348e-09 0 0)
(-6.37958e-10 0 0)
(4.96804e-10 0 0)
(2.16839e-09 0 0)
(3.32266e-09 0 0)
(3.7576e-09 0 0)
(-2.55855e-10 0 0)
(-2.14905e-09 0 0)
(1.49265e-09 0 0)
(1.87052e-09 0 0)
(1.60999e-10 0 0)
(1.06953e-09 0 0)
)
;
    }
    inlet
    {
        type            calculated;
        value           uniform (0 0 0);
    }
    outlet
    {
        type            calculated;
        value           nonuniform List<vector> 
20
(
(1.06953e-09 6.71012e-10 0)
(6.44366e-10 1.30302e-09 0)
(-1.19377e-09 6.77684e-10 0)
(-7.05884e-12 -1.17813e-09 0)
(3.05634e-09 -2.45479e-09 0)
(4.64263e-09 -1.48077e-09 0)
(2.95744e-09 3.88503e-10 0)
(5.82917e-10 1.68026e-09 0)
(-3.98585e-09 1.66769e-09 0)
(1.33793e-09 6.68188e-10 0)
(-3.71685e-10 -8.47645e-11 0)
(-3.2319e-11 -1.6348e-10 0)
(-1.01277e-09 -1.7535e-10 0)
(-5.46725e-10 -1.54361e-10 0)
(1.4189e-09 2.33338e-10 0)
(3.24861e-09 6.33199e-10 0)
(2.83695e-09 7.08048e-10 0)
(-5.98747e-10 4.17191e-10 0)
(-4.99185e-09 -1.40138e-10 0)
(-6.76872e-09 -2.41392e-10 0)
)
;
    }
    frontAndBack
    {
        type            empty;
    }
}


// ************************************************************************* //
