/*--------------------------------*- C++ -*----------------------------------*\
  =========                 |
  \\      /  F ield         | OpenFOAM: The Open Source CFD Toolbox
   \\    /   O peration     | Website:  https://openfoam.org
    \\  /    A nd           | Version:  9
     \\/     M anipulation  |
\*---------------------------------------------------------------------------*/
FoamFile
{
    format      ascii;
    class       volVectorField;
    location    "87";
    object      hU_0;
}
// * * * * * * * * * * * * * * * * * * * * * * * * * * * * * * * * * * * * * //

dimensions      [0 2 -1 0 0 0 0];

internalField   nonuniform List<vector> 
400
(
(0.001 -2.43364e-08 0)
(0.00100004 -7.07825e-08 0)
(0.00100012 -1.13336e-07 0)
(0.00100024 -1.52375e-07 0)
(0.00100039 -1.87264e-07 0)
(0.00100058 -2.16659e-07 0)
(0.00100078 -2.36958e-07 0)
(0.00100099 -2.4546e-07 0)
(0.00100118 -2.36545e-07 0)
(0.00100133 -2.1159e-07 0)
(0.0010014 -1.68861e-07 0)
(0.0010014 -1.28662e-07 0)
(0.00100129 -9.89508e-08 0)
(0.00100111 -9.3028e-08 0)
(0.00100087 -9.9793e-08 0)
(0.00100065 -1.35772e-07 0)
(0.00100044 -1.5647e-07 0)
(0.00100034 -2.00757e-07 0)
(0.00100026 -1.88329e-07 0)
(0.00100033 -2.68366e-07 0)
(0.001 -2.67547e-08 0)
(0.00100005 -7.92457e-08 0)
(0.00100013 -1.28509e-07 0)
(0.00100026 -1.74203e-07 0)
(0.00100042 -2.13382e-07 0)
(0.00100062 -2.40254e-07 0)
(0.00100084 -2.45981e-07 0)
(0.00100108 -2.20639e-07 0)
(0.0010013 -1.55069e-07 0)
(0.00100147 -4.82304e-08 0)
(0.00100156 9.32473e-08 0)
(0.00100154 2.47518e-07 0)
(0.00100141 3.89776e-07 0)
(0.00100119 4.7686e-07 0)
(0.00100093 5.04844e-07 0)
(0.00100067 4.51456e-07 0)
(0.00100048 3.78405e-07 0)
(0.00100036 2.5757e-07 0)
(0.00100033 2.05559e-07 0)
(0.00100029 8.10611e-08 0)
(0.001 -5.25091e-08 0)
(0.00100004 -1.59376e-07 0)
(0.00100013 -2.67254e-07 0)
(0.00100026 -3.74118e-07 0)
(0.00100043 -4.73764e-07 0)
(0.00100064 -5.55515e-07 0)
(0.0010009 -6.03716e-07 0)
(0.00100117 -5.97932e-07 0)
(0.00100143 -5.18604e-07 0)
(0.00100164 -3.51691e-07 0)
(0.00100176 -1.099e-07 0)
(0.00100176 1.63089e-07 0)
(0.00100159 4.02795e-07 0)
(0.00100131 5.20506e-07 0)
(0.00100095 4.99345e-07 0)
(0.00100062 3.5342e-07 0)
(0.00100037 2.03057e-07 0)
(0.00100026 4.63995e-08 0)
(0.00100022 -3.08678e-09 0)
(0.0010003 -1.17188e-07 0)
(0.001 -7.34856e-08 0)
(0.00100004 -2.2261e-07 0)
(0.00100013 -3.75459e-07 0)
(0.00100026 -5.31059e-07 0)
(0.00100045 -6.80777e-07 0)
(0.00100069 -8.09894e-07 0)
(0.001001 -8.8915e-07 0)
(0.00100134 -8.86129e-07 0)
(0.00100171 -7.5548e-07 0)
(0.00100203 -4.74801e-07 0)
(0.00100222 -2.15596e-08 0)
(0.00100219 4.93614e-07 0)
(0.00100192 9.38368e-07 0)
(0.00100146 1.1408e-06 0)
(0.00100097 1.05476e-06 0)
(0.00100058 7.42793e-07 0)
(0.00100041 4.23828e-07 0)
(0.00100035 1.70278e-07 0)
(0.0010004 1.02002e-07 0)
(0.00100034 2.42584e-10 0)
(0.001 -9.08231e-08 0)
(0.00100004 -2.78268e-07 0)
(0.00100012 -4.77689e-07 0)
(0.00100025 -6.94511e-07 0)
(0.00100044 -9.20727e-07 0)
(0.00100072 -1.13906e-06 0)
(0.00100109 -1.29908e-06 0)
(0.00100155 -1.33747e-06 0)
(0.00100206 -1.17408e-06 0)
(0.00100257 -7.78299e-07 0)
(0.0010029 -1.68951e-07 0)
(0.00100288 5.80395e-07 0)
(0.00100244 1.23148e-06 0)
(0.00100167 1.51281e-06 0)
(0.00100086 1.37602e-06 0)
(0.00100031 9.64824e-07 0)
(0.00100013 5.81298e-07 0)
(0.00100022 3.13998e-07 0)
(0.00100036 2.61434e-07 0)
(0.00100043 1.6747e-07 0)
(0.001 -1.03072e-07 0)
(0.00100003 -3.18702e-07 0)
(0.00100009 -5.6271e-07 0)
(0.00100019 -8.44999e-07 0)
(0.00100038 -1.17274e-06 0)
(0.00100068 -1.52516e-06 0)
(0.00100115 -1.85965e-06 0)
(0.00100179 -2.05342e-06 0)
(0.00100254 -1.91137e-06 0)
(0.00100326 -1.19832e-06 0)
(0.00100377 8.24659e-08 0)
(0.00100378 1.54377e-06 0)
(0.00100309 2.43466e-06 0)
(0.00100192 2.30529e-06 0)
(0.00100082 1.43113e-06 0)
(0.00100019 4.93248e-07 0)
(0.00100017 1.33323e-08 0)
(0.00100037 -8.6058e-08 0)
(0.00100064 5.90346e-08 0)
(0.00100055 4.93229e-08 0)
(0.001 -1.02334e-07 0)
(0.001 -3.33484e-07 0)
(0.00100002 -6.02151e-07 0)
(0.00100008 -9.62173e-07 0)
(0.00100021 -1.39278e-06 0)
(0.00100048 -1.94694e-06 0)
(0.001001 -2.48957e-06 0)
(0.00100188 -3.08388e-06 0)
(0.00100321 -3.23371e-06 0)
(0.00100473 -2.87958e-06 0)
(0.00100573 -6.70976e-07 0)
(0.00100536 2.55432e-06 0)
(0.0010035 4.82838e-06 0)
(0.00100112 4.73664e-06 0)
(0.000999607 3.02873e-06 0)
(0.00099937 1.26485e-06 0)
(0.001 4.31582e-07 0)
(0.00100056 3.26465e-07 0)
(0.00100093 5.61162e-07 0)
(0.00100066 5.33365e-07 0)
(0.000999996 -9.23775e-08 0)
(0.000999968 -2.88508e-07 0)
(0.000999907 -5.76867e-07 0)
(0.000999876 -9.57003e-07 0)
(0.000999878 -1.57837e-06 0)
(0.0010001 -2.3458e-06 0)
(0.0010005 -3.40247e-06 0)
(0.00100153 -4.12504e-06 0)
(0.00100308 -4.37395e-06 0)
(0.00100602 -2.55169e-06 0)
(0.0010091 7.54673e-07 0)
(0.00100915 4.26665e-06 0)
(0.00100551 4.7175e-06 0)
(0.00100074 2.78136e-06 0)
(0.00099815 7.34884e-07 0)
(0.000998272 -2.73977e-07 0)
(0.000999796 -2.84588e-07 0)
(0.00100087 -8.89327e-09 0)
(0.00100133 2.12059e-07 0)
(0.00100085 1.02626e-07 0)
(0.000999995 -4.9066e-08 0)
(0.000999915 -2.03388e-07 0)
(0.000999756 -3.86214e-07 0)
(0.000999531 -7.35282e-07 0)
(0.000999287 -1.3396e-06 0)
(0.000999211 -2.48223e-06 0)
(0.000999707 -4.68722e-06 0)
(0.00100139 -8.06845e-06 0)
(0.00100491 -1.32865e-05 0)
(0.00100958 -1.49154e-05 0)
(0.00101189 3.84264e-06 0)
(0.00100893 1.87281e-05 0)
(0.00100221 1.57794e-05 0)
(0.000997566 5.7401e-06 0)
(0.000996886 -3.1731e-07 0)
(0.000998461 -1.26345e-06 0)
(0.00100027 -9.34525e-08 0)
(0.001001 6.35606e-07 0)
(0.00100107 6.52425e-07 0)
(0.00100054 2.43877e-07 0)
(0.000999804 -1.95867e-08 0)
(0.00100017 -6.62133e-08 0)
(0.000999216 -1.51166e-07 0)
(0.000999904 -2.49e-07 0)
(0.000997521 -5.93043e-07 0)
(0.000998843 -1.13196e-06 0)
(0.000993347 -2.88341e-06 0)
(0.000997531 -5.59212e-06 0)
(0.000991665 -1.1542e-05 0)
(0.000915834 -1.27062e-05 0)
(0.000951468 2.70628e-07 0)
(0.00101022 1.46364e-05 0)
(0.000990951 1.30834e-05 0)
(0.000983975 5.13994e-06 0)
(0.000989587 1.93636e-07 0)
(0.000996282 -7.81422e-07 0)
(0.000999236 -1.11237e-07 0)
(0.000999411 2.48841e-07 0)
(0.000998647 1.74732e-07 0)
(0.000998504 -1.84736e-07 0)
(0.000999804 1.32563e-08 0)
(0.00100017 4.62018e-08 0)
(0.000999215 1.17502e-07 0)
(0.000999902 1.99774e-07 0)
(0.000997518 5.29217e-07 0)
(0.000998838 1.05113e-06 0)
(0.000993339 2.78603e-06 0)
(0.000997519 5.47421e-06 0)
(0.00099165 1.13975e-05 0)
(0.000915808 1.25494e-05 0)
(0.000951427 -4.74322e-07 0)
(0.0010102 -1.4909e-05 0)
(0.000990946 -1.34081e-05 0)
(0.000983967 -5.53519e-06 0)
(0.000989569 -6.47412e-07 0)
(0.000996245 2.48706e-07 0)
(0.000999195 -4.72388e-07 0)
(0.000999366 -1.00243e-06 0)
(0.000998632 -9.88667e-07 0)
(0.000998454 -8.88719e-07 0)
(0.000999995 4.26977e-08 0)
(0.000999915 1.83901e-07 0)
(0.000999755 3.53327e-07 0)
(0.00099953 6.87409e-07 0)
(0.000999285 1.27703e-06 0)
(0.00099921 2.40169e-06 0)
(0.000999703 4.58822e-06 0)
(0.00100139 7.9419e-06 0)
(0.0010049 1.31328e-05 0)
(0.00100958 1.472e-05 0)
(0.00101188 -4.06267e-06 0)
(0.0010089 -1.90004e-05 0)
(0.00100214 -1.60941e-05 0)
(0.000997479 -6.12083e-06 0)
(0.000996816 -8.32056e-08 0)
(0.000998401 7.75113e-07 0)
(0.00100017 -4.28225e-07 0)
(0.00100085 -1.30602e-06 0)
(0.00100088 -1.37987e-06 0)
(0.00100037 -1.25096e-06 0)
(0.000999996 8.61584e-08 0)
(0.000999967 2.69858e-07 0)
(0.000999905 5.44796e-07 0)
(0.000999871 9.10558e-07 0)
(0.00099987 1.51451e-06 0)
(0.00100008 2.26195e-06 0)
(0.00100048 3.2931e-06 0)
(0.00100149 3.98972e-06 0)
(0.00100303 4.21116e-06 0)
(0.00100594 2.36609e-06 0)
(0.00100902 -9.76285e-07 0)
(0.00100906 -4.5353e-06 0)
(0.00100542 -5.01724e-06 0)
(0.00100066 -3.12786e-06 0)
(0.000998057 -1.13116e-06 0)
(0.000998133 -2.5239e-07 0)
(0.000999621 -3.24105e-07 0)
(0.00100064 -7.42529e-07 0)
(0.00100106 -9.67634e-07 0)
(0.00100055 -1.07399e-06 0)
(0.001 9.65409e-08 0)
(0.001 3.15476e-07 0)
(0.00100002 5.71725e-07 0)
(0.00100007 9.17826e-07 0)
(0.0010002 1.33414e-06 0)
(0.00100046 1.87139e-06 0)
(0.00100097 2.39866e-06 0)
(0.00100185 2.97455e-06 0)
(0.00100318 3.11079e-06 0)
(0.00100469 2.7314e-06 0)
(0.00100568 5.08718e-07 0)
(0.00100527 -2.75468e-06 0)
(0.00100338 -5.07649e-06 0)
(0.00100096 -5.07024e-06 0)
(0.000999408 -3.44977e-06 0)
(0.00099912 -1.79502e-06 0)
(0.000999744 -1.02186e-06 0)
(0.00100025 -1.05941e-06 0)
(0.00100061 -1.30682e-06 0)
(0.00100024 -1.51532e-06 0)
(0.001 9.79406e-08 0)
(0.00100003 3.02653e-07 0)
(0.00100008 5.35729e-07 0)
(0.00100019 8.05787e-07 0)
(0.00100037 1.12121e-06 0)
(0.00100066 1.45926e-06 0)
(0.00100112 1.77855e-06 0)
(0.00100174 1.95113e-06 0)
(0.00100248 1.78232e-06 0)
(0.00100317 1.03393e-06 0)
(0.00100366 -2.82132e-07 0)
(0.00100363 -1.78291e-06 0)
(0.00100292 -2.71126e-06 0)
(0.00100171 -2.63218e-06 0)
(0.00100058 -1.7795e-06 0)
(0.000999903 -8.95932e-07 0)
(0.000999858 -4.27174e-07 0)
(0.000999982 -4.47267e-07 0)
(0.00100022 -6.1547e-07 0)
(0.00100001 -8.48133e-07 0)
(0.001 8.61789e-08 0)
(0.00100004 2.64492e-07 0)
(0.00100011 4.54634e-07 0)
(0.00100024 6.61588e-07 0)
(0.00100043 8.76842e-07 0)
(0.0010007 1.08346e-06 0)
(0.00100106 1.23012e-06 0)
(0.0010015 1.2537e-06 0)
(0.001002 1.0742e-06 0)
(0.00100248 6.56582e-07 0)
(0.0010028 1.69503e-08 0)
(0.00100274 -7.71602e-07 0)
(0.00100227 -1.45085e-06 0)
(0.00100146 -1.775e-06 0)
(0.00100062 -1.66845e-06 0)
(0.00100001 -1.34806e-06 0)
(0.000999795 -1.0288e-06 0)
(0.000999767 -9.36125e-07 0)
(0.000999885 -9.44534e-07 0)
(0.000999766 -1.10812e-06 0)
(0.001 6.92463e-08 0)
(0.00100004 2.10166e-07 0)
(0.00100012 3.54672e-07 0)
(0.00100025 5.01756e-07 0)
(0.00100043 6.43418e-07 0)
(0.00100066 7.64402e-07 0)
(0.00100096 8.37004e-07 0)
(0.00100129 8.26577e-07 0)
(0.00100163 6.92206e-07 0)
(0.00100191 4.07041e-07 0)
(0.00100206 -4.65577e-08 0)
(0.001002 -5.76274e-07 0)
(0.00100171 -1.03598e-06 0)
(0.0010012 -1.28153e-06 0)
(0.00100065 -1.22913e-06 0)
(0.00100016 -9.93516e-07 0)
(0.000999916 -7.01506e-07 0)
(0.000999741 -5.56858e-07 0)
(0.000999752 -4.87486e-07 0)
(0.000999559 -5.98396e-07 0)
(0.001 5.03131e-08 0)
(0.00100004 1.50144e-07 0)
(0.00100012 2.47291e-07 0)
(0.00100025 3.39417e-07 0)
(0.00100041 4.21633e-07 0)
(0.00100062 4.82387e-07 0)
(0.00100086 5.07651e-07 0)
(0.00100112 4.73138e-07 0)
(0.00100137 3.61955e-07 0)
(0.00100157 1.56451e-07 0)
(0.00100167 -1.16296e-07 0)
(0.0010016 -4.20971e-07 0)
(0.00100139 -6.81621e-07 0)
(0.00100103 -8.42084e-07 0)
(0.00100064 -8.49444e-07 0)
(0.00100022 -7.70104e-07 0)
(0.000999951 -6.38347e-07 0)
(0.00099969 -5.98215e-07 0)
(0.000999628 -5.62965e-07 0)
(0.000999387 -6.85274e-07 0)
(0.001 3.45248e-08 0)
(0.00100004 1.04745e-07 0)
(0.00100011 1.74692e-07 0)
(0.00100023 2.42251e-07 0)
(0.00100038 3.02613e-07 0)
(0.00100056 3.49525e-07 0)
(0.00100077 3.74582e-07 0)
(0.00100097 3.68271e-07 0)
(0.00100116 3.19763e-07 0)
(0.0010013 2.24135e-07 0)
(0.00100136 8.59388e-08 0)
(0.00100131 -7.07471e-08 0)
(0.00100115 -2.0635e-07 0)
(0.00100086 -2.97215e-07 0)
(0.00100054 -3.11869e-07 0)
(0.00100017 -2.81615e-07 0)
(0.000999901 -2.03696e-07 0)
(0.000999613 -1.70808e-07 0)
(0.000999517 -1.20483e-07 0)
(0.00099925 -1.99039e-07 0)
(0.001 -4.12628e-09 0)
(0.00100004 -9.9591e-09 0)
(0.00100012 -1.29615e-08 0)
(0.00100024 -1.45911e-08 0)
(0.00100038 -1.69032e-08 0)
(0.00100056 -2.28551e-08 0)
(0.00100075 -3.40203e-08 0)
(0.00100094 -5.3713e-08 0)
(0.00100111 -8.19716e-08 0)
(0.00100123 -1.22332e-07 0)
(0.00100128 -1.70197e-07 0)
(0.00100121 -2.31579e-07 0)
(0.00100107 -2.90661e-07 0)
(0.00100081 -3.41262e-07 0)
(0.00100053 -3.59503e-07 0)
(0.00100018 -3.67965e-07 0)
(0.000999945 -3.42896e-07 0)
(0.000999609 -3.53807e-07 0)
(0.000999522 -3.28767e-07 0)
(0.000999132 -4.10907e-07 0)
)
;

boundaryField
{
    sides
    {
        type            slip;
    }
    inlet
    {
        type            fixedValue;
        value           uniform (0.001 0 0);
    }
    outlet
    {
        type            zeroGradient;
    }
    frontAndBack
    {
        type            empty;
    }
}


// ************************************************************************* //
