/*--------------------------------*- C++ -*----------------------------------*\
  =========                 |
  \\      /  F ield         | OpenFOAM: The Open Source CFD Toolbox
   \\    /   O peration     | Website:  https://openfoam.org
    \\  /    A nd           | Version:  9
     \\/     M anipulation  |
\*---------------------------------------------------------------------------*/
FoamFile
{
    format      ascii;
    class       surfaceScalarField;
    location    "87";
    object      phi_0;
}
// * * * * * * * * * * * * * * * * * * * * * * * * * * * * * * * * * * * * * //

dimensions      [0 4 -1 0 0 0 0];

internalField   nonuniform List<scalar> 
760
(
5.00009e-06
-9.31064e-11
5.0004e-06
-3.07902e-10
5.00091e-06
-5.13391e-10
5.00162e-06
-7.05663e-10
5.00249e-06
-8.75445e-10
5.00349e-06
-1.00332e-09
5.00455e-06
-1.06004e-09
5.00557e-06
-1.01434e-09
5.0064e-06
-8.33618e-10
5.00693e-06
-5.26754e-10
5.00705e-06
-1.26335e-10
5.00665e-06
3.94694e-10
5.0058e-06
8.54141e-10
5.0047e-06
1.10288e-09
5.00352e-06
1.17016e-09
5.00257e-06
9.50544e-10
5.00185e-06
7.1479e-10
5.00161e-06
2.45407e-10
5.00151e-06
1.06633e-10
-3.91913e-10
5.00012e-06
-2.13733e-10
5.00045e-06
-6.35388e-10
5.00098e-06
-1.04666e-09
5.00172e-06
-1.44529e-09
5.00265e-06
-1.80753e-09
5.00374e-06
-2.09413e-09
5.00493e-06
-2.24657e-09
5.00611e-06
-2.19301e-09
5.00713e-06
-1.85586e-09
5.00778e-06
-1.17104e-09
5.00775e-06
-9.96323e-11
5.00725e-06
8.8788e-10
5.00627e-06
1.84374e-09
5.00496e-06
2.41412e-09
5.00368e-06
2.44197e-09
5.00278e-06
1.85363e-09
5.00225e-06
1.2422e-09
5.00191e-06
5.79588e-10
5.00165e-06
3.67441e-10
-1.48813e-10
5.00011e-06
-3.21926e-10
5.00043e-06
-9.53804e-10
5.00096e-06
-1.57897e-09
5.00172e-06
-2.20859e-09
5.00272e-06
-2.80688e-09
5.00394e-06
-3.31517e-09
5.00532e-06
-3.62373e-09
5.00672e-06
-3.59385e-09
5.00793e-06
-3.06321e-09
5.00872e-06
-1.95959e-09
5.00893e-06
-3.07465e-10
5.00825e-06
1.57003e-09
5.00687e-06
3.23084e-09
5.00515e-06
4.13304e-09
5.00351e-06
4.08863e-09
5.00231e-06
3.05154e-09
5.00166e-06
1.88649e-09
5.00147e-06
7.67609e-10
5.00144e-06
3.94647e-10
-2.22835e-10
5.0001e-06
-4.21204e-10
5.00041e-06
-1.26296e-09
5.00094e-06
-2.11563e-09
5.00175e-06
-3.01177e-09
5.00286e-06
-3.91208e-09
5.00429e-06
-4.74689e-09
5.00601e-06
-5.35015e-09
5.00794e-06
-5.53142e-09
5.00984e-06
-4.94465e-09
5.01107e-06
-3.19471e-09
5.0112e-06
-4.18334e-10
5.00999e-06
2.77432e-09
5.00764e-06
5.57488e-09
5.00514e-06
6.64411e-09
5.00347e-06
5.7626e-09
5.0027e-06
3.82646e-09
5.00248e-06
2.10836e-09
5.00231e-06
9.34798e-10
5.00199e-06
7.06623e-10
3.37581e-10
5.00008e-06
-5.02097e-10
5.00034e-06
-1.5222e-09
5.00083e-06
-2.60993e-09
5.00164e-06
-3.8128e-09
5.00286e-06
-5.13276e-09
5.00457e-06
-6.46322e-09
5.00679e-06
-7.5764e-09
5.00942e-06
-8.14537e-09
5.01238e-06
-7.9111e-09
5.01479e-06
-5.58946e-09
5.01481e-06
-4.77079e-10
5.01285e-06
4.76237e-09
5.00867e-06
9.74367e-09
5.00458e-06
1.07155e-08
5.00223e-06
8.1244e-09
5.00174e-06
4.32773e-09
5.00205e-06
1.80657e-09
5.00226e-06
7.23451e-10
5.00201e-06
9.48037e-10
6.24974e-10
5.00004e-06
-5.43126e-10
5.0002e-06
-1.67809e-09
5.00054e-06
-2.94925e-09
5.00121e-06
-4.48385e-09
5.00241e-06
-6.33239e-09
5.00452e-06
-8.57842e-09
5.0076e-06
-1.06539e-08
5.01168e-06
-1.22117e-08
5.01552e-06
-1.17794e-08
5.01901e-06
-9.05792e-09
5.02021e-06
-1.69006e-09
5.01601e-06
8.9368e-09
5.00951e-06
1.62629e-08
5.00421e-06
1.60056e-08
5.00216e-06
1.01626e-08
5.00249e-06
4.00641e-09
5.00327e-06
1.03542e-09
5.0034e-06
5.99477e-10
5.0028e-06
1.54475e-09
1.4208e-09
4.99998e-06
-5.23475e-10
4.99994e-06
-1.63478e-09
5.00003e-06
-3.03957e-09
5.00036e-06
-4.81303e-09
5.00122e-06
-7.19538e-09
5.00291e-06
-1.02803e-08
5.00681e-06
-1.45334e-08
5.01392e-06
-1.93401e-08
5.02376e-06
-2.15984e-08
5.0309e-06
-1.62662e-08
5.02875e-06
5.48489e-10
5.01674e-06
2.09213e-08
5.00418e-06
2.88053e-08
4.99873e-06
2.14597e-08
5.00057e-06
8.31701e-09
5.00284e-06
1.73318e-09
5.00371e-06
1.68604e-10
5.00366e-06
6.56746e-10
5.00305e-06
2.16425e-09
1.68099e-09
4.99986e-06
-3.89532e-10
4.99955e-06
-1.3193e-09
4.99913e-06
-2.61064e-09
4.99886e-06
-4.54403e-09
4.99933e-06
-7.67204e-09
5.00036e-06
-1.13092e-08
5.00365e-06
-1.78227e-08
5.00983e-06
-2.55137e-08
5.02488e-06
-3.6681e-08
5.05613e-06
-4.74818e-08
5.05003e-06
7.03744e-09
5.02319e-06
4.78364e-08
4.99818e-06
5.3808e-08
4.99349e-06
2.61332e-08
4.99946e-06
2.34066e-09
5.00406e-06
-2.87631e-09
5.0049e-06
-6.66011e-10
5.00372e-06
1.84277e-09
5.00351e-06
2.38526e-09
9.70927e-10
4.99977e-06
-1.57458e-10
4.99915e-06
-7.02889e-10
4.99792e-06
-1.37783e-09
4.99611e-06
-2.73394e-09
4.99402e-06
-5.58254e-09
4.99374e-06
-1.10301e-08
4.99945e-06
-2.35318e-08
5.01713e-06
-4.31987e-08
5.0557e-06
-7.5224e-08
5.06681e-06
-5.86344e-08
5.04973e-06
2.37256e-08
4.99648e-06
1.00998e-07
4.9893e-06
6.09917e-08
4.99591e-06
1.95303e-08
5.00019e-06
-1.9409e-09
5.00293e-06
-5.61804e-09
5.00251e-06
-2.72773e-10
5.00183e-06
2.5221e-09
5.00254e-06
1.68209e-09
8.41697e-11
4.99986e-06
-1.52844e-11
4.9992e-06
-4.98118e-11
4.99791e-06
-8.57371e-11
4.9953e-06
-1.29078e-10
4.9899e-06
-1.70687e-10
4.97909e-06
-2.20565e-10
4.95582e-06
-2.682e-10
4.91295e-06
-3.26523e-10
4.83812e-06
-4.13896e-10
4.78001e-06
-4.44812e-10
4.80426e-06
-6.42133e-10
4.90603e-06
-7.35812e-10
4.96779e-06
-7.45842e-10
4.98823e-06
-9.07259e-10
4.98746e-06
-1.1628e-09
4.98326e-06
-1.42547e-09
4.98455e-06
-1.55785e-09
4.9889e-06
-1.8266e-09
4.99247e-06
-1.89474e-09
-2.58488e-09
4.99986e-06
1.26315e-10
4.9992e-06
6.0187e-10
4.99791e-06
1.21097e-09
4.99529e-06
2.48278e-09
4.98988e-06
5.2522e-09
4.97906e-06
1.06017e-08
4.95578e-06
2.3008e-08
4.91289e-06
4.25445e-08
4.83804e-06
7.44629e-08
4.77972e-06
5.78336e-08
4.80426e-06
-2.49963e-08
4.906e-06
-1.02477e-07
4.96777e-06
-6.25184e-08
4.98808e-06
-2.11968e-08
4.98737e-06
-4.47776e-10
4.98294e-06
2.99832e-09
4.98442e-06
-3.05493e-09
4.98888e-06
-6.29009e-09
4.99234e-06
-5.36154e-09
-4.98541e-09
4.99977e-06
3.57089e-10
4.99915e-06
1.22144e-09
4.99791e-06
2.44265e-09
4.9961e-06
4.29839e-09
4.99402e-06
7.33813e-09
4.99374e-06
1.08886e-08
4.99944e-06
1.73107e-08
5.01707e-06
2.48889e-08
5.05561e-06
3.59213e-08
5.06708e-06
4.63994e-08
5.04945e-06
-8.56553e-09
4.99612e-06
-4.90438e-08
4.98886e-06
-5.52445e-08
4.9957e-06
-2.80318e-08
5.00011e-06
-4.86052e-09
5.00231e-06
7.88355e-10
5.00165e-06
-2.39861e-09
5.0009e-06
-5.5423e-09
5.00168e-06
-6.1429e-09
-5.95357e-09
4.99986e-06
4.91902e-10
4.99954e-06
1.53988e-09
4.99911e-06
2.87947e-09
4.99883e-06
4.58075e-09
4.99927e-06
6.89291e-09
5.00027e-06
9.89598e-09
5.00348e-06
1.41026e-08
5.00961e-06
1.87634e-08
5.0246e-06
2.09128e-08
5.05556e-06
1.54019e-08
5.04979e-06
-1.58176e-09
5.0228e-06
-2.21856e-08
4.99787e-06
-3.02978e-08
4.99316e-06
-2.33291e-08
4.99863e-06
-1.03458e-08
5.00344e-06
-4.02536e-09
5.00372e-06
-2.67777e-09
5.00235e-06
-4.16756e-09
5.00216e-06
-5.94803e-09
-6.53677e-09
4.99998e-06
5.15042e-10
4.99993e-06
1.59089e-09
5e-06
2.80381e-09
5.00031e-06
4.27642e-09
5.00113e-06
6.06478e-09
5.00279e-06
8.23479e-09
5.00668e-06
1.0219e-08
5.01378e-06
1.16644e-08
5.02357e-06
1.11188e-08
5.03072e-06
8.2745e-09
5.02838e-06
6.06803e-10
5.01625e-06
-1.00295e-08
5.00349e-06
-1.75608e-08
4.99776e-06
-1.76125e-08
4.9994e-06
-1.19892e-08
5.0016e-06
-6.22268e-09
5.0024e-06
-3.46937e-09
5.00213e-06
-3.89099e-09
5.00119e-06
-5.00738e-09
-5.97681e-09
5.00004e-06
4.78077e-10
5.00018e-06
1.44764e-09
5.0005e-06
2.48389e-09
5.00115e-06
3.62972e-09
5.00232e-06
4.89073e-09
5.00439e-06
6.15676e-09
5.00741e-06
7.20029e-09
5.01139e-06
7.68951e-09
5.01513e-06
7.38732e-09
5.01853e-06
4.87215e-09
5.01956e-06
-4.11557e-10
5.01522e-06
-5.71313e-09
5.00854e-06
-1.08767e-08
5.0031e-06
-1.21826e-08
5.00087e-06
-9.75773e-09
5.001e-06
-6.35198e-09
5.00155e-06
-4.00983e-09
5.00132e-06
-3.64913e-09
5.00035e-06
-4.04252e-09
-4.97602e-09
5.00008e-06
3.99323e-10
5.00032e-06
1.20246e-09
5.00079e-06
2.01446e-09
5.00157e-06
2.85925e-09
5.00275e-06
3.70781e-09
5.00441e-06
4.49293e-09
5.00655e-06
5.05045e-09
5.00909e-06
5.15762e-09
5.01203e-06
4.45547e-09
5.0144e-06
2.51072e-09
5.01414e-06
-1.42343e-10
5.01208e-06
-3.64442e-09
5.00775e-06
-6.54324e-09
5.00348e-06
-7.91684e-09
5.00092e-06
-7.19306e-09
5.00013e-06
-5.55061e-09
5.00011e-06
-3.98222e-09
4.99988e-06
-3.41982e-09
4.99917e-06
-3.34022e-09
-4.17223e-09
5.0001e-06
2.9913e-10
5.00039e-06
9.03932e-10
5.0009e-06
1.50369e-09
5.00167e-06
2.09505e-09
5.00274e-06
2.64985e-09
5.00412e-06
3.10818e-09
5.00579e-06
3.3786e-09
5.00763e-06
3.31255e-09
5.00933e-06
2.75884e-09
5.01026e-06
1.57616e-09
5.01043e-06
-3.0254e-10
5.00903e-06
-2.23509e-09
5.0065e-06
-4.01164e-09
5.00367e-06
-5.08159e-09
5.00154e-06
-5.05689e-09
5.00035e-06
-4.34938e-09
4.99971e-06
-3.34245e-09
4.99917e-06
-2.88987e-09
4.99844e-06
-2.62937e-09
-3.21785e-09
5.0001e-06
1.95962e-10
5.00041e-06
5.93558e-10
5.00092e-06
9.86296e-10
5.00166e-06
1.36266e-09
5.00262e-06
1.69893e-09
5.00378e-06
1.95018e-09
5.00509e-06
2.06202e-09
5.00645e-06
1.95275e-09
5.00764e-06
1.55672e-09
5.00839e-06
8.30939e-10
5.00821e-06
-1.27342e-10
5.00733e-06
-1.3578e-09
5.0057e-06
-2.37594e-09
5.00369e-06
-3.06259e-09
5.0018e-06
-3.16445e-09
5.00034e-06
-2.89369e-09
4.99932e-06
-2.32733e-09
4.99852e-06
-2.10192e-09
4.99772e-06
-1.84104e-09
-2.28207e-09
5.00009e-06
1.12713e-10
5.00038e-06
3.03039e-10
5.00086e-06
4.93301e-10
5.00155e-06
6.77538e-10
5.00241e-06
8.37503e-10
5.00341e-06
9.50573e-10
5.00448e-06
9.922e-10
5.00551e-06
9.30702e-10
5.00633e-06
7.33345e-10
5.00679e-06
3.60344e-10
5.00681e-06
-1.42093e-10
5.00607e-06
-6.28991e-10
5.00479e-06
-1.09143e-09
5.00316e-06
-1.42713e-09
5.00149e-06
-1.49765e-09
5.00002e-06
-1.43549e-09
4.99888e-06
-1.18945e-09
4.99792e-06
-1.1415e-09
4.99707e-06
-9.83287e-10
-1.428e-09
5.00011e-06
5.00042e-06
5.00091e-06
5.00158e-06
5.00241e-06
5.00336e-06
5.00436e-06
5.0053e-06
5.00603e-06
5.00639e-06
5.00625e-06
5.00562e-06
5.00453e-06
5.00311e-06
5.00161e-06
5.00016e-06
4.99898e-06
4.99785e-06
4.99688e-06
)
;

boundaryField
{
    sides
    {
        type            calculated;
        value           uniform 0;
    }
    inlet
    {
        type            calculated;
        value           nonuniform List<scalar> 
20
(
-5e-06
-5e-06
-5e-06
-5e-06
-5e-06
-5e-06
-5e-06
-5e-06
-5e-06
-5e-06
-5e-06
-5e-06
-5e-06
-5e-06
-5e-06
-5e-06
-5e-06
-5e-06
-5e-06
-5e-06
)
;
    }
    outlet
    {
        type            calculated;
        value           nonuniform List<scalar> 
20
(
5.0019e-06
5.00141e-06
5.00152e-06
5.00143e-06
5.00172e-06
5.002e-06
5.00279e-06
5.00423e-06
5.00344e-06
4.99514e-06
4.99474e-06
5.00265e-06
5.00274e-06
5.00063e-06
4.99935e-06
4.99836e-06
4.99748e-06
4.99678e-06
4.99621e-06
4.99545e-06
)
;
    }
    frontAndBack
    {
        type            empty;
        value           nonuniform List<scalar> 0();
    }
}


// ************************************************************************* //
