/*--------------------------------*- C++ -*----------------------------------*\
  =========                 |
  \\      /  F ield         | OpenFOAM: The Open Source CFD Toolbox
   \\    /   O peration     | Website:  https://openfoam.org
    \\  /    A nd           | Version:  9
     \\/     M anipulation  |
\*---------------------------------------------------------------------------*/
FoamFile
{
    format      ascii;
    class       volVectorField;
    location    "96";
    object      ddt0(hU);
}
// * * * * * * * * * * * * * * * * * * * * * * * * * * * * * * * * * * * * * //

dimensions      [0 2 -2 0 0 0 0];

internalField   nonuniform List<vector> 
400
(
(1.08748e-10 1.4381e-10 0)
(1.10719e-10 9.62273e-11 0)
(2.30066e-09 1.23655e-09 0)
(3.48942e-09 5.52031e-10 0)
(9.89519e-10 -2.35871e-09 0)
(-1.52615e-09 -4.16582e-09 0)
(-1.72384e-09 -2.01772e-09 0)
(-1.68874e-09 -1.30014e-09 0)
(-2.09398e-09 5.06978e-10 0)
(-1.67616e-09 -2.18413e-10 0)
(-1.96479e-09 3.37968e-09 0)
(3.22665e-09 2.52943e-09 0)
(1.09172e-09 3.73129e-09 0)
(4.17401e-10 3.82622e-09 0)
(-5.77144e-10 2.03861e-09 0)
(-4.58697e-09 3.12582e-09 0)
(-4.64821e-09 5.42152e-09 0)
(-3.19387e-10 6.17538e-09 0)
(7.01601e-09 5.0362e-09 0)
(1.15064e-08 1.58198e-09 0)
(-2.74537e-10 1.35032e-09 0)
(6.04037e-10 1.42775e-09 0)
(2.34419e-09 2.88363e-09 0)
(2.1276e-09 -5.48766e-10 0)
(-5.93921e-10 -6.83881e-09 0)
(-9.08458e-10 -7.8462e-09 0)
(-1.60675e-09 -1.9774e-09 0)
(1.31585e-10 -1.89203e-09 0)
(-3.54258e-09 2.30242e-09 0)
(-8.59341e-10 1.95968e-09 0)
(-1.26313e-09 6.53903e-09 0)
(8.91929e-10 8.3634e-09 0)
(4.50748e-09 5.14025e-09 0)
(-6.79586e-10 6.33785e-09 0)
(4.47775e-10 3.19926e-09 0)
(7.29736e-10 3.62944e-09 0)
(-1.58532e-09 8.3652e-09 0)
(-2.14628e-09 9.89794e-09 0)
(1.31274e-10 6.9926e-09 0)
(3.37222e-09 2.45725e-09 0)
(-4.15845e-10 2.4151e-09 0)
(2.19411e-10 2.5386e-09 0)
(7.27682e-10 2.05636e-09 0)
(-8.78362e-10 -3.11488e-09 0)
(-9.77239e-10 -6.45669e-09 0)
(2.31284e-10 -1.73787e-09 0)
(6.08092e-10 -9.41453e-10 0)
(-2.27714e-11 1.2931e-10 0)
(6.15611e-10 -9.73165e-10 0)
(-2.72012e-09 4.54077e-09 0)
(4.89884e-09 5.63324e-10 0)
(-1.99863e-09 5.40308e-09 0)
(1.72283e-09 2.34539e-09 0)
(2.01324e-09 3.44416e-10 0)
(-1.34035e-09 9.8831e-10 0)
(3.32175e-09 4.45884e-11 0)
(2.37247e-09 2.40776e-09 0)
(-4.45417e-09 4.92902e-09 0)
(-6.08993e-09 4.54064e-09 0)
(-2.10773e-09 2.00634e-09 0)
(-5.0217e-10 1.31627e-09 0)
(-4.90113e-10 1.42e-09 0)
(-1.1809e-09 2.11574e-13 0)
(-2.0987e-09 -2.8041e-09 0)
(4.89718e-10 7.73255e-10 0)
(3.86586e-10 3.46566e-09 0)
(2.26034e-09 -1.41646e-09 0)
(-1.87076e-09 -9.19301e-10 0)
(4.01598e-09 -1.83646e-09 0)
(-3.03231e-10 -4.4585e-09 0)
(-4.67121e-09 5.67623e-09 0)
(6.5851e-09 -5.42463e-09 0)
(-3.8215e-09 -8.55842e-10 0)
(3.2386e-10 -1.28077e-09 0)
(8.5159e-10 -2.42501e-09 0)
(8.95571e-10 -2.29899e-09 0)
(3.12618e-09 -2.73184e-09 0)
(-2.6685e-10 -1.48361e-09 0)
(-5.74046e-09 8.12197e-10 0)
(-6.21716e-09 6.47287e-10 0)
(-1.63516e-10 -1.22302e-09 0)
(-4.7756e-10 -1.31197e-10 0)
(-1.79806e-09 -4.8327e-10 0)
(-9.39815e-10 9.88685e-10 0)
(1.91044e-10 4.87499e-09 0)
(1.05805e-09 2.1268e-09 0)
(-1.66694e-09 -7.25889e-10 0)
(3.93083e-09 -1.69504e-09 0)
(-5.25683e-09 1.10212e-09 0)
(1.18675e-08 -5.98018e-09 0)
(1.07318e-09 9.09144e-10 0)
(-1.31289e-08 7.80085e-09 0)
(8.56146e-09 -7.16673e-09 0)
(-3.55027e-09 -2.70238e-09 0)
(-4.43522e-09 -1.1118e-09 0)
(6.25327e-10 -2.62532e-09 0)
(2.08811e-09 -4.92969e-09 0)
(1.39705e-09 -6.5124e-09 0)
(-2.10823e-09 -4.90838e-09 0)
(-3.49758e-09 -1.72929e-09 0)
(1.40525e-09 -2.68828e-09 0)
(8.01887e-10 -6.60225e-10 0)
(-6.04657e-10 6.9047e-10 0)
(-8.48248e-10 2.83502e-09 0)
(5.5913e-11 2.50372e-09 0)
(-1.50389e-09 1.31871e-11 0)
(7.69619e-10 -4.02042e-10 0)
(-1.14252e-09 3.47742e-09 0)
(8.42142e-09 -6.4785e-09 0)
(-1.67104e-08 2.4788e-08 0)
(2.78907e-08 -3.40484e-08 0)
(-1.58232e-08 5.23946e-09 0)
(-1.81061e-08 8.9574e-09 0)
(9.34155e-09 -3.67028e-09 0)
(-1.02672e-09 -5.3154e-10 0)
(-5.34535e-09 -2.8735e-11 0)
(-1.58426e-09 -2.59561e-09 0)
(5.96246e-10 -4.46736e-09 0)
(-2.11961e-10 -3.85679e-09 0)
(9.72974e-11 -1.52081e-09 0)
(2.89174e-09 -1.71485e-09 0)
(2.44082e-09 -6.90266e-11 0)
(1.38412e-10 8.96808e-10 0)
(-9.09257e-10 8.67933e-10 0)
(-1.72606e-09 -1.04527e-09 0)
(-8.89676e-10 -9.43321e-10 0)
(5.11635e-10 1.42956e-09 0)
(-4.11637e-10 1.62071e-09 0)
(1.36577e-08 7.41095e-09 0)
(-1.45037e-08 6.27746e-10 0)
(-5.59444e-08 1.77778e-08 0)
(6.81845e-08 -2.98395e-08 0)
(-1.05698e-08 8.45551e-09 0)
(-1.5047e-08 5.82961e-09 0)
(1.73378e-09 3.84709e-10 0)
(-1.99913e-09 2.12044e-09 0)
(-2.93358e-09 1.73986e-09 0)
(-1.22796e-09 1.122e-09 0)
(-1.26257e-09 3.88116e-10 0)
(7.64129e-14 3.4e-10 0)
(3.12778e-09 2.98257e-10 0)
(2.91191e-09 4.33248e-10 0)
(3.2569e-10 -3.56992e-10 0)
(-1.84658e-09 -1.35454e-09 0)
(-1.35811e-09 -2.27707e-09 0)
(-8.74631e-10 -8.31248e-10 0)
(1.55652e-09 2.91302e-09 0)
(5.55264e-09 2.06553e-09 0)
(-9.37418e-09 2.70543e-09 0)
(5.6066e-08 -1.53925e-08 0)
(2.90699e-07 4.42534e-09 0)
(-1.52978e-08 1.64152e-08 0)
(4.04656e-08 -1.56635e-08 0)
(-6.7632e-10 -3.67572e-09 0)
(-4.87882e-09 7.02889e-10 0)
(-2.33554e-09 2.71647e-09 0)
(-1.66301e-09 4.53734e-09 0)
(-1.59526e-09 3.36799e-09 0)
(-2.79605e-09 1.99149e-09 0)
(-1.84936e-09 1.19315e-09 0)
(2.08342e-09 1.69952e-09 0)
(2.19214e-09 -6.24616e-11 0)
(-5.85424e-11 -1.96395e-09 0)
(-1.72004e-09 -1.51113e-09 0)
(-1.67692e-09 -1.39466e-09 0)
(1.15795e-09 3.53621e-10 0)
(1.88892e-09 2.99066e-09 0)
(-2.42493e-09 1.41131e-09 0)
(1.24013e-08 -3.71762e-09 0)
(-6.29377e-08 -1.95457e-08 0)
(-2.83634e-07 5.31476e-09 0)
(2.23714e-08 7.91433e-09 0)
(-3.67733e-08 -1.9355e-08 0)
(9.24024e-09 -7.95983e-09 0)
(9.70321e-09 -1.82571e-09 0)
(3.24681e-09 5.55561e-10 0)
(1.81007e-09 2.49286e-09 0)
(-2.96471e-09 2.4417e-09 0)
(-2.54331e-09 1.16606e-09 0)
(6.72221e-10 -3.72892e-10 0)
(6.44842e-10 1.78785e-09 0)
(5.46668e-10 -8.81727e-10 0)
(-1.00017e-10 -2.96988e-09 0)
(-1.24939e-09 -2.43112e-10 0)
(-3.73976e-10 9.34883e-10 0)
(9.90303e-10 1.0889e-09 0)
(1.41549e-09 3.01944e-09 0)
(2.70125e-10 -4.23771e-09 0)
(-1.52504e-08 -1.6238e-09 0)
(1.82285e-08 -1.65605e-08 0)
(2.98159e-08 3.96912e-08 0)
(-6.98999e-08 -2.86219e-08 0)
(1.71151e-08 3.76464e-09 0)
(1.97027e-08 8.60732e-10 0)
(6.40767e-09 -2.96337e-09 0)
(4.81193e-09 -1.30787e-09 0)
(-1.04916e-09 -9.11155e-10 0)
(-1.57868e-09 -4.75087e-10 0)
(-1.73714e-09 -1.14858e-09 0)
(-1.99704e-09 -1.26012e-09 0)
(-4.01575e-10 1.25924e-09 0)
(-1.04742e-09 -8.5256e-10 0)
(3.02442e-10 -2.44123e-09 0)
(1.53947e-10 1.89876e-10 0)
(1.86905e-10 3.08301e-09 0)
(1.49189e-09 1.32418e-09 0)
(-1.79293e-09 1.67781e-11 0)
(-2.10191e-09 1.79096e-10 0)
(-1.7213e-08 -1.53672e-08 0)
(2.94775e-08 2.95802e-08 0)
(3.15791e-08 -1.27161e-07 0)
(-3.87972e-08 2.83814e-08 0)
(8.3129e-09 8.59742e-09 0)
(-3.77822e-09 -4.87663e-09 0)
(5.90876e-09 -3.67739e-09 0)
(7.57794e-09 -1.45331e-09 0)
(3.11422e-10 -2.55072e-09 0)
(-2.78034e-09 -3.07056e-09 0)
(-8.36236e-11 -2.50722e-09 0)
(3.25289e-09 -4.41486e-10 0)
(-1.17898e-09 7.5246e-10 0)
(-1.90902e-09 3.73788e-10 0)
(2.33097e-10 -6.44785e-10 0)
(1.54498e-09 -2.36932e-10 0)
(8.47982e-10 2.17864e-09 0)
(5.77216e-10 6.90275e-10 0)
(-6.34798e-11 -2.927e-09 0)
(-9.87442e-09 8.39966e-10 0)
(1.94781e-08 1.22346e-08 0)
(-1.54612e-07 -2.31974e-09 0)
(-2.01313e-07 9.3898e-08 0)
(1.33421e-07 -1.19624e-08 0)
(-4.4622e-08 4.85741e-09 0)
(2.9476e-10 7.65629e-09 0)
(9.16684e-09 4.19924e-09 0)
(4.62114e-09 -1.62743e-09 0)
(-2.55298e-09 -3.91878e-09 0)
(-2.52184e-09 -2.51826e-09 0)
(1.87789e-09 -2.44724e-10 0)
(4.86301e-09 6.9497e-10 0)
(-1.27901e-09 5.47295e-10 0)
(-1.94939e-09 1.35357e-09 0)
(-2.36719e-10 1.70217e-09 0)
(1.49725e-09 -7.80358e-10 0)
(1.00962e-09 -1.08585e-09 0)
(2.49155e-10 -1.2771e-09 0)
(-2.90039e-11 -4.44126e-09 0)
(5.17663e-09 -2.20075e-10 0)
(-2.11706e-08 1.59431e-08 0)
(1.54821e-07 4.33458e-09 0)
(1.64828e-07 8.53802e-08 0)
(-1.35069e-07 -1.27824e-08 0)
(4.17637e-08 1.33254e-08 0)
(9.70649e-10 1.27164e-08 0)
(-4.62515e-09 6.86018e-09 0)
(-4.85659e-09 -5.5533e-10 0)
(-3.84666e-09 -1.58204e-09 0)
(-2.63468e-10 1.0042e-09 0)
(4.32272e-09 3.98265e-09 0)
(3.83769e-09 2.49233e-09 0)
(-1.19028e-09 9.50817e-10 0)
(-1.43828e-09 1.0373e-09 0)
(-1.33958e-09 2.34433e-09 0)
(3.50092e-10 5.25833e-12 0)
(5.11572e-10 -3.88822e-09 0)
(4.3421e-10 -2.65651e-09 0)
(1.72007e-09 -4.34028e-09 0)
(4.51459e-09 -2.27276e-09 0)
(1.21513e-08 -3.38428e-09 0)
(-3.33258e-08 1.88542e-08 0)
(-1.65554e-08 -1.06357e-07 0)
(6.51326e-08 3.01798e-08 0)
(2.40841e-09 4.99721e-09 0)
(-1.80601e-09 1.65979e-09 0)
(-4.72075e-09 4.80021e-10 0)
(-6.94874e-09 -9.42431e-10 0)
(-2.5744e-09 1.05092e-09 0)
(2.73062e-09 4.29549e-09 0)
(4.06286e-09 5.43123e-09 0)
(-9.83368e-10 2.47422e-09 0)
(-1.38921e-09 1.59106e-09 0)
(-1.73913e-09 -3.52683e-10 0)
(-1.75358e-09 9.96162e-11 0)
(-1.22304e-09 9.30334e-10 0)
(6.33364e-11 -1.87792e-09 0)
(-3.63168e-10 -3.03262e-09 0)
(1.69716e-09 -7.69111e-10 0)
(3.79679e-09 -5.49802e-09 0)
(3.4006e-09 -5.93332e-09 0)
(2.70761e-09 -1.26661e-08 0)
(1.30818e-08 3.77798e-08 0)
(-4.03375e-09 1.89776e-09 0)
(-2.948e-09 -1.75376e-09 0)
(-4.81894e-09 -1.12081e-09 0)
(-7.85176e-09 -3.35456e-09 0)
(-4.85444e-09 -1.8983e-09 0)
(2.04021e-09 1.78772e-09 0)
(4.5574e-09 3.01275e-09 0)
(1.17078e-09 1.18631e-09 0)
(-4.88349e-09 -3.27959e-11 0)
(-2.54417e-09 1.20271e-09 0)
(-3.23926e-09 -1.51113e-09 0)
(-1.45752e-09 -2.67386e-09 0)
(-6.58767e-10 -9.39988e-11 0)
(-2.07657e-10 2.48511e-09 0)
(-5.88827e-10 4.36277e-10 0)
(-1.04022e-10 1.85627e-09 0)
(9.40137e-10 -1.29956e-09 0)
(3.20664e-09 -6.63539e-09 0)
(3.19032e-09 -6.35137e-09 0)
(-1.68408e-09 -8.65535e-09 0)
(-3.38355e-09 -8.27789e-09 0)
(-3.52926e-09 -5.91919e-09 0)
(-6.99078e-09 -5.14587e-09 0)
(-7.42724e-09 -3.91481e-09 0)
(-2.58858e-12 -4.12696e-10 0)
(4.26205e-09 7.84967e-10 0)
(2.29613e-09 -1.5488e-09 0)
(-1.03607e-09 -3.87874e-09 0)
(-3.54944e-09 -2.18756e-09 0)
(-3.5645e-09 -1.45417e-09 0)
(-4.461e-09 -1.27655e-09 0)
(-8.505e-10 -1.96462e-09 0)
(1.4407e-09 -1.24498e-09 0)
(7.99747e-10 3.29653e-09 0)
(-6.14547e-10 4.74386e-09 0)
(-1.9344e-09 3.31004e-09 0)
(-3.07762e-10 3.45275e-09 0)
(1.36809e-10 -1.48102e-09 0)
(2.25605e-09 -3.34577e-09 0)
(-6.83577e-10 -6.35176e-09 0)
(-1.85016e-09 -6.29752e-09 0)
(-3.22408e-09 -6.22045e-09 0)
(-6.45289e-09 -4.97458e-09 0)
(-2.24995e-09 -8.3948e-10 0)
(2.57701e-09 7.82633e-10 0)
(1.76732e-09 -1.90186e-09 0)
(-8.70465e-12 -4.34747e-09 0)
(4.02133e-10 -3.94628e-09 0)
(9.60377e-10 -1.52473e-09 0)
(-2.77622e-09 -5.32976e-09 0)
(-2.65081e-09 -3.06778e-10 0)
(2.02545e-11 2.37023e-09 0)
(2.55379e-09 4.08881e-10 0)
(2.12758e-09 3.41622e-12 0)
(-2.04843e-10 3.22543e-09 0)
(-1.87621e-09 3.52251e-09 0)
(-1.63449e-09 4.32398e-09 0)
(7.78805e-11 3.26745e-09 0)
(2.0692e-09 1.57971e-09 0)
(1.14587e-09 -1.66173e-09 0)
(-4.99052e-10 -2.25937e-09 0)
(-2.8415e-09 -3.06286e-09 0)
(-2.40846e-09 -9.13112e-10 0)
(-1.09647e-10 2.679e-09 0)
(-2.82129e-11 1.80184e-09 0)
(-5.47286e-10 -1.57481e-09 0)
(8.95168e-10 -1.43271e-09 0)
(2.80937e-09 1.34462e-09 0)
(2.6545e-09 1.26557e-09 0)
(4.68668e-10 -7.01305e-09 0)
(2.33363e-09 -2.5776e-10 0)
(1.2904e-09 4.92688e-09 0)
(1.18288e-09 3.04822e-09 0)
(1.23082e-09 -2.2195e-09 0)
(4.8626e-10 -1.10816e-09 0)
(-1.02537e-09 1.30985e-09 0)
(-1.68522e-09 2.9056e-09 0)
(-5.479e-10 3.59532e-09 0)
(7.66998e-11 2.24647e-09 0)
(5.3579e-10 5.48308e-10 0)
(4.69579e-10 6.25737e-11 0)
(-2.36398e-10 4.01633e-10 0)
(9.95833e-10 1.98674e-09 0)
(9.42822e-10 3.99482e-09 0)
(5.02851e-11 3.53834e-09 0)
(1.55414e-09 1.48886e-09 0)
(3.26029e-09 2.33524e-09 0)
(1.27081e-09 4.59125e-09 0)
(-2.32388e-09 2.61383e-09 0)
(3.60075e-09 -3.38973e-09 0)
(6.76853e-09 -3.45735e-10 0)
(2.74623e-09 2.42166e-09 0)
(-3.31542e-10 1.95711e-09 0)
(-3.30535e-10 -1.06081e-09 0)
(6.77013e-10 -1.28429e-09 0)
(-1.80648e-10 -1.27871e-10 0)
(-1.51882e-09 9.0971e-10 0)
(-1.84405e-09 1.182e-09 0)
(-9.28933e-10 7.64411e-10 0)
(-3.64661e-10 7.55852e-10 0)
(3.11861e-10 5.34822e-10 0)
(9.76833e-10 8.8849e-10 0)
(2.56277e-09 1.29282e-09 0)
(2.27931e-09 2.06742e-09 0)
(1.00817e-09 2.12387e-09 0)
(2.67169e-09 1.37194e-09 0)
(2.97097e-09 1.45354e-09 0)
(-2.17143e-09 2.07347e-09 0)
(-7.27928e-09 1.157e-09 0)
)
;

boundaryField
{
    sides
    {
        type            calculated;
        value           nonuniform List<vector> 
40
(
(3.60075e-09 0 0)
(6.76853e-09 0 0)
(2.74623e-09 0 0)
(-3.31542e-10 0 0)
(-3.30535e-10 0 0)
(6.77013e-10 0 0)
(-1.80648e-10 0 0)
(-1.51882e-09 0 0)
(-1.84405e-09 0 0)
(-9.28933e-10 0 0)
(-3.64661e-10 0 0)
(3.11861e-10 0 0)
(9.76833e-10 0 0)
(2.56277e-09 0 0)
(2.27931e-09 0 0)
(1.00817e-09 0 0)
(2.67169e-09 0 0)
(2.97097e-09 0 0)
(-2.17143e-09 0 0)
(-7.27928e-09 0 0)
(1.08748e-10 0 0)
(1.10719e-10 0 0)
(2.30066e-09 0 0)
(3.48942e-09 0 0)
(9.89519e-10 0 0)
(-1.52615e-09 0 0)
(-1.72384e-09 0 0)
(-1.68874e-09 0 0)
(-2.09398e-09 0 0)
(-1.67616e-09 0 0)
(-1.96479e-09 0 0)
(3.22665e-09 0 0)
(1.09172e-09 0 0)
(4.17401e-10 0 0)
(-5.77144e-10 0 0)
(-4.58697e-09 0 0)
(-4.64821e-09 0 0)
(-3.19387e-10 0 0)
(7.01601e-09 0 0)
(1.15064e-08 0 0)
)
;
    }
    inlet
    {
        type            calculated;
        value           uniform (0 0 0);
    }
    outlet
    {
        type            calculated;
        value           nonuniform List<vector> 
20
(
(1.15064e-08 1.58198e-09 0)
(3.37222e-09 2.45725e-09 0)
(-2.10773e-09 2.00634e-09 0)
(-6.21716e-09 6.47287e-10 0)
(-3.49758e-09 -1.72929e-09 0)
(9.72974e-11 -1.52081e-09 0)
(7.64129e-14 3.4e-10 0)
(-1.84936e-09 1.19315e-09 0)
(6.72221e-10 -3.72892e-10 0)
(-1.99704e-09 -1.26012e-09 0)
(3.25289e-09 -4.41486e-10 0)
(4.86301e-09 6.9497e-10 0)
(3.83769e-09 2.49233e-09 0)
(-9.83368e-10 2.47422e-09 0)
(-4.88349e-09 -3.27959e-11 0)
(-3.54944e-09 -2.18756e-09 0)
(9.60377e-10 -1.52473e-09 0)
(2.6545e-09 1.26557e-09 0)
(-2.32388e-09 2.61383e-09 0)
(-7.27928e-09 1.157e-09 0)
)
;
    }
    frontAndBack
    {
        type            empty;
    }
}


// ************************************************************************* //
