/*--------------------------------*- C++ -*----------------------------------*\
  =========                 |
  \\      /  F ield         | OpenFOAM: The Open Source CFD Toolbox
   \\    /   O peration     | Website:  https://openfoam.org
    \\  /    A nd           | Version:  9
     \\/     M anipulation  |
\*---------------------------------------------------------------------------*/
FoamFile
{
    format      ascii;
    class       volScalarField;
    location    "35";
    object      ddt0(h);
}
// * * * * * * * * * * * * * * * * * * * * * * * * * * * * * * * * * * * * * //

dimensions      [0 1 -1 0 0 0 0];

internalField   nonuniform List<scalar> 
400
(
3.25887e-07
3.38294e-07
2.71797e-07
9.01149e-08
-1.29195e-07
-3.55642e-07
-5.37417e-07
-6.17821e-07
-6.1586e-07
-5.06689e-07
-3.65262e-07
-2.23631e-07
-1.19137e-07
-3.83288e-08
1.73142e-08
3.18085e-08
1.64291e-08
-1.25037e-09
4.91832e-09
8.03135e-09
2.5831e-07
2.81717e-07
2.18855e-07
5.9425e-08
-1.37993e-07
-3.47876e-07
-5.02175e-07
-5.78079e-07
-5.55723e-07
-4.76869e-07
-3.23452e-07
-2.11757e-07
-8.39325e-08
-5.76439e-09
2.77529e-08
4.49288e-08
3.03468e-08
5.98687e-09
-4.05265e-10
-1.28916e-09
1.66736e-07
1.94427e-07
1.37329e-07
1.74199e-08
-1.45268e-07
-3.1782e-07
-4.25107e-07
-4.9739e-07
-4.59283e-07
-3.93343e-07
-2.70768e-07
-1.17618e-07
-4.44411e-08
3.97933e-08
6.35368e-08
5.52356e-08
4.1179e-08
3.20498e-08
3.41455e-08
2.036e-08
5.79107e-08
7.83033e-08
3.5601e-08
-4.00113e-08
-1.61152e-07
-2.53501e-07
-3.52667e-07
-3.68715e-07
-4.12917e-07
-2.36038e-07
-2.33634e-07
-4.0492e-08
7.61387e-08
6.22762e-08
9.39844e-08
8.42697e-08
6.17816e-08
5.94974e-08
5.35557e-08
2.31305e-08
-5.298e-08
-5.39996e-08
-7.47389e-08
-1.09563e-07
-1.44606e-07
-2.01208e-07
-2.29525e-07
-3.23032e-07
-2.36953e-07
-2.01855e-07
8.67502e-08
-4.64293e-08
1.84405e-07
2.10116e-07
1.26267e-07
1.02179e-07
9.65653e-08
9.43302e-08
7.62907e-08
3.1056e-08
-1.62675e-07
-1.79901e-07
-1.87594e-07
-1.4971e-07
-1.32269e-07
-1.18451e-07
-1.68933e-07
-2.25149e-07
-1.34909e-08
-1.81104e-07
1.14959e-07
2.32208e-07
1.12358e-07
2.76433e-07
2.55462e-07
1.60205e-07
1.21239e-07
1.06175e-07
5.9799e-08
1.31883e-08
-2.68437e-07
-2.91237e-07
-2.66119e-07
-1.80974e-07
-9.7558e-08
-7.16018e-08
-1.10031e-07
-3.8845e-09
-9.62567e-08
3.22355e-07
-3.82754e-07
2.89839e-07
3.34803e-07
2.70753e-07
2.81035e-07
2.21074e-07
1.01341e-07
1.16963e-07
5.00316e-08
4.14474e-09
-3.64787e-07
-3.72963e-07
-3.16294e-07
-1.88662e-07
-8.90353e-08
-1.42322e-08
1.65209e-08
2.5029e-08
1.70955e-07
-1.07809e-07
-8.5786e-07
-1.32679e-07
2.86668e-07
3.51055e-07
3.00698e-07
2.57556e-07
2.66118e-07
1.48312e-07
6.53848e-08
1.1465e-08
-4.38563e-07
-4.24595e-07
-3.37026e-07
-2.03227e-07
-7.10844e-08
2.78562e-08
1.18455e-07
1.28877e-07
-1.63655e-08
3.04007e-07
1.20455e-06
5.62728e-07
2.92161e-07
2.86129e-07
2.62763e-07
2.57586e-07
2.40114e-07
1.79126e-07
9.65114e-08
2.65316e-08
-4.77657e-07
-4.47251e-07
-3.51221e-07
-2.08347e-07
-6.85579e-08
7.20034e-08
1.81025e-07
1.14445e-07
2.18744e-07
-1.50171e-07
4.9279e-07
9.56178e-08
1.91628e-07
3.02684e-07
2.66536e-07
2.6586e-07
2.4912e-07
1.97251e-07
1.26797e-07
4.61544e-08
-4.76964e-07
-4.46735e-07
-3.57762e-07
-2.17644e-07
-5.60505e-08
6.24796e-08
1.70886e-07
2.29679e-07
6.27141e-08
1.25891e-07
4.06356e-07
-5.93005e-08
3.06855e-07
2.20142e-07
2.83005e-07
3.01253e-07
2.53585e-07
1.90644e-07
1.30408e-07
5.26953e-08
-4.39504e-07
-4.24613e-07
-3.49264e-07
-2.21452e-07
-6.42838e-08
5.00678e-08
9.89021e-08
1.89446e-07
1.73769e-07
-2.59449e-07
-1.95501e-06
3.8114e-07
9.02919e-08
2.52974e-07
3.24114e-07
2.84581e-07
2.35478e-07
1.68893e-07
1.16779e-07
4.99876e-08
-3.70232e-07
-3.7469e-07
-3.22661e-07
-2.07715e-07
-8.02377e-08
1.20513e-08
4.05381e-08
3.84698e-08
4.53124e-08
5.21779e-07
1.78991e-06
1.34418e-07
3.8487e-07
3.38237e-07
3.09278e-07
2.55551e-07
2.07892e-07
1.41216e-07
9.13033e-08
3.51784e-08
-2.69572e-07
-2.9353e-07
-2.65882e-07
-1.79465e-07
-9.12695e-08
-5.57485e-08
-3.91138e-08
-7.62285e-08
-4.17495e-09
5.14583e-08
1.91502e-07
3.61475e-07
3.06747e-07
3.34925e-07
2.70689e-07
2.16964e-07
1.66333e-07
1.163e-07
5.78574e-08
1.08756e-08
-1.49576e-07
-1.72512e-07
-1.81013e-07
-1.36459e-07
-1.07213e-07
-1.20997e-07
-1.54968e-07
-1.28057e-07
-1.60606e-07
-2.5529e-08
1.10907e-07
1.56139e-07
2.35024e-07
2.32361e-07
2.32149e-07
1.91708e-07
1.36051e-07
1.03718e-07
5.58392e-08
1.18331e-08
-2.15099e-08
-2.03263e-08
-6.45926e-08
-9.26023e-08
-1.14959e-07
-1.88276e-07
-2.40869e-07
-2.61088e-07
-2.21988e-07
-1.73077e-07
-9.81128e-08
6.52793e-08
1.14575e-07
1.79673e-07
1.81779e-07
1.42771e-07
1.04468e-07
9.3545e-08
6.95955e-08
2.48574e-08
1.03219e-07
1.35769e-07
7.21469e-08
-3.29877e-08
-1.31096e-07
-2.33253e-07
-3.34332e-07
-3.58803e-07
-3.35266e-07
-2.69265e-07
-1.40202e-07
-3.73987e-08
6.75521e-08
1.09782e-07
1.19424e-07
9.64089e-08
7.0116e-08
7.49984e-08
7.58777e-08
3.37203e-08
2.13435e-07
2.59543e-07
2.05411e-07
4.3002e-08
-1.31006e-07
-2.77902e-07
-3.9714e-07
-4.568e-07
-4.42891e-07
-3.56079e-07
-2.3955e-07
-1.15703e-07
-1.23653e-08
4.09659e-08
6.81431e-08
6.26691e-08
4.85156e-08
5.09331e-08
5.83455e-08
2.9301e-08
3.02789e-07
3.34202e-07
2.97527e-07
1.30527e-07
-9.47222e-08
-3.04239e-07
-4.4805e-07
-5.27454e-07
-5.27759e-07
-4.39553e-07
-3.12151e-07
-1.72531e-07
-7.50727e-08
-6.75227e-09
3.31911e-08
5.33316e-08
4.34707e-08
1.54076e-08
8.57319e-09
7.15016e-09
3.50754e-07
3.65931e-07
3.28975e-07
1.82626e-07
-6.40699e-08
-3.11751e-07
-4.91995e-07
-5.75054e-07
-5.84311e-07
-5.02195e-07
-3.67553e-07
-2.27639e-07
-1.224e-07
-3.98149e-08
2.01593e-08
5.18305e-08
3.56846e-08
-1.75918e-08
-4.16012e-08
-1.884e-08
)
;

boundaryField
{
    sides
    {
        type            calculated;
        value           nonuniform List<scalar> 
40
(
3.50754e-07
3.65931e-07
3.28975e-07
1.82626e-07
-6.40699e-08
-3.11751e-07
-4.91995e-07
-5.75054e-07
-5.84311e-07
-5.02195e-07
-3.67553e-07
-2.27639e-07
-1.224e-07
-3.98149e-08
2.01593e-08
5.18305e-08
3.56846e-08
-1.75918e-08
-4.16012e-08
-1.884e-08
3.25887e-07
3.38294e-07
2.71797e-07
9.01149e-08
-1.29195e-07
-3.55642e-07
-5.37417e-07
-6.17821e-07
-6.1586e-07
-5.06689e-07
-3.65262e-07
-2.23631e-07
-1.19137e-07
-3.83288e-08
1.73142e-08
3.18085e-08
1.64291e-08
-1.25037e-09
4.91832e-09
8.03135e-09
)
;
    }
    inlet
    {
        type            calculated;
        value           nonuniform List<scalar> 
20
(
3.25887e-07
2.5831e-07
1.66736e-07
5.79107e-08
-5.298e-08
-1.62675e-07
-2.68437e-07
-3.64787e-07
-4.38563e-07
-4.77657e-07
-4.76964e-07
-4.39504e-07
-3.70232e-07
-2.69572e-07
-1.49576e-07
-2.15099e-08
1.03219e-07
2.13435e-07
3.02789e-07
3.50754e-07
)
;
    }
    outlet
    {
        type            calculated;
        value           uniform 0;
    }
    frontAndBack
    {
        type            empty;
    }
}


// ************************************************************************* //
