/*--------------------------------*- C++ -*----------------------------------*\
  =========                 |
  \\      /  F ield         | OpenFOAM: The Open Source CFD Toolbox
   \\    /   O peration     | Website:  https://openfoam.org
    \\  /    A nd           | Version:  9
     \\/     M anipulation  |
\*---------------------------------------------------------------------------*/
FoamFile
{
    format      ascii;
    class       volVectorField;
    location    "35";
    object      ddtCorrDdt0(hU);
}
// * * * * * * * * * * * * * * * * * * * * * * * * * * * * * * * * * * * * * //

dimensions      [0 2 -2 0 0 0 0];

internalField   nonuniform List<vector> 
400
(
(1.39092e-08 8.68805e-09 0)
(-4.62596e-08 6.87034e-09 0)
(-6.23654e-08 9.7157e-09 0)
(-5.59617e-08 1.09854e-08 0)
(-3.10061e-08 7.90839e-09 0)
(1.68476e-08 7.20744e-09 0)
(5.54097e-08 1.59993e-08 0)
(5.93946e-08 2.40138e-08 0)
(3.82445e-08 2.28453e-08 0)
(2.38493e-08 3.85478e-09 0)
(2.60139e-08 -1.12589e-08 0)
(3.70468e-08 -6.71261e-09 0)
(2.17164e-08 1.18415e-09 0)
(-1.86645e-08 6.69878e-09 0)
(-4.67936e-08 -2.40272e-09 0)
(-4.59635e-08 -1.50468e-08 0)
(-1.90311e-08 -1.59563e-08 0)
(2.01341e-11 -8.11225e-09 0)
(-3.30057e-08 -4.08726e-09 0)
(-6.6373e-08 -1.55173e-09 0)
(9.38617e-09 2.45355e-08 0)
(-4.2829e-08 2.27255e-08 0)
(-5.53299e-08 2.94525e-08 0)
(-4.90497e-08 3.35427e-08 0)
(-2.63818e-08 2.48332e-08 0)
(1.80647e-08 2.10511e-08 0)
(5.34942e-08 3.61056e-08 0)
(5.76186e-08 5.78222e-08 0)
(3.91453e-08 5.14292e-08 0)
(1.95675e-08 1.23046e-08 0)
(2.59661e-08 -2.8006e-08 0)
(2.89896e-08 -1.87686e-08 0)
(1.72085e-08 1.32816e-08 0)
(-1.3099e-08 2.24822e-08 0)
(-4.25747e-08 -2.91805e-09 0)
(-4.26382e-08 -3.83437e-08 0)
(-2.51547e-08 -4.61471e-08 0)
(-1.61327e-08 1.62786e-09 0)
(-3.21505e-08 4.44358e-08 0)
(-5.0971e-08 1.64427e-08 0)
(4.43969e-09 3.44568e-08 0)
(-3.78862e-08 3.68849e-08 0)
(-4.48087e-08 4.60984e-08 0)
(-3.90711e-08 5.00242e-08 0)
(-2.01526e-08 3.65572e-08 0)
(1.59798e-08 2.83858e-08 0)
(4.72676e-08 4.77458e-08 0)
(5.10107e-08 8.19525e-08 0)
(4.31398e-08 7.39932e-08 0)
(2.69109e-08 1.61379e-08 0)
(2.47344e-08 -3.2974e-08 0)
(3.21959e-08 -3.44464e-08 0)
(1.07441e-08 2.51213e-08 0)
(-1.70052e-08 4.131e-08 0)
(-3.82867e-08 1.24577e-09 0)
(-3.72822e-08 -5.15421e-08 0)
(-1.03892e-08 -6.5064e-08 0)
(9.01219e-09 -6.75401e-09 0)
(-2.3957e-08 4.62193e-08 0)
(-5.83339e-08 1.91329e-08 0)
(4.58265e-11 3.71152e-08 0)
(-2.95864e-08 4.44102e-08 0)
(-3.11864e-08 5.62352e-08 0)
(-2.70277e-08 5.91789e-08 0)
(-1.35488e-08 4.09765e-08 0)
(1.72195e-08 2.79507e-08 0)
(4.04886e-08 5.62402e-08 0)
(5.06675e-08 9.72969e-08 0)
(3.64843e-08 1.0127e-07 0)
(4.15422e-08 1.12035e-08 0)
(1.68967e-08 -5.32802e-08 0)
(2.05578e-08 -3.70567e-08 0)
(1.88715e-08 2.15769e-08 0)
(-1.77385e-08 5.59378e-08 0)
(-3.12352e-08 8.62989e-09 0)
(-2.82824e-08 -6.32899e-08 0)
(-2.38401e-08 -8.06821e-08 0)
(-2.49192e-08 -6.22487e-09 0)
(-2.21698e-08 6.00283e-08 0)
(-2.48233e-08 2.52109e-08 0)
(-2.92504e-09 3.55021e-08 0)
(-1.87382e-08 4.64946e-08 0)
(-1.34993e-08 6.03272e-08 0)
(-1.35303e-08 6.26657e-08 0)
(-5.85226e-09 3.87263e-08 0)
(1.38848e-08 2.36847e-08 0)
(3.27765e-08 5.39969e-08 0)
(4.57294e-08 1.11561e-07 0)
(4.267e-08 9.23513e-08 0)
(2.3194e-08 2.29129e-08 0)
(5.28759e-08 -7.26934e-08 0)
(1.02535e-08 -3.97464e-08 0)
(1.37095e-08 1.53515e-08 0)
(4.30884e-09 4.44623e-08 0)
(-2.79052e-08 8.67227e-09 0)
(-2.69636e-08 -6.19872e-08 0)
(-8.45394e-09 -8.4432e-08 0)
(-3.77172e-11 2.28345e-10 0)
(-1.48679e-08 8.38046e-08 0)
(-2.9687e-08 3.49054e-08 0)
(-5.98009e-09 3.18591e-08 0)
(-6.0955e-09 4.46188e-08 0)
(4.5199e-09 5.72598e-08 0)
(1.98933e-10 5.60861e-08 0)
(-3.30728e-11 2.98924e-08 0)
(1.30371e-08 1.43247e-08 0)
(3.15458e-08 5.10691e-08 0)
(2.86004e-08 1.06293e-07 0)
(5.63436e-08 8.39775e-08 0)
(2.96198e-08 1.41124e-08 0)
(3.49694e-08 -5.44805e-08 0)
(2.32714e-08 -7.6355e-08 0)
(-1.8663e-08 2.91215e-08 0)
(1.44032e-08 4.66788e-08 0)
(1.36735e-08 -1.20298e-09 0)
(-7.68181e-09 -6.28178e-08 0)
(-2.26637e-08 -7.86529e-08 0)
(-2.96854e-08 -8.99837e-09 0)
(-1.39906e-08 6.59068e-08 0)
(-6.47819e-09 3.19531e-08 0)
(-9.28574e-09 2.72346e-08 0)
(4.93635e-09 3.90758e-08 0)
(2.08116e-08 4.73849e-08 0)
(1.22963e-08 4.27232e-08 0)
(5.83469e-09 1.92136e-08 0)
(1.3722e-08 8.23477e-09 0)
(2.07475e-08 3.98289e-08 0)
(3.50263e-08 7.41637e-08 0)
(3.27601e-08 7.33222e-08 0)
(8.53955e-08 -3.14037e-08 0)
(-3.5895e-08 -5.42474e-08 0)
(1.47685e-08 -6.54234e-08 0)
(2.93796e-08 3.91717e-09 0)
(-4.06927e-09 4.42664e-08 0)
(1.23624e-08 -5.48961e-09 0)
(1.18935e-08 -7.16732e-08 0)
(-2.07204e-08 -8.42248e-08 0)
(-3.00032e-08 5.67042e-10 0)
(-1.13884e-08 8.01079e-08 0)
(-5.33548e-09 3.80302e-08 0)
(-1.36452e-08 2.11629e-08 0)
(1.33666e-08 2.9491e-08 0)
(3.3207e-08 3.30463e-08 0)
(2.27842e-08 2.81664e-08 0)
(1.28687e-08 1.12101e-08 0)
(1.12779e-08 5.77754e-09 0)
(1.01607e-08 2.81387e-08 0)
(1.82353e-08 5.51098e-08 0)
(3.09114e-08 5.40177e-08 0)
(4.02636e-08 2.90354e-08 0)
(-4.86786e-08 -5.7544e-08 0)
(-5.25023e-08 -1.39417e-08 0)
(-1.56577e-09 2.00401e-08 0)
(2.64373e-08 3.04818e-08 0)
(2.13743e-08 -4.26648e-09 0)
(1.67332e-08 -6.35136e-08 0)
(3.91187e-09 -7.52463e-08 0)
(-2.19839e-08 -4.77493e-09 0)
(-9.1311e-09 5.84876e-08 0)
(1.51542e-09 3.09855e-08 0)
(-1.76721e-08 1.273e-08 0)
(1.83161e-08 1.57015e-08 0)
(4.24457e-08 1.62958e-08 0)
(3.13318e-08 1.36371e-08 0)
(1.90932e-08 4.25005e-09 0)
(1.2717e-08 -2.59551e-10 0)
(6.94197e-09 1.33295e-08 0)
(1.73733e-08 2.83361e-08 0)
(6.05015e-08 3.11719e-08 0)
(8.0744e-08 2.42947e-08 0)
(1.2397e-07 -4.34026e-08 0)
(4.94077e-08 6.75002e-10 0)
(-1.78781e-08 1.77014e-08 0)
(-1.66897e-08 2.08997e-08 0)
(1.03688e-08 -2.17241e-09 0)
(1.63732e-08 -3.70357e-08 0)
(2.10812e-09 -4.21551e-08 0)
(-2.08795e-08 -3.83337e-09 0)
(-2.84037e-09 3.9819e-08 0)
(1.06686e-08 2.48375e-08 0)
(-2.04469e-08 2.34871e-09 0)
(2.13534e-08 -2.87979e-10 0)
(4.71578e-08 -6.43524e-10 0)
(3.61043e-08 2.60496e-10 0)
(2.18805e-08 -2.42409e-09 0)
(6.08337e-09 -3.67982e-09 0)
(-5.53983e-09 4.83028e-09 0)
(1.03933e-08 6.3174e-09 0)
(5.61265e-08 1.47025e-09 0)
(2.45704e-08 -3.91245e-08 0)
(9.83171e-08 1.96208e-08 0)
(-4.53459e-09 -3.02407e-08 0)
(-4.27301e-08 -2.85887e-08 0)
(6.99421e-09 -9.81426e-09 0)
(1.48117e-08 -1.68188e-08 0)
(1.63005e-08 -1.90293e-08 0)
(1.72558e-09 -1.32694e-08 0)
(-1.57576e-08 -1.36277e-10 0)
(4.22448e-09 2.04918e-08 0)
(1.25507e-08 1.76271e-08 0)
(-2.04246e-08 -8.53332e-09 0)
(2.22638e-08 -1.54452e-08 0)
(4.84e-08 -1.61443e-08 0)
(3.67393e-08 -1.29574e-08 0)
(2.1952e-08 -6.24785e-09 0)
(7.87299e-09 -1.01997e-09 0)
(-8.86904e-09 4.57597e-09 0)
(1.35578e-08 8.85939e-09 0)
(2.38253e-08 -3.65235e-09 0)
(9.14586e-08 1.66767e-08 0)
(8.32137e-08 -7.90757e-08 0)
(-6.59361e-08 -3.42383e-09 0)
(-7.00946e-09 -1.51153e-08 0)
(-8.47248e-09 -3.73581e-08 0)
(1.86976e-08 -2.3812e-08 0)
(2.95241e-08 -3.88166e-09 0)
(3.98841e-09 8.6162e-09 0)
(-1.75884e-08 -5.24693e-09 0)
(5.05248e-09 -7.434e-09 0)
(1.6614e-08 9.67194e-09 0)
(-1.78747e-08 -1.78603e-08 0)
(2.10782e-08 -2.87176e-08 0)
(4.52014e-08 -3.14966e-08 0)
(3.38508e-08 -2.81567e-08 0)
(1.86332e-08 -1.47176e-08 0)
(1.09238e-08 -3.72227e-09 0)
(2.91706e-09 -1.31887e-08 0)
(5.24815e-09 -1.45201e-08 0)
(5.64674e-08 -9.06927e-09 0)
(-7.25052e-08 1.86722e-08 0)
(-1.78415e-07 1.00715e-07 0)
(1.31427e-07 1.27413e-09 0)
(-5.36462e-08 -2.93374e-08 0)
(-6.50089e-09 -4.4974e-08 0)
(3.22772e-08 -1.19307e-08 0)
(2.66023e-08 1.8538e-08 0)
(-2.29424e-09 3.30944e-08 0)
(-2.48119e-08 -3.23379e-10 0)
(2.41978e-09 -2.41216e-08 0)
(1.70115e-08 2.37443e-09 0)
(-1.39977e-08 -2.47636e-08 0)
(1.6769e-08 -3.88223e-08 0)
(3.62103e-08 -4.56589e-08 0)
(2.51588e-08 -4.37693e-08 0)
(1.33965e-08 -2.60072e-08 0)
(8.03798e-09 -1.11309e-08 0)
(5.11047e-09 -2.59781e-08 0)
(1.64838e-08 -4.7741e-08 0)
(2.84913e-08 -1.70119e-08 0)
(1.98543e-07 1.44674e-08 0)
(2.00395e-07 1.28697e-07 0)
(-1.1516e-07 2.05938e-08 0)
(2.49096e-08 -2.58357e-08 0)
(1.84548e-08 -4.00135e-08 0)
(2.4109e-08 -1.13851e-08 0)
(1.22793e-08 3.57784e-08 0)
(-5.08616e-09 5.95266e-08 0)
(-1.97667e-08 5.97767e-10 0)
(-1.73237e-09 -4.44705e-08 0)
(7.81746e-09 -5.82113e-09 0)
(-9.4817e-09 -2.92727e-08 0)
(8.26291e-09 -4.54284e-08 0)
(2.25479e-08 -5.76252e-08 0)
(1.30879e-08 -5.75057e-08 0)
(5.96715e-09 -3.55947e-08 0)
(1.00083e-08 -1.79092e-08 0)
(1.70799e-08 -3.43167e-08 0)
(2.8613e-08 -6.84569e-08 0)
(5.23444e-08 -5.5369e-08 0)
(1.18408e-08 2.47096e-08 0)
(3.37907e-08 -2.98624e-08 0)
(6.79145e-08 6.86722e-08 0)
(1.18567e-08 -2.31767e-08 0)
(9.31441e-09 -6.56872e-08 0)
(2.80149e-09 -2.70652e-08 0)
(5.98832e-10 4.34818e-08 0)
(-1.32923e-08 7.45393e-08 0)
(-2.30255e-08 -4.9689e-10 0)
(-6.16375e-09 -6.12723e-08 0)
(5.21267e-10 -1.32649e-08 0)
(-6.09546e-09 -3.21055e-08 0)
(-4.00814e-09 -4.84359e-08 0)
(5.25901e-09 -6.65611e-08 0)
(-1.32735e-09 -6.84677e-08 0)
(-2.53785e-09 -4.41574e-08 0)
(1.13637e-08 -2.53687e-08 0)
(2.13862e-08 -4.98468e-08 0)
(3.37217e-08 -9.05038e-08 0)
(4.02202e-08 -8.63334e-08 0)
(5.10857e-08 -5.62111e-09 0)
(4.32055e-08 1.04062e-07 0)
(1.94689e-08 3.73861e-08 0)
(1.98253e-09 -5.21572e-08 0)
(-7.48253e-09 -8.47583e-08 0)
(6.20256e-10 -2.99577e-08 0)
(-1.96674e-09 4.68537e-08 0)
(-1.3597e-08 7.84965e-08 0)
(-1.78153e-08 3.08736e-09 0)
(-1.02874e-08 -6.61102e-08 0)
(-5.25316e-09 -1.67431e-08 0)
(-3.77218e-09 -3.44397e-08 0)
(-1.86272e-08 -4.71382e-08 0)
(-1.37507e-08 -6.8701e-08 0)
(-1.63888e-08 -7.41527e-08 0)
(-1.12393e-08 -4.82925e-08 0)
(9.44555e-09 -3.11579e-08 0)
(3.00813e-08 -5.82409e-08 0)
(3.72288e-08 -1.00519e-07 0)
(4.53567e-08 -8.83835e-08 0)
(4.43659e-08 -1.11355e-08 0)
(2.19533e-08 5.6351e-08 0)
(1.34444e-08 4.13016e-08 0)
(9.58184e-09 -4.15849e-08 0)
(1.52405e-09 -7.18938e-08 0)
(-1.35965e-08 -2.40683e-08 0)
(-1.77259e-08 4.96643e-08 0)
(-1.20112e-08 8.0076e-08 0)
(-1.03043e-08 -2.41739e-10 0)
(-1.45428e-08 -6.79252e-08 0)
(-1.26363e-08 -1.56656e-08 0)
(-9.03154e-10 -3.63485e-08 0)
(-3.19528e-08 -4.10857e-08 0)
(-3.25011e-08 -6.03548e-08 0)
(-3.01492e-08 -7.06703e-08 0)
(-1.97492e-08 -4.97947e-08 0)
(9.38636e-09 -3.31974e-08 0)
(3.40997e-08 -5.81125e-08 0)
(4.51217e-08 -9.71721e-08 0)
(4.22554e-08 -8.58119e-08 0)
(3.53876e-08 -1.74648e-08 0)
(4.19701e-08 4.61079e-08 0)
(3.42636e-08 2.84506e-08 0)
(8.82449e-09 -4.2041e-08 0)
(-1.76906e-08 -6.81736e-08 0)
(-2.81644e-08 -1.90329e-08 0)
(-2.50422e-08 5.06349e-08 0)
(-1.6416e-08 7.46986e-08 0)
(-7.58829e-09 3.20813e-10 0)
(-1.30083e-08 -5.79781e-08 0)
(-1.91137e-08 -1.21201e-08 0)
(4.41793e-09 -3.42613e-08 0)
(-4.02077e-08 -3.13013e-08 0)
(-4.87764e-08 -4.27425e-08 0)
(-4.51311e-08 -5.42634e-08 0)
(-2.74169e-08 -4.37073e-08 0)
(9.99018e-09 -3.25446e-08 0)
(4.15442e-08 -5.38314e-08 0)
(4.87671e-08 -8.55874e-08 0)
(3.96554e-08 -7.61703e-08 0)
(3.45388e-08 -1.38995e-08 0)
(2.80516e-08 3.78949e-08 0)
(2.62027e-08 2.0265e-08 0)
(2.30575e-08 -3.29841e-08 0)
(-4.42239e-09 -4.90383e-08 0)
(-3.18783e-08 -7.86597e-09 0)
(-3.73793e-08 4.39785e-08 0)
(-1.83497e-08 6.10821e-08 0)
(-1.43956e-09 6.25365e-09 0)
(-1.86999e-08 -3.81314e-08 0)
(-3.37862e-08 -7.27912e-09 0)
(1.07624e-08 -2.55488e-08 0)
(-4.3681e-08 -2.1668e-08 0)
(-5.99117e-08 -2.47358e-08 0)
(-5.76273e-08 -3.29637e-08 0)
(-3.55134e-08 -3.15474e-08 0)
(8.757e-09 -2.69001e-08 0)
(4.39751e-08 -3.81097e-08 0)
(5.15465e-08 -5.68667e-08 0)
(4.14707e-08 -5.00134e-08 0)
(3.36218e-08 -1.03743e-08 0)
(4.05479e-08 2.1844e-08 0)
(4.62175e-08 2.06554e-08 0)
(2.17012e-08 -1.2746e-08 0)
(-1.91953e-08 -2.76432e-08 0)
(-4.54697e-08 -3.83275e-09 0)
(-4.33037e-08 3.15462e-08 0)
(-1.54162e-08 4.30794e-08 0)
(2.82924e-09 5.71092e-09 0)
(-2.85356e-08 -2.29853e-08 0)
(-5.21126e-08 -3.03853e-09 0)
(1.42033e-08 -9.84492e-09 0)
(-4.38233e-08 -8.76908e-09 0)
(-6.41048e-08 -8.64478e-09 0)
(-6.37132e-08 -1.17669e-08 0)
(-4.05655e-08 -1.30345e-08 0)
(9.36318e-09 -1.12341e-08 0)
(4.81884e-08 -1.2708e-08 0)
(5.45265e-08 -1.63534e-08 0)
(3.99063e-08 -1.59316e-08 0)
(2.96649e-08 -4.08155e-09 0)
(3.31686e-08 6.31463e-09 0)
(4.03245e-08 3.21632e-10 0)
(2.50607e-08 -1.18077e-08 0)
(-1.146e-08 -1.25667e-08 0)
(-4.07872e-08 -9.37017e-10 0)
(-4.4592e-08 1.26045e-08 0)
(-2.06122e-08 1.61937e-08 0)
(-1.42027e-09 1.86477e-09 0)
(-3.39403e-08 -8.83775e-09 0)
(-6.09131e-08 -1.46958e-09 0)
)
;

boundaryField
{
    sides
    {
        type            calculated;
        value           nonuniform List<vector> 
40
(
(1.42033e-08 0 0)
(-4.38233e-08 0 0)
(-6.41048e-08 0 0)
(-6.37132e-08 0 0)
(-4.05655e-08 0 0)
(9.36318e-09 0 0)
(4.81884e-08 0 0)
(5.45265e-08 0 0)
(3.99063e-08 0 0)
(2.96649e-08 0 0)
(3.31686e-08 0 0)
(4.03245e-08 0 0)
(2.50607e-08 0 0)
(-1.146e-08 0 0)
(-4.07872e-08 0 0)
(-4.4592e-08 0 0)
(-2.06122e-08 0 0)
(-1.42027e-09 0 0)
(-3.39403e-08 0 0)
(-6.09131e-08 0 0)
(1.39092e-08 0 0)
(-4.62596e-08 0 0)
(-6.23654e-08 0 0)
(-5.59617e-08 0 0)
(-3.10061e-08 0 0)
(1.68476e-08 0 0)
(5.54097e-08 0 0)
(5.93946e-08 0 0)
(3.82445e-08 0 0)
(2.38493e-08 0 0)
(2.60139e-08 0 0)
(3.70468e-08 0 0)
(2.17164e-08 0 0)
(-1.86645e-08 0 0)
(-4.67936e-08 0 0)
(-4.59635e-08 0 0)
(-1.90311e-08 0 0)
(2.01341e-11 0 0)
(-3.30057e-08 0 0)
(-6.6373e-08 0 0)
)
;
    }
    inlet
    {
        type            calculated;
        value           uniform (0 0 0);
    }
    outlet
    {
        type            calculated;
        value           nonuniform List<vector> 
20
(
(-6.6373e-08 -1.55173e-09 0)
(-5.0971e-08 1.64427e-08 0)
(-5.83339e-08 1.91329e-08 0)
(-2.48233e-08 2.52109e-08 0)
(-2.9687e-08 3.49054e-08 0)
(-6.47819e-09 3.19531e-08 0)
(-5.33548e-09 3.80302e-08 0)
(1.51542e-09 3.09855e-08 0)
(1.06686e-08 2.48375e-08 0)
(1.25507e-08 1.76271e-08 0)
(1.6614e-08 9.67194e-09 0)
(1.70115e-08 2.37443e-09 0)
(7.81746e-09 -5.82113e-09 0)
(5.21267e-10 -1.32649e-08 0)
(-5.25316e-09 -1.67431e-08 0)
(-1.26363e-08 -1.56656e-08 0)
(-1.91137e-08 -1.21201e-08 0)
(-3.37862e-08 -7.27912e-09 0)
(-5.21126e-08 -3.03853e-09 0)
(-6.09131e-08 -1.46958e-09 0)
)
;
    }
    frontAndBack
    {
        type            empty;
    }
}


// ************************************************************************* //
