/*--------------------------------*- C++ -*----------------------------------*\
  =========                 |
  \\      /  F ield         | OpenFOAM: The Open Source CFD Toolbox
   \\    /   O peration     | Website:  https://openfoam.org
    \\  /    A nd           | Version:  9
     \\/     M anipulation  |
\*---------------------------------------------------------------------------*/
FoamFile
{
    format      ascii;
    class       volScalarField;
    location    "35";
    object      h;
}
// * * * * * * * * * * * * * * * * * * * * * * * * * * * * * * * * * * * * * //

dimensions      [0 1 0 0 0 0 0];

internalField   nonuniform List<scalar> 
400
(
0.0100005
0.0100005
0.0100005
0.0100003
0.0100002
0.0099999
0.0099996
0.00999928
0.00999898
0.00999874
0.00999861
0.00999859
0.00999871
0.00999894
0.00999923
0.00999953
0.00999978
0.00999994
0.01
0.01
0.0100004
0.0100004
0.0100004
0.0100003
0.0100001
0.00999979
0.00999946
0.00999912
0.00999878
0.00999852
0.00999837
0.00999838
0.00999853
0.0099988
0.00999913
0.00999945
0.0099997
0.00999985
0.00999993
0.00999997
0.0100004
0.0100004
0.0100004
0.0100002
0.01
0.00999974
0.00999939
0.00999901
0.00999864
0.00999833
0.00999816
0.00999815
0.00999834
0.00999869
0.00999913
0.00999954
0.00999984
0.01
0.01
0.01
0.0100005
0.0100005
0.0100004
0.0100002
0.01
0.0099997
0.00999931
0.00999885
0.00999837
0.00999795
0.00999769
0.00999771
0.00999803
0.00999857
0.00999918
0.00999965
0.00999989
0.00999995
0.00999994
0.00999996
0.0100006
0.0100005
0.0100005
0.0100003
0.0100001
0.00999972
0.00999927
0.00999869
0.00999805
0.00999743
0.00999703
0.00999702
0.00999754
0.00999845
0.00999941
0.0100001
0.0100003
0.0100002
0.0100001
0.00999998
0.0100007
0.0100007
0.0100006
0.0100004
0.0100002
0.00999986
0.00999931
0.00999854
0.00999764
0.00999677
0.00999617
0.00999613
0.00999692
0.00999831
0.00999964
0.0100004
0.0100004
0.0100001
0.00999992
0.00999991
0.0100009
0.0100008
0.0100008
0.0100007
0.0100005
0.0100002
0.00999961
0.00999859
0.00999704
0.00999526
0.00999399
0.0099944
0.00999657
0.00999938
0.0100012
0.0100015
0.0100008
0.01
0.00999973
0.00999987
0.010001
0.010001
0.010001
0.010001
0.010001
0.0100008
0.0100003
0.0099992
0.00999729
0.00999418
0.00999026
0.00999008
0.00999437
0.0100001
0.0100033
0.010003
0.0100012
0.00999984
0.00999949
0.00999983
0.0100011
0.0100011
0.0100012
0.0100015
0.0100017
0.0100018
0.0100013
0.00999941
0.0099954
0.00998961
0.00998677
0.00998964
0.00999793
0.0100036
0.0100044
0.0100024
0.0100003
0.00999934
0.00999944
0.00999988
0.0100011
0.0100012
0.0100013
0.0100018
0.0100026
0.010004
0.0100058
0.0100078
0.0100048
0.00897835
0.00895231
0.00997571
0.0100087
0.0100177
0.0100104
0.0100023
0.00999884
0.0099989
0.00999978
0.0100002
0.010001
0.0100011
0.0100013
0.0100017
0.0100025
0.0100039
0.0100057
0.0100077
0.0100048
0.00897834
0.00895228
0.00997567
0.0100087
0.0100177
0.0100104
0.0100023
0.00999884
0.00999889
0.00999976
0.0100001
0.0100009
0.0100009
0.010001
0.0100013
0.0100015
0.0100017
0.0100011
0.00999923
0.00999524
0.00998942
0.00998641
0.00998946
0.00999781
0.0100035
0.0100043
0.0100023
0.0100002
0.00999932
0.00999946
0.00999989
0.0100007
0.0100006
0.0100007
0.0100007
0.0100007
0.0100005
0.00999996
0.00999891
0.00999702
0.00999396
0.0099902
0.00998988
0.00999414
0.00999987
0.010003
0.0100029
0.0100011
0.00999977
0.00999947
0.00999982
0.0100004
0.0100003
0.0100003
0.0100002
0.0100001
0.00999976
0.00999918
0.00999815
0.00999662
0.00999483
0.00999364
0.00999404
0.00999624
0.0099991
0.010001
0.0100013
0.0100006
0.00999989
0.00999963
0.00999983
0.0100001
0.0100001
0.00999997
0.00999985
0.00999963
0.00999928
0.00999874
0.009998
0.00999711
0.00999627
0.0099957
0.0099957
0.00999653
0.00999795
0.00999932
0.0100001
0.0100002
0.00999997
0.00999981
0.00999988
0.00999983
0.0099998
0.00999971
0.00999957
0.00999934
0.00999902
0.00999857
0.00999802
0.0099974
0.0099968
0.0099964
0.00999645
0.009997
0.00999795
0.00999897
0.00999969
0.00999997
0.00999996
0.0099999
0.00999993
0.0099996
0.00999958
0.00999951
0.00999937
0.00999915
0.00999886
0.00999848
0.00999805
0.00999759
0.00999721
0.00999701
0.00999706
0.00999741
0.00999801
0.00999868
0.00999924
0.00999958
0.00999974
0.00999982
0.00999992
0.00999941
0.00999941
0.00999935
0.00999922
0.00999902
0.00999876
0.00999843
0.00999806
0.00999771
0.00999742
0.00999727
0.00999732
0.00999757
0.00999799
0.00999849
0.00999896
0.00999933
0.00999959
0.00999976
0.00999991
0.00999926
0.00999927
0.00999923
0.00999912
0.00999894
0.0099987
0.00999841
0.00999809
0.0099978
0.00999757
0.00999746
0.00999749
0.00999768
0.00999801
0.00999843
0.00999885
0.00999922
0.0099995
0.00999972
0.00999991
0.00999913
0.00999913
0.0099991
0.009999
0.00999883
0.00999859
0.0099983
0.009998
0.00999772
0.00999751
0.00999742
0.00999746
0.00999764
0.00999793
0.0099983
0.00999869
0.00999905
0.00999934
0.00999961
0.00999985
)
;

boundaryField
{
    sides
    {
        type            zeroGradient;
    }
    inlet
    {
        type            zeroGradient;
    }
    outlet
    {
        type            fixedValue;
        value           uniform 0.01;
    }
    frontAndBack
    {
        type            empty;
    }
}


// ************************************************************************* //
