/*--------------------------------*- C++ -*----------------------------------*\
  =========                 |
  \\      /  F ield         | OpenFOAM: The Open Source CFD Toolbox
   \\    /   O peration     | Website:  https://openfoam.org
    \\  /    A nd           | Version:  9
     \\/     M anipulation  |
\*---------------------------------------------------------------------------*/
FoamFile
{
    format      ascii;
    class       volScalarField;
    location    "35";
    object      h_0;
}
// * * * * * * * * * * * * * * * * * * * * * * * * * * * * * * * * * * * * * //

dimensions      [0 1 0 0 0 0 0];

internalField   nonuniform List<scalar> 
400
(
0.0100005
0.0100005
0.0100004
0.0100003
0.0100002
0.00999994
0.00999966
0.00999934
0.00999904
0.00999879
0.00999864
0.00999861
0.00999872
0.00999894
0.00999923
0.00999953
0.00999977
0.00999994
0.01
0.01
0.0100004
0.0100004
0.0100004
0.0100002
0.0100001
0.00999983
0.00999952
0.00999918
0.00999884
0.00999856
0.0099984
0.0099984
0.00999854
0.0099988
0.00999913
0.00999945
0.0099997
0.00999985
0.00999993
0.00999997
0.0100004
0.0100004
0.0100004
0.0100002
0.01
0.00999977
0.00999944
0.00999906
0.00999868
0.00999837
0.00999818
0.00999816
0.00999834
0.00999869
0.00999912
0.00999953
0.00999983
0.00999999
0.01
0.01
0.0100005
0.0100005
0.0100004
0.0100002
0.01
0.00999973
0.00999935
0.00999889
0.0099984
0.00999798
0.00999771
0.00999772
0.00999802
0.00999856
0.00999917
0.00999964
0.00999988
0.00999994
0.00999994
0.00999995
0.0100006
0.0100005
0.0100005
0.0100003
0.0100001
0.00999974
0.00999929
0.00999872
0.00999807
0.00999745
0.00999702
0.00999702
0.00999752
0.00999842
0.0099994
0.0100001
0.0100003
0.0100002
0.01
0.00999998
0.0100007
0.0100007
0.0100006
0.0100005
0.0100002
0.00999987
0.00999933
0.00999855
0.00999765
0.00999677
0.00999617
0.0099961
0.0099969
0.00999829
0.00999962
0.0100004
0.0100004
0.0100001
0.00999991
0.00999991
0.0100009
0.0100008
0.0100008
0.0100007
0.0100005
0.0100002
0.00999962
0.00999859
0.00999705
0.00999524
0.009994
0.00999439
0.00999654
0.00999935
0.0100012
0.0100015
0.0100007
0.01
0.00999972
0.00999987
0.010001
0.010001
0.010001
0.010001
0.010001
0.0100008
0.0100003
0.00999919
0.00999728
0.0099942
0.00999034
0.00999008
0.00999435
0.0100001
0.0100032
0.010003
0.0100012
0.00999982
0.00999948
0.00999983
0.0100011
0.0100012
0.0100013
0.0100015
0.0100018
0.0100018
0.0100013
0.0099994
0.0099954
0.00998957
0.00998666
0.00998959
0.00999789
0.0100036
0.0100043
0.0100024
0.0100003
0.00999932
0.00999943
0.00999987
0.0100011
0.0100012
0.0100014
0.0100018
0.0100026
0.0100039
0.0100058
0.0100077
0.0100048
0.00897835
0.00895228
0.00997568
0.0100087
0.0100177
0.0100104
0.0100023
0.00999882
0.00999888
0.00999977
0.0100001
0.0100011
0.0100011
0.0100013
0.0100018
0.0100025
0.0100039
0.0100057
0.0100077
0.0100048
0.00897834
0.00895223
0.00997567
0.0100086
0.0100177
0.0100103
0.0100022
0.00999881
0.00999887
0.00999974
0.0100001
0.0100009
0.010001
0.0100011
0.0100013
0.0100016
0.0100016
0.0100011
0.00999921
0.00999523
0.00998942
0.00998658
0.00998942
0.00999779
0.0100035
0.0100042
0.0100022
0.0100002
0.00999931
0.00999945
0.00999989
0.0100007
0.0100007
0.0100007
0.0100007
0.0100007
0.0100005
0.00999996
0.0099989
0.00999701
0.00999394
0.00999002
0.00998987
0.0099941
0.00999984
0.010003
0.0100028
0.0100011
0.00999975
0.00999946
0.00999982
0.0100004
0.0100004
0.0100003
0.0100002
0.0100001
0.00999976
0.00999918
0.00999816
0.00999661
0.00999482
0.00999365
0.009994
0.00999621
0.00999906
0.010001
0.0100013
0.0100006
0.00999988
0.00999963
0.00999983
0.0100001
0.0100001
0.00999999
0.00999986
0.00999964
0.0099993
0.00999876
0.00999801
0.00999712
0.00999627
0.00999569
0.00999568
0.0099965
0.00999792
0.0099993
0.0100001
0.0100002
0.00999996
0.00999981
0.00999988
0.00999983
0.0099998
0.00999972
0.00999958
0.00999936
0.00999904
0.0099986
0.00999804
0.00999742
0.00999682
0.00999641
0.00999644
0.00999698
0.00999794
0.00999895
0.00999967
0.00999996
0.00999995
0.00999989
0.00999993
0.00999959
0.00999957
0.0099995
0.00999937
0.00999917
0.00999889
0.00999852
0.00999808
0.00999763
0.00999724
0.00999702
0.00999706
0.0099974
0.009998
0.00999867
0.00999924
0.00999958
0.00999973
0.00999982
0.00999991
0.00999939
0.00999938
0.00999933
0.00999922
0.00999904
0.00999879
0.00999847
0.00999811
0.00999775
0.00999745
0.00999729
0.00999733
0.00999757
0.00999798
0.00999848
0.00999896
0.00999933
0.00999958
0.00999976
0.00999991
0.00999922
0.00999923
0.0099992
0.00999912
0.00999896
0.00999873
0.00999846
0.00999815
0.00999785
0.00999761
0.00999748
0.0099975
0.00999769
0.00999801
0.00999843
0.00999885
0.00999922
0.0099995
0.00999972
0.0099999
0.00999909
0.0099991
0.00999907
0.00999898
0.00999884
0.00999862
0.00999836
0.00999806
0.00999778
0.00999756
0.00999745
0.00999748
0.00999765
0.00999793
0.0099983
0.00999868
0.00999904
0.00999935
0.00999961
0.00999985
)
;

boundaryField
{
    sides
    {
        type            zeroGradient;
    }
    inlet
    {
        type            zeroGradient;
    }
    outlet
    {
        type            fixedValue;
        value           uniform 0.01;
    }
    frontAndBack
    {
        type            empty;
    }
}


// ************************************************************************* //
