/*--------------------------------*- C++ -*----------------------------------*\
  =========                 |
  \\      /  F ield         | OpenFOAM: The Open Source CFD Toolbox
   \\    /   O peration     | Website:  https://openfoam.org
    \\  /    A nd           | Version:  9
     \\/     M anipulation  |
\*---------------------------------------------------------------------------*/
FoamFile
{
    format      ascii;
    class       surfaceScalarField;
    location    "35";
    object      phi;
}
// * * * * * * * * * * * * * * * * * * * * * * * * * * * * * * * * * * * * * //

dimensions      [0 4 -1 0 0 0 0];

internalField   nonuniform List<scalar> 
760
(
5.00002e-06
-1.12184e-10
5.00029e-06
-3.54928e-10
5.00081e-06
-5.64683e-10
5.00155e-06
-7.48501e-10
5.0025e-06
-8.85071e-10
5.00357e-06
-9.52354e-10
5.00467e-06
-9.54726e-10
5.00575e-06
-9.12975e-10
5.00669e-06
-7.82937e-10
5.00733e-06
-5.1306e-10
5.0075e-06
-9.30755e-11
5.00705e-06
5.02777e-10
5.00611e-06
9.56794e-10
5.00497e-06
1.14701e-09
5.0038e-06
1.15623e-09
5.00285e-06
9.35574e-10
5.00208e-06
7.61844e-10
5.00172e-06
3.4964e-10
5.00157e-06
1.51674e-10
-4.08803e-10
5.00006e-06
-2.47982e-10
5.00036e-06
-7.21758e-10
5.00089e-06
-1.1404e-09
5.00167e-06
-1.52199e-09
5.00267e-06
-1.82355e-09
5.00382e-06
-1.9949e-09
5.00506e-06
-2.0481e-09
5.0063e-06
-2.00125e-09
5.00742e-06
-1.76784e-09
5.00818e-06
-1.15224e-09
5.00817e-06
-6.77807e-12
5.00765e-06
1.05814e-09
5.00658e-06
2.03867e-09
5.00522e-06
2.50146e-09
5.00394e-06
2.4268e-09
5.00302e-06
1.83792e-09
5.00245e-06
1.32997e-09
5.00204e-06
7.46962e-10
5.00175e-06
4.45464e-10
-1.90903e-10
5.00007e-06
-3.66641e-10
5.00037e-06
-1.06897e-09
5.0009e-06
-1.70233e-09
5.0017e-06
-2.30856e-09
5.00276e-06
-2.82494e-09
5.00404e-06
-3.18137e-09
5.00547e-06
-3.35797e-09
5.00693e-06
-3.3371e-09
5.00822e-06
-2.93696e-09
5.00909e-06
-1.93583e-09
5.00936e-06
-2.08316e-10
5.00863e-06
1.80874e-09
5.00718e-06
3.48773e-09
5.00542e-06
4.25184e-09
5.00377e-06
4.06297e-09
5.00257e-06
3.02216e-09
5.00188e-06
2.01206e-09
5.00158e-06
1.03307e-09
5.0015e-06
5.14019e-10
-2.6204e-10
5.00008e-06
-4.70302e-10
5.00038e-06
-1.39115e-09
5.00093e-06
-2.25487e-09
5.00177e-06
-3.12381e-09
5.00292e-06
-3.93014e-09
5.0044e-06
-4.58872e-09
5.00618e-06
-5.0393e-09
5.00818e-06
-5.23245e-09
5.01014e-06
-4.80799e-09
5.01144e-06
-3.16728e-09
5.01159e-06
-3.41411e-10
5.01036e-06
3.05058e-09
5.00796e-06
5.86497e-09
5.0054e-06
6.77881e-09
5.0037e-06
5.74182e-09
5.0029e-06
3.80514e-09
5.00264e-06
2.25183e-09
5.00245e-06
1.20863e-09
5.00211e-06
8.40308e-10
2.87233e-10
5.00009e-06
-5.5048e-10
5.00036e-06
-1.64882e-09
5.00087e-06
-2.74797e-09
5.0017e-06
-3.92407e-09
5.00295e-06
-5.14688e-09
5.00471e-06
-6.29451e-09
5.00699e-06
-7.24914e-09
5.00968e-06
-7.82951e-09
5.01269e-06
-7.79168e-09
5.01517e-06
-5.58714e-09
5.01517e-06
-3.56066e-10
5.01319e-06
5.00939e-09
5.00898e-06
1.00497e-08
5.00485e-06
1.08408e-08
5.00247e-06
8.0808e-09
5.00195e-06
4.29696e-09
5.00221e-06
1.96966e-09
5.00234e-06
1.05191e-09
5.00206e-06
1.10296e-09
5.67858e-10
5.00008e-06
-5.86746e-10
5.00026e-06
-1.79049e-09
5.00062e-06
-3.07259e-09
5.00132e-06
-4.58304e-09
5.00254e-06
-6.33797e-09
5.00468e-06
-8.40837e-09
5.00782e-06
-1.03331e-08
5.01195e-06
-1.19282e-08
5.01584e-06
-1.16514e-08
5.01931e-06
-9.07922e-09
5.02057e-06
-1.58987e-09
5.01635e-06
9.14518e-09
5.00983e-06
1.6526e-08
5.00448e-06
1.61341e-08
5.00237e-06
1.01307e-08
5.00264e-06
3.97976e-09
5.00339e-06
1.18332e-09
5.00352e-06
8.98756e-10
5.00291e-06
1.70596e-09
1.3789e-09
5.00004e-06
-5.58755e-10
5.00005e-06
-1.72525e-09
5.00017e-06
-3.13783e-09
5.00051e-06
-4.88915e-09
5.00138e-06
-7.18674e-09
5.00311e-06
-1.01196e-08
5.00705e-06
-1.42503e-08
5.01421e-06
-1.9086e-08
5.02407e-06
-2.15138e-08
5.03127e-06
-1.629e-08
5.02904e-06
5.88392e-10
5.01706e-06
2.11444e-08
5.00447e-06
2.90316e-08
4.99898e-06
2.15514e-08
5.00076e-06
8.28773e-09
5.00297e-06
1.72093e-09
5.00382e-06
2.74068e-10
5.00377e-06
9.24216e-10
5.00314e-06
2.32216e-09
1.64507e-09
4.99995e-06
-4.14901e-10
4.9997e-06
-1.38195e-09
4.9993e-06
-2.67692e-09
4.99904e-06
-4.58771e-09
4.99951e-06
-7.64559e-09
5.00056e-06
-1.11688e-08
5.00392e-06
-1.76046e-08
5.01014e-06
-2.5333e-08
5.02519e-06
-3.6592e-08
5.05643e-06
-4.74607e-08
5.05026e-06
6.92446e-09
5.02349e-06
4.79039e-08
4.99851e-06
5.39783e-08
4.99377e-06
2.62187e-08
4.99966e-06
2.33176e-09
5.00419e-06
-2.87704e-09
5.00499e-06
-5.68982e-10
5.00381e-06
2.06241e-09
5.00361e-06
2.5107e-09
9.47232e-10
4.99987e-06
-1.7274e-10
4.99933e-06
-7.35742e-10
4.99813e-06
-1.40471e-09
4.99632e-06
-2.74048e-09
4.99423e-06
-5.54293e-09
4.99397e-06
-1.09224e-08
4.99972e-06
-2.33822e-08
5.01744e-06
-4.30749e-08
5.05604e-06
-7.5197e-08
5.0671e-06
-5.86444e-08
5.05008e-06
2.36949e-08
4.99679e-06
1.01081e-07
4.9896e-06
6.10508e-08
4.99618e-06
1.95615e-08
5.00038e-06
-1.93273e-09
5.00303e-06
-5.58695e-09
5.00259e-06
-1.8647e-10
5.00195e-06
2.66288e-09
5.00266e-06
1.7704e-09
7.33718e-11
4.99997e-06
-2.10805e-11
4.99939e-06
-4.89617e-11
4.99814e-06
-7.00587e-11
4.99553e-06
-9.42267e-11
4.99011e-06
-1.16213e-10
4.97932e-06
-1.54591e-10
4.9561e-06
-1.99639e-10
4.91328e-06
-2.82591e-10
4.83845e-06
-3.93256e-10
4.78026e-06
-4.77998e-10
4.80455e-06
-6.15766e-10
4.9063e-06
-7.87404e-10
4.96808e-06
-7.77903e-10
4.98848e-06
-9.10112e-10
4.98763e-06
-1.14766e-09
4.98336e-06
-1.37743e-09
4.98462e-06
-1.50155e-09
4.98901e-06
-1.77364e-09
4.99258e-06
-1.82823e-09
-2.57378e-09
4.99997e-06
1.32183e-10
4.99939e-06
6.38954e-10
4.99813e-06
1.26924e-09
4.99552e-06
2.55646e-09
4.99009e-06
5.31907e-09
4.97929e-06
1.06249e-08
4.95605e-06
2.299e-08
4.91321e-06
4.25284e-08
4.83833e-06
7.44556e-08
4.78003e-06
5.78739e-08
4.80448e-06
-2.51919e-08
4.90627e-06
-1.02578e-07
4.96807e-06
-6.26292e-08
4.98834e-06
-2.12378e-08
4.98755e-06
-4.12426e-10
4.98303e-06
3.06941e-09
4.98449e-06
-3.02215e-09
4.98899e-06
-6.31153e-09
4.99245e-06
-5.32298e-09
-4.95461e-09
4.99987e-06
3.78247e-10
4.99932e-06
1.29429e-09
4.99812e-06
2.54443e-09
4.99631e-06
4.40795e-09
4.99422e-06
7.41176e-09
4.99396e-06
1.08717e-08
4.99971e-06
1.72119e-08
5.01739e-06
2.47976e-08
5.05596e-06
3.58984e-08
5.06737e-06
4.63727e-08
5.04977e-06
-7.23182e-09
4.99638e-06
-4.92827e-08
4.98914e-06
-5.54541e-08
4.99596e-06
-2.8104e-08
5.00027e-06
-4.79395e-09
5.00241e-06
8.61527e-10
5.00173e-06
-2.39443e-09
5.00101e-06
-5.64031e-09
5.0018e-06
-6.13766e-09
-5.9064e-09
4.99995e-06
5.29301e-10
4.99968e-06
1.64733e-09
4.99928e-06
3.01619e-09
4.99901e-06
4.72027e-09
4.99946e-06
6.97315e-09
5.00048e-06
9.84684e-09
5.00375e-06
1.39322e-08
5.00993e-06
1.86003e-08
5.02493e-06
2.08643e-08
5.05588e-06
1.54386e-08
5.05003e-06
-1.81767e-09
5.02314e-06
-2.24071e-08
4.99818e-06
-3.05761e-08
4.99342e-06
-2.34225e-08
4.99883e-06
-1.02779e-08
5.00355e-06
-3.92924e-09
5.0038e-06
-2.69724e-09
5.00246e-06
-4.32898e-09
5.00227e-06
-5.97191e-09
-6.47902e-09
5.00003e-06
5.66565e-10
5.00003e-06
1.72517e-09
5.00013e-06
2.9659e-09
5.00045e-06
4.4371e-09
5.00129e-06
6.15346e-09
5.00298e-06
8.16329e-09
5.00692e-06
1.00032e-08
5.01409e-06
1.14515e-08
5.02391e-06
1.1032e-08
5.03102e-06
8.25914e-09
5.02875e-06
5.19022e-10
5.01656e-06
-1.03221e-08
5.00377e-06
-1.78726e-08
4.998e-06
-1.77379e-08
4.99958e-06
-1.19283e-08
5.00172e-06
-6.12233e-09
5.0025e-06
-3.52055e-09
5.00225e-06
-4.10016e-09
5.00131e-06
-5.05189e-09
-5.9106e-09
5.00006e-06
5.3882e-10
5.00023e-06
1.59786e-09
5.00058e-06
2.65807e-09
5.00125e-06
3.79875e-09
5.00244e-06
4.98494e-09
5.00456e-06
6.07787e-09
5.00764e-06
6.95744e-09
5.01169e-06
7.44401e-09
5.01547e-06
7.27169e-09
5.0189e-06
4.83968e-09
5.01988e-06
-5.09408e-10
5.01554e-06
-6.03088e-09
5.00882e-06
-1.12305e-08
5.00335e-06
-1.23274e-08
5.00106e-06
-9.69647e-09
5.00115e-06
-6.25369e-09
5.00167e-06
-4.08251e-09
5.00143e-06
-3.88208e-09
5.00046e-06
-4.0978e-09
-4.90578e-09
5.00007e-06
4.62316e-10
5.00032e-06
1.35377e-09
5.00081e-06
2.18564e-09
5.00162e-06
3.02013e-09
5.00284e-06
3.79745e-09
5.00455e-06
4.41749e-09
5.00676e-06
4.81423e-09
5.00936e-06
4.90991e-09
5.01234e-06
4.34347e-09
5.01472e-06
2.48954e-09
5.01453e-06
-3.15077e-10
5.01244e-06
-3.96506e-09
5.00804e-06
-6.87643e-09
5.00372e-06
-8.04504e-09
5.00112e-06
-7.14259e-09
5.00031e-06
-5.47212e-09
5.00025e-06
-4.05818e-09
4.99999e-06
-3.64429e-09
4.99928e-06
-3.39885e-09
-4.10548e-09
5.00007e-06
3.55582e-10
5.00035e-06
1.03879e-09
5.00087e-06
1.65534e-09
5.00168e-06
2.23492e-09
5.00279e-06
2.72368e-09
5.00424e-06
3.04199e-09
5.00597e-06
3.17485e-09
5.00787e-06
3.09831e-09
5.00965e-06
2.6504e-09
5.01068e-06
1.52537e-09
5.01081e-06
-4.16092e-10
5.00935e-06
-2.51446e-09
5.00676e-06
-4.30521e-09
5.0039e-06
-5.21494e-09
5.00176e-06
-5.0256e-09
5.00055e-06
-4.2842e-09
4.99988e-06
-3.40974e-09
4.9993e-06
-3.08121e-09
4.99856e-06
-2.67451e-09
-3.15748e-09
5.00005e-06
2.38546e-10
5.00033e-06
6.9521e-10
5.00085e-06
1.10138e-09
5.00162e-06
1.46695e-09
5.00264e-06
1.74947e-09
5.00387e-06
1.8974e-09
5.00525e-06
1.91411e-09
5.00667e-06
1.79764e-09
5.00795e-06
1.47878e-09
5.00876e-06
8.06279e-10
5.00864e-06
-2.43884e-10
5.00772e-06
-1.56887e-09
5.006e-06
-2.58883e-09
5.00392e-06
-3.14813e-09
5.00201e-06
-3.13425e-09
5.00056e-06
-2.84599e-09
4.99951e-06
-2.37659e-09
4.99866e-06
-2.23793e-09
4.99784e-06
-1.86888e-09
-2.23719e-09
5.00002e-06
1.34864e-10
5.00027e-06
3.57323e-10
5.00075e-06
5.55384e-10
5.00148e-06
7.3375e-10
5.00241e-06
8.6296e-10
5.00349e-06
9.19015e-10
5.00462e-06
9.1092e-10
5.00572e-06
8.47528e-10
5.00664e-06
6.89239e-10
5.00722e-06
3.36712e-10
5.00723e-06
-1.88177e-10
5.00643e-06
-7.34581e-10
5.00506e-06
-1.20386e-09
5.00339e-06
-1.47946e-09
5.00173e-06
-1.48825e-09
5.00028e-06
-1.41031e-09
4.9991e-06
-1.20925e-09
4.99806e-06
-1.20717e-09
4.99718e-06
-9.98288e-10
-1.40524e-09
5.00004e-06
5.00031e-06
5.00079e-06
5.0015e-06
5.00241e-06
5.00344e-06
5.00449e-06
5.0055e-06
5.00634e-06
5.00679e-06
5.00669e-06
5.006e-06
5.00482e-06
5.00334e-06
5.00184e-06
5.00042e-06
4.9992e-06
4.99799e-06
4.99699e-06
)
;

boundaryField
{
    sides
    {
        type            calculated;
        value           uniform 0;
    }
    inlet
    {
        type            calculated;
        value           nonuniform List<scalar> 
20
(
-5e-06
-5e-06
-5e-06
-5e-06
-5e-06
-5e-06
-5e-06
-5e-06
-5e-06
-5e-06
-5e-06
-5e-06
-5e-06
-5e-06
-5e-06
-5e-06
-5e-06
-5e-06
-5e-06
-5e-06
)
;
    }
    outlet
    {
        type            calculated;
        value           nonuniform List<scalar> 
20
(
5.00197e-06
5.00153e-06
5.00156e-06
5.00156e-06
5.00178e-06
5.00209e-06
5.00287e-06
5.0043e-06
5.00352e-06
4.99521e-06
4.99482e-06
5.00274e-06
5.00283e-06
5.00073e-06
4.99946e-06
4.99848e-06
4.99761e-06
4.99691e-06
4.99635e-06
4.99558e-06
)
;
    }
    frontAndBack
    {
        type            empty;
        value           nonuniform List<scalar> 0();
    }
}


// ************************************************************************* //
