/*--------------------------------*- C++ -*----------------------------------*\
  =========                 |
  \\      /  F ield         | OpenFOAM: The Open Source CFD Toolbox
   \\    /   O peration     | Website:  https://openfoam.org
    \\  /    A nd           | Version:  9
     \\/     M anipulation  |
\*---------------------------------------------------------------------------*/
FoamFile
{
    format      ascii;
    class       volScalarField;
    location    "69";
    object      ddt0(h);
}
// * * * * * * * * * * * * * * * * * * * * * * * * * * * * * * * * * * * * * //

dimensions      [0 1 -1 0 0 0 0];

internalField   nonuniform List<scalar> 
400
(
7.40263e-09
-1.82373e-08
-1.9788e-08
-2.59276e-10
4.88628e-09
1.66807e-08
2.00954e-08
1.77275e-08
1.27639e-08
7.3912e-09
1.31265e-08
3.19674e-10
-1.30777e-08
-9.76122e-09
4.44525e-09
1.05406e-08
1.56761e-08
1.31595e-08
-9.60146e-09
-9.97848e-09
-8.00628e-09
-1.53014e-08
-3.94527e-10
3.92422e-09
4.81962e-09
1.15923e-08
1.6419e-08
3.90904e-09
-7.56204e-09
3.37589e-09
-1.89264e-08
9.78675e-09
-1.33057e-08
-6.80958e-09
3.95656e-09
2.34775e-09
5.76225e-09
1.21205e-08
1.31174e-08
3.55097e-09
-2.77113e-08
-1.9788e-09
1.77198e-08
3.91277e-09
7.95159e-10
1.16568e-08
-6.68121e-09
-1.2696e-08
-3.24511e-08
8.44864e-09
2.24266e-10
-5.17826e-09
3.21454e-08
7.05914e-09
4.35578e-09
-1.07748e-09
-9.07156e-09
-2.72259e-09
1.64466e-08
1.29206e-08
-2.50346e-08
6.94683e-09
1.55395e-08
-3.68496e-09
1.03254e-08
-2.26974e-09
-1.9821e-08
-5.37801e-08
3.38384e-08
-3.24286e-08
9.84094e-08
-6.54709e-09
4.17847e-08
7.73324e-08
2.4343e-08
-3.54174e-09
-1.39519e-08
-5.42105e-09
1.82226e-08
1.56343e-08
-5.55146e-09
1.11809e-08
-4.00024e-09
-4.35316e-09
1.14024e-08
-7.39186e-09
-4.86165e-08
-5.39202e-10
5.40004e-08
3.92962e-08
-7.80339e-08
1.23705e-07
-2.03822e-08
4.15639e-08
7.50774e-08
2.14424e-08
-1.21337e-08
-6.90477e-09
9.76538e-09
8.40552e-09
1.1762e-08
7.73531e-09
-1.27154e-08
-2.98155e-09
1.36347e-08
-2.29529e-08
-3.27855e-08
9.91978e-08
-7.27405e-08
1.31321e-07
-7.43436e-08
-5.97733e-08
7.28778e-08
-2.30032e-08
7.15276e-09
3.14173e-08
1.01725e-08
-6.00915e-09
-1.11968e-08
-5.83272e-09
1.61573e-08
3.23095e-09
-1.15714e-08
6.84214e-09
8.07963e-09
-2.22803e-08
3.87607e-08
6.2602e-10
8.65175e-08
-3.01569e-07
4.03519e-07
-1.95849e-07
-1.11007e-07
1.03626e-08
-1.17755e-08
2.95943e-09
9.49587e-09
-8.93306e-09
-2.53544e-08
-1.40025e-08
1.3428e-08
-2.08523e-09
-1.18546e-09
8.76975e-09
1.04347e-08
2.88113e-09
-1.15344e-09
4.88586e-08
-9.61125e-08
-1.19019e-07
4.68801e-06
3.71322e-07
-7.12679e-08
-4.42455e-08
-1.01767e-08
-7.54236e-10
-4.95162e-09
-1.44157e-08
-2.92712e-08
-1.60554e-08
8.991e-09
-9.24272e-11
5.07322e-09
9.40464e-09
8.88705e-09
1.70154e-08
-1.46141e-08
-6.84986e-08
1.11148e-07
1.22685e-07
-4.60751e-06
-3.66836e-07
1.1482e-07
8.30308e-08
3.67047e-08
1.92413e-09
-5.28639e-08
-1.21246e-08
-2.00103e-08
-2.41918e-08
9.04749e-09
3.37103e-09
1.20354e-08
-4.81951e-11
4.13385e-09
1.59358e-08
-2.70011e-08
4.59237e-09
-6.1342e-08
3.52609e-07
-5.25064e-07
2.67107e-07
1.15436e-07
2.97354e-08
2.65576e-08
-6.90492e-09
4.59489e-08
-1.94683e-09
-3.36264e-09
1.1129e-08
1.28861e-08
6.1078e-09
1.19987e-08
-8.88314e-10
-1.80637e-08
1.43051e-08
2.14168e-08
-1.58169e-08
7.03999e-08
-1.92691e-07
5.25479e-07
-2.19505e-07
-7.26536e-08
2.09142e-09
-3.38104e-08
-2.7235e-08
9.44039e-10
2.0121e-08
1.36262e-08
2.71038e-09
1.7059e-08
4.59213e-09
7.00321e-09
9.79042e-10
-1.70946e-08
-8.89574e-09
5.07953e-08
1.88187e-08
6.89389e-08
-4.63611e-07
-1.8621e-06
4.51295e-08
-1.198e-07
-3.6483e-08
-3.25458e-08
-3.71297e-09
2.14967e-08
2.80413e-08
1.35598e-08
8.13643e-10
1.80269e-08
1.17595e-09
-2.46219e-09
5.91382e-09
-5.24442e-09
3.16108e-09
8.56674e-09
2.90142e-08
-1.02575e-07
5.10391e-07
1.49448e-06
-1.45378e-07
1.39484e-07
-3.41977e-08
-2.09078e-08
-1.06874e-10
1.19662e-08
9.72697e-09
-1.15181e-09
-4.6538e-09
1.0564e-08
1.53565e-09
-1.01379e-08
8.43355e-09
1.34681e-08
8.96438e-09
4.04338e-09
-3.90126e-08
-2.69713e-10
4.99428e-08
-6.65103e-08
2.9597e-07
-1.39089e-08
1.29375e-08
8.3813e-09
-1.2498e-09
-7.75452e-09
-6.30765e-09
-8.51738e-09
-5.9839e-09
-1.51739e-09
5.97094e-09
-7.08429e-09
4.3838e-09
1.7e-08
1.13395e-08
6.44094e-09
-3.26471e-08
-3.50456e-08
-4.21458e-08
1.07039e-07
-3.07667e-08
1.76797e-08
6.34894e-10
-6.11094e-09
-4.45659e-09
-1.06265e-08
-3.42323e-09
7.50672e-09
5.12446e-09
-1.05443e-08
1.4724e-08
1.20541e-09
-6.55915e-09
2.89045e-09
2.72269e-10
7.58402e-09
-1.7403e-09
-3.1579e-08
-1.3388e-08
-3.61859e-08
-8.05912e-09
-7.25492e-09
-1.34721e-08
-4.79875e-09
3.10539e-09
3.48088e-10
1.34774e-08
3.33119e-08
1.95285e-08
-1.03445e-08
1.73408e-08
7.24069e-09
-1.98844e-08
-1.62617e-08
-1.00217e-08
3.52911e-09
1.83492e-08
7.06152e-09
-3.73649e-10
-1.35213e-08
-8.06627e-10
-9.17318e-10
-1.06948e-09
5.59703e-09
1.38574e-08
1.42872e-08
2.55022e-08
4.27029e-08
2.41723e-08
-8.47082e-09
9.65794e-09
6.44862e-09
-1.78393e-08
-2.35971e-08
-9.59757e-09
4.71368e-09
1.92904e-08
2.1871e-08
1.58347e-08
1.85884e-08
1.61672e-08
1.38067e-08
1.18139e-08
1.17973e-08
1.7329e-08
1.89514e-08
1.93314e-08
2.43377e-08
1.36237e-08
-1.17138e-08
-7.99491e-09
3.69653e-09
1.72331e-09
-8.0594e-09
-5.54259e-09
4.87249e-09
1.41012e-08
1.46538e-08
1.23494e-08
1.8419e-08
1.7044e-08
1.2002e-08
8.72159e-09
1.15674e-08
1.90156e-08
1.71815e-08
-1.04902e-09
-1.15005e-08
-5.48076e-09
-1.54044e-08
-2.55402e-08
-1.46201e-09
2.14636e-08
1.32607e-08
2.56897e-09
4.31209e-09
9.89253e-09
5.45112e-09
2.19233e-09
3.65372e-09
5.9785e-09
-1.91297e-10
-1.30275e-09
8.78149e-09
1.96966e-08
1.22357e-08
-2.21674e-08
-4.26784e-08
-2.10019e-08
)
;

boundaryField
{
    sides
    {
        type            calculated;
        value           nonuniform List<scalar> 
40
(
-1.54044e-08
-2.55402e-08
-1.46201e-09
2.14636e-08
1.32607e-08
2.56897e-09
4.31209e-09
9.89253e-09
5.45112e-09
2.19233e-09
3.65372e-09
5.9785e-09
-1.91297e-10
-1.30275e-09
8.78149e-09
1.96966e-08
1.22357e-08
-2.21674e-08
-4.26784e-08
-2.10019e-08
7.40263e-09
-1.82373e-08
-1.9788e-08
-2.59276e-10
4.88628e-09
1.66807e-08
2.00954e-08
1.77275e-08
1.27639e-08
7.3912e-09
1.31265e-08
3.19674e-10
-1.30777e-08
-9.76122e-09
4.44525e-09
1.05406e-08
1.56761e-08
1.31595e-08
-9.60146e-09
-9.97848e-09
)
;
    }
    inlet
    {
        type            calculated;
        value           nonuniform List<scalar> 
20
(
7.40263e-09
-8.00628e-09
-2.77113e-08
-2.50346e-08
-5.55146e-09
1.1762e-08
1.61573e-08
1.3428e-08
8.991e-09
9.04749e-09
1.28861e-08
1.7059e-08
1.80269e-08
1.0564e-08
-1.51739e-09
-1.05443e-08
-1.03445e-08
-8.47082e-09
-1.17138e-08
-1.54044e-08
)
;
    }
    outlet
    {
        type            calculated;
        value           uniform 0;
    }
    frontAndBack
    {
        type            empty;
    }
}


// ************************************************************************* //
