/*--------------------------------*- C++ -*----------------------------------*\
  =========                 |
  \\      /  F ield         | OpenFOAM: The Open Source CFD Toolbox
   \\    /   O peration     | Website:  https://openfoam.org
    \\  /    A nd           | Version:  9
     \\/     M anipulation  |
\*---------------------------------------------------------------------------*/
FoamFile
{
    format      ascii;
    class       volVectorField;
    location    "69";
    object      ddtCorrDdt0(hU);
}
// * * * * * * * * * * * * * * * * * * * * * * * * * * * * * * * * * * * * * //

dimensions      [0 2 -2 0 0 0 0];

internalField   nonuniform List<vector> 
400
(
(1.01974e-09 -1.72831e-10 0)
(1.02879e-09 1.06831e-09 0)
(3.11098e-09 -2.6343e-10 0)
(4.41606e-09 -1.17046e-09 0)
(2.82249e-09 -1.5045e-09 0)
(-6.71853e-10 -1.65485e-09 0)
(-4.40587e-09 -2.16256e-09 0)
(-3.90669e-09 -3.71166e-10 0)
(-1.34129e-09 5.5402e-10 0)
(-1.70554e-09 3.00539e-09 0)
(-8.70175e-10 4.46169e-09 0)
(-4.12336e-10 2.83799e-09 0)
(-2.20094e-10 3.58801e-09 0)
(-1.01985e-09 2.25504e-09 0)
(-2.55099e-09 2.71802e-09 0)
(-1.95784e-09 2.57255e-09 0)
(1.32908e-10 2.26236e-09 0)
(3.08705e-09 2.49315e-09 0)
(4.09911e-09 1.84358e-09 0)
(4.34474e-09 1.23188e-09 0)
(8.62126e-10 1.63532e-09 0)
(1.92775e-09 2.16806e-09 0)
(2.30498e-09 -1.59955e-09 0)
(2.85012e-09 -3.159e-09 0)
(2.19356e-09 -3.32084e-09 0)
(-1.15519e-09 -4.52949e-09 0)
(-2.74248e-09 -4.14669e-09 0)
(-2.57108e-09 -3.94569e-10 0)
(-8.73549e-10 4.85516e-09 0)
(1.20466e-09 5.87955e-09 0)
(-3.84315e-09 1.04404e-08 0)
(5.51644e-10 6.55691e-09 0)
(-3.89056e-10 6.01215e-09 0)
(-2.2956e-09 5.86285e-09 0)
(-3.22767e-09 6.35738e-09 0)
(-3.53055e-09 7.18159e-09 0)
(-1.26218e-10 6.43647e-09 0)
(3.56486e-09 4.44905e-09 0)
(5.31787e-09 2.71367e-09 0)
(3.04863e-09 1.41e-09 0)
(-1.37945e-09 3.53778e-09 0)
(7.16963e-10 8.24842e-10 0)
(4.45749e-10 -2.7311e-09 0)
(1.27805e-09 -2.73285e-09 0)
(6.21065e-10 -3.14698e-09 0)
(-4.28859e-10 -5.65927e-09 0)
(-9.96979e-10 -2.86494e-09 0)
(2.10726e-09 1.46846e-09 0)
(-1.54862e-09 7.39187e-09 0)
(2.23504e-09 5.01898e-09 0)
(-5.06097e-10 3.63561e-09 0)
(-3.16338e-09 6.95608e-09 0)
(4.67182e-09 -3.06794e-09 0)
(-4.85385e-10 1.27238e-09 0)
(-3.65443e-09 6.41631e-09 0)
(-3.97559e-09 9.55514e-09 0)
(-3.03049e-09 9.47703e-09 0)
(3.60334e-10 5.16158e-09 0)
(3.5865e-09 1.28597e-09 0)
(1.76169e-09 -1.72822e-12 0)
(-2.62958e-09 2.12948e-09 0)
(-1.54329e-09 -1.64712e-09 0)
(-1.0538e-09 -2.16378e-09 0)
(-8.82186e-10 -1.39023e-10 0)
(-8.78127e-10 -2.16343e-09 0)
(-9.8707e-11 -3.12905e-09 0)
(3.67973e-09 -1.20364e-09 0)
(2.04742e-09 4.87125e-09 0)
(4.10023e-09 -5.96993e-09 0)
(-8.69652e-09 5.02901e-09 0)
(1.09208e-08 -8.12849e-09 0)
(-4.13977e-09 -4.68564e-09 0)
(5.88776e-10 -7.0321e-09 0)
(1.36901e-08 -1.31977e-08 0)
(3.64712e-09 -2.52883e-09 0)
(-2.47904e-09 7.53414e-09 0)
(-3.60925e-09 9.07535e-09 0)
(-2.69468e-09 2.87415e-09 0)
(2.79411e-10 -2.87071e-09 0)
(8.42979e-10 -1.58937e-09 0)
(-2.09885e-09 -7.78609e-10 0)
(-2.74136e-09 -2.91618e-09 0)
(-2.05958e-09 -7.64987e-10 0)
(-2.68905e-09 1.11934e-09 0)
(-2.25088e-09 -7.33078e-11 0)
(1.47624e-09 -8.49454e-11 0)
(6.45946e-09 2.89507e-09 0)
(-1.01896e-09 -6.67055e-09 0)
(3.14727e-09 -1.00669e-08 0)
(7.31765e-10 -1.10454e-08 0)
(-1.71838e-08 1.81787e-09 0)
(1.54899e-08 -1.90209e-08 0)
(-7.25172e-09 -6.70548e-09 0)
(4.44026e-09 -1.03078e-08 0)
(1.99209e-08 -1.15137e-08 0)
(8.2479e-09 -1.47118e-09 0)
(-4.31108e-09 3.49825e-09 0)
(-7.51345e-09 -1.1431e-09 0)
(-2.45001e-09 -4.90484e-09 0)
(2.67976e-09 -2.03358e-09 0)
(-4.67935e-10 -3.48845e-09 0)
(-2.20346e-09 -2.8285e-09 0)
(-2.1217e-09 -1.50511e-11 0)
(-3.60151e-09 1.0756e-09 0)
(-2.77058e-09 1.36321e-09 0)
(3.9697e-09 3.00715e-09 0)
(8.96328e-11 -9.0639e-10 0)
(4.35199e-09 -1.50551e-08 0)
(-1.4981e-08 -5.60948e-09 0)
(1.62075e-08 -1.16349e-08 0)
(-1.21295e-08 9.13341e-10 0)
(-1.4171e-08 1.49387e-08 0)
(1.51269e-08 -1.07588e-08 0)
(-4.4392e-09 -3.00257e-09 0)
(5.61863e-09 -4.52972e-09 0)
(1.42195e-08 -5.13767e-09 0)
(3.34828e-09 -2.66286e-09 0)
(-6.11915e-09 -3.31123e-09 0)
(-5.22413e-09 -2.97163e-09 0)
(1.13673e-09 -6.41788e-10 0)
(1.20481e-09 -4.62623e-09 0)
(-2.28402e-10 -2.50696e-09 0)
(-1.56223e-09 -3.80048e-10 0)
(-3.70715e-09 4.11925e-10 0)
(-1.6276e-09 2.4731e-09 0)
(1.02105e-09 1.90317e-09 0)
(1.2858e-09 -6.18194e-09 0)
(-5.83605e-09 -5.33105e-09 0)
(6.29824e-09 -7.46399e-09 0)
(-3.07736e-08 3.1829e-08 0)
(5.98937e-08 -1.21963e-07 0)
(-2.30105e-08 2.08631e-08 0)
(-3.335e-08 1.07765e-08 0)
(5.06493e-09 -1.1056e-10 0)
(3.92838e-09 3.88821e-09 0)
(6.13528e-09 6.68545e-10 0)
(3.83296e-09 -3.48307e-09 0)
(-2.86283e-09 -5.19494e-09 0)
(-4.82905e-09 -2.65834e-09 0)
(-4.43572e-10 3.89505e-11 0)
(2.25665e-09 -3.70534e-09 0)
(1.54739e-09 -2.3512e-09 0)
(-7.76323e-10 -1.42963e-09 0)
(-2.77774e-09 -4.89735e-10 0)
(-2.39118e-09 2.69933e-09 0)
(8.49417e-10 -6.74454e-10 0)
(-5.3665e-10 -5.77871e-09 0)
(-1.68898e-09 4.07195e-09 0)
(1.51273e-08 1.20111e-08 0)
(-1.23174e-07 -1.84395e-08 0)
(4.5527e-07 1.24583e-07 0)
(1.71911e-07 -2.62172e-08 0)
(-2.12225e-08 -5.91347e-09 0)
(-1.64667e-08 7.28124e-09 0)
(3.54292e-10 9.2048e-09 0)
(1.56993e-09 7.08954e-09 0)
(-4.50142e-10 -1.42435e-09 0)
(-1.42735e-09 -4.05164e-09 0)
(-2.84616e-09 -2.09927e-09 0)
(-9.16571e-10 3.1802e-10 0)
(2.28618e-09 -1.83869e-09 0)
(2.32235e-09 -1.95761e-09 0)
(-4.08772e-10 -2.40891e-09 0)
(-1.88608e-09 -1.30644e-09 0)
(-2.30611e-09 2.13925e-09 0)
(-1.35668e-09 1.07461e-09 0)
(3.47212e-09 -1.8735e-09 0)
(5.67191e-09 4.54482e-09 0)
(-1.49453e-08 7.03367e-09 0)
(1.18196e-07 -2.05393e-08 0)
(-4.48869e-07 1.14068e-07 0)
(-1.72241e-07 -3.26819e-08 0)
(2.75101e-08 -6.74254e-09 0)
(2.50256e-08 3.48265e-09 0)
(4.70975e-09 5.54473e-09 0)
(-6.21772e-09 4.95671e-09 0)
(-1.08379e-08 2.96782e-09 0)
(-1.76197e-12 -4.37284e-10 0)
(-1.70358e-10 -7.97756e-10 0)
(-1.74411e-09 1.3707e-11 0)
(1.98647e-09 -2.66937e-10 0)
(1.67416e-09 -1.27262e-09 0)
(-4.87915e-10 -1.97526e-09 0)
(-8.41663e-10 -1.65865e-09 0)
(-1.07852e-09 2.15099e-09 0)
(-3.87101e-10 4.80074e-09 0)
(2.15732e-09 2.66552e-09 0)
(3.54716e-09 -3.92599e-09 0)
(-6.77827e-09 -1.41907e-08 0)
(3.01871e-08 1.18559e-08 0)
(-7.87098e-08 -8.88524e-08 0)
(3.55097e-08 2.13319e-08 0)
(3.72465e-08 7.4847e-09 0)
(1.67855e-09 -2.81174e-09 0)
(2.90055e-09 -3.8481e-09 0)
(-2.83944e-09 -6.14202e-09 0)
(1.02694e-09 -1.64311e-09 0)
(-1.60504e-09 -8.77614e-10 0)
(6.47156e-10 -9.78672e-11 0)
(2.28095e-09 -1.20836e-10 0)
(1.65851e-09 1.00607e-09 0)
(7.56822e-10 -1.88154e-10 0)
(-8.75317e-10 -2.4423e-10 0)
(4.2162e-10 2.69174e-12 0)
(1.21384e-09 8.6043e-10 0)
(-4.41701e-10 5.60113e-09 0)
(-8.67995e-10 4.00905e-09 0)
(-5.64342e-09 -7.1262e-09 0)
(-2.76042e-09 -1.10147e-08 0)
(8.07572e-10 -1.46953e-09 0)
(7.39755e-08 -1.00585e-07 0)
(-4.58846e-08 3.57043e-08 0)
(-1.75946e-08 -1.01802e-08 0)
(4.86381e-09 -6.27953e-09 0)
(-6.74749e-09 -8.59572e-09 0)
(-7.71996e-09 -1.01077e-08 0)
(5.58357e-10 -6.39644e-09 0)
(5.60777e-09 -7.18601e-10 0)
(4.84976e-09 9.84824e-10 0)
(2.17414e-09 1.42628e-10 0)
(1.35751e-09 2.26884e-09 0)
(-2.67465e-10 1.01517e-09 0)
(-6.08405e-10 1.71446e-09 0)
(6.77522e-10 2.14028e-09 0)
(2.37737e-09 1.46827e-10 0)
(-1.41775e-10 1.65822e-12 0)
(-3.08569e-09 3.25636e-09 0)
(-9.19792e-09 -4.41623e-11 0)
(1.36099e-08 9.71101e-09 0)
(-1.53494e-07 -8.5172e-09 0)
(-1.85094e-07 1.01965e-07 0)
(1.20562e-07 -3.54113e-08 0)
(-3.13269e-08 8.17979e-09 0)
(-2.95117e-09 3.34693e-09 0)
(-6.5438e-09 -3.71103e-09 0)
(-4.18781e-10 -1.18434e-09 0)
(7.46981e-09 1.2023e-09 0)
(8.43122e-09 3.8065e-09 0)
(4.3847e-09 3.03621e-09 0)
(1.56281e-09 2.186e-10 0)
(6.01494e-10 3.49737e-09 0)
(-1.13683e-09 2.27986e-09 0)
(-1.11667e-10 2.51744e-09 0)
(8.56983e-10 3.06091e-09 0)
(5.43442e-10 -4.85494e-10 0)
(1.58519e-11 -3.48874e-09 0)
(-3.56418e-09 -1.94738e-09 0)
(5.33363e-09 7.53481e-09 0)
(-2.66958e-08 1.35905e-08 0)
(1.67798e-07 1.32122e-08 0)
(1.51401e-07 7.71134e-08 0)
(-1.41138e-07 -1.16241e-08 0)
(4.26777e-08 1.28563e-08 0)
(-1.02666e-08 7.60402e-09 0)
(-8.63923e-09 6.55131e-09 0)
(7.48542e-10 5.86504e-09 0)
(5.08835e-09 4.9359e-09 0)
(4.53338e-09 5.76767e-09 0)
(9.51669e-10 3.99289e-09 0)
(-2.27044e-10 2.03393e-10 0)
(-8.72695e-10 4.40088e-09 0)
(-2.15778e-09 3.54919e-09 0)
(2.43935e-10 1.87015e-09 0)
(5.66065e-10 1.66134e-09 0)
(-7.44703e-10 -1.17375e-09 0)
(-2.09687e-09 -3.0217e-09 0)
(6.74907e-10 -1.46557e-09 0)
(9.84021e-10 3.46919e-09 0)
(1.44012e-08 2.20915e-09 0)
(-3.51743e-08 2.10259e-08 0)
(-2.27296e-08 -1.15039e-07 0)
(7.33992e-08 3.30596e-08 0)
(-2.88581e-09 3.89401e-09 0)
(-3.32683e-09 4.44916e-09 0)
(-1.32865e-09 5.12601e-09 0)
(-5.97412e-10 2.41008e-09 0)
(1.75623e-09 2.59276e-09 0)
(7.76941e-10 4.90472e-09 0)
(-1.82387e-09 3.65559e-09 0)
(-9.85082e-10 -5.95906e-12 0)
(-2.7012e-09 4.22462e-09 0)
(-3.53134e-09 4.06429e-09 0)
(-2.22922e-10 6.25325e-10 0)
(4.14922e-10 -1.00496e-09 0)
(-1.37839e-09 -1.31904e-09 0)
(-2.29342e-09 -5.12654e-10 0)
(-5.00943e-10 3.41462e-09 0)
(3.57527e-09 1.3027e-09 0)
(2.63797e-09 -3.31865e-10 0)
(-1.23388e-10 -1.32065e-08 0)
(1.39762e-08 4.17706e-08 0)
(-8.28255e-09 3.2405e-09 0)
(-2.60547e-09 2.64855e-09 0)
(-3.71465e-09 3.03102e-09 0)
(-5.28767e-09 -9.27088e-10 0)
(-8.05669e-10 -2.13464e-09 0)
(1.89421e-09 -8.89369e-10 0)
(9.00627e-11 2.38436e-09 0)
(-9.85564e-10 2.82336e-09 0)
(7.43433e-10 7.69432e-11 0)
(-3.91233e-09 2.33261e-09 0)
(-4.78442e-09 3.32485e-09 0)
(-1.30331e-09 3.20609e-10 0)
(1.75718e-10 -2.01917e-09 0)
(-6.28139e-10 -6.79991e-10 0)
(-1.36219e-09 2.33463e-09 0)
(-6.7585e-10 6.76939e-09 0)
(1.37641e-09 6.61339e-09 0)
(1.49628e-09 -2.17943e-09 0)
(3.34043e-09 -3.68294e-09 0)
(-2.55848e-09 -9.25212e-09 0)
(-3.2119e-09 -5.59033e-09 0)
(-4.80398e-09 -1.29769e-09 0)
(-7.23061e-09 -3.19414e-09 0)
(-3.62347e-09 -3.76122e-09 0)
(1.56325e-09 -3.43501e-09 0)
(3.19985e-09 -2.87997e-09 0)
(1.74029e-09 1.30197e-10 0)
(2.55504e-09 2.22018e-09 0)
(3.42148e-09 3.4685e-10 0)
(-3.62392e-09 -1.01514e-09 0)
(-4.87816e-09 1.79304e-09 0)
(-1.91498e-09 2.14925e-09 0)
(5.78817e-11 -1.55051e-10 0)
(3.92683e-10 7.34856e-10 0)
(-9.5324e-11 3.21911e-09 0)
(-1.19984e-10 6.2626e-09 0)
(1.851e-10 7.28091e-09 0)
(9.84646e-10 2.30213e-09 0)
(9.10211e-10 -2.41383e-09 0)
(-1.77762e-09 -5.70632e-09 0)
(-2.26872e-09 -2.72156e-09 0)
(-4.70876e-09 -1.97681e-09 0)
(-4.18553e-09 -1.31197e-09 0)
(-1.14857e-12 -1.20262e-09 0)
(3.61221e-09 -1.95924e-09 0)
(3.99262e-09 -3.20223e-09 0)
(3.30947e-09 -1.05619e-09 0)
(5.02766e-09 2.09769e-09 0)
(4.5099e-09 7.30367e-10 0)
(-1.9585e-09 -4.60537e-09 0)
(-2.38702e-09 5.72017e-10 0)
(-9.61622e-10 4.90803e-09 0)
(4.08649e-10 3.35631e-09 0)
(7.94446e-10 1.2797e-09 0)
(3.80069e-10 2.03517e-09 0)
(-2.15396e-10 2.95594e-09 0)
(-9.86962e-11 3.48798e-09 0)
(1.20645e-09 1.88892e-09 0)
(1.61601e-09 -7.23819e-10 0)
(1.18507e-09 -5.49435e-10 0)
(-1.50603e-09 1.86242e-10 0)
(-3.74386e-09 1.85057e-09 0)
(-1.81755e-09 3.38407e-09 0)
(1.34596e-09 2.85567e-09 0)
(2.50656e-09 2.89911e-10 0)
(2.35697e-09 -2.15021e-09 0)
(3.32717e-09 -3.87884e-10 0)
(4.87745e-09 2.79994e-09 0)
(2.63618e-09 1.20315e-09 0)
(4.99821e-10 -6.40055e-09 0)
(2.44668e-09 -4.50822e-10 0)
(1.71051e-09 5.82944e-09 0)
(8.5901e-10 5.39321e-09 0)
(3.52549e-10 1.48504e-09 0)
(-2.61262e-10 1.28591e-10 0)
(-1.20907e-09 -8.68149e-11 0)
(-9.59993e-10 -4.67093e-10 0)
(8.68857e-10 -1.24799e-09 0)
(2.35447e-09 -1.94412e-09 0)
(1.16474e-09 -1.4348e-09 0)
(-1.77478e-09 -6.01251e-10 0)
(-2.07088e-09 2.14646e-09 0)
(-3.79209e-10 4.32466e-09 0)
(6.9516e-10 3.85695e-09 0)
(2.28071e-10 1.13341e-09 0)
(6.1658e-10 -1.00708e-09 0)
(2.25593e-09 3.18319e-10 0)
(1.72611e-09 2.36987e-09 0)
(-1.87324e-09 1.00769e-09 0)
(2.62289e-09 -3.26886e-09 0)
(7.03971e-09 -5.186e-10 0)
(4.5794e-09 2.70592e-09 0)
(1.42804e-09 2.84042e-09 0)
(-5.1463e-10 8.58328e-10 0)
(-1.37482e-09 -2.79999e-10 0)
(-2.49673e-09 -6.85771e-10 0)
(-2.03658e-09 -1.00316e-09 0)
(1.10805e-10 -1.32148e-09 0)
(1.69574e-09 -1.40474e-09 0)
(3.39224e-10 -1.49813e-09 0)
(-1.22265e-09 -6.01067e-10 0)
(-1.34828e-09 8.10223e-10 0)
(-3.02783e-10 1.72752e-09 0)
(-1.83673e-10 1.61543e-09 0)
(-1.43427e-09 5.41621e-10 0)
(-9.42935e-10 -3.8148e-10 0)
(5.10452e-10 -3.97203e-11 0)
(-1.32484e-09 6.31633e-10 0)
(-4.93672e-09 3.02364e-10 0)
)
;

boundaryField
{
    sides
    {
        type            calculated;
        value           nonuniform List<vector> 
40
(
(2.62289e-09 0 0)
(7.03971e-09 0 0)
(4.5794e-09 0 0)
(1.42804e-09 0 0)
(-5.1463e-10 0 0)
(-1.37482e-09 0 0)
(-2.49673e-09 0 0)
(-2.03658e-09 0 0)
(1.10805e-10 0 0)
(1.69574e-09 0 0)
(3.39224e-10 0 0)
(-1.22265e-09 0 0)
(-1.34828e-09 0 0)
(-3.02783e-10 0 0)
(-1.83673e-10 0 0)
(-1.43427e-09 0 0)
(-9.42935e-10 0 0)
(5.10452e-10 0 0)
(-1.32484e-09 0 0)
(-4.93672e-09 0 0)
(1.01974e-09 0 0)
(1.02879e-09 0 0)
(3.11098e-09 0 0)
(4.41606e-09 0 0)
(2.82249e-09 0 0)
(-6.71853e-10 0 0)
(-4.40587e-09 0 0)
(-3.90669e-09 0 0)
(-1.34129e-09 0 0)
(-1.70554e-09 0 0)
(-8.70175e-10 0 0)
(-4.12336e-10 0 0)
(-2.20094e-10 0 0)
(-1.01985e-09 0 0)
(-2.55099e-09 0 0)
(-1.95784e-09 0 0)
(1.32908e-10 0 0)
(3.08705e-09 0 0)
(4.09911e-09 0 0)
(4.34474e-09 0 0)
)
;
    }
    inlet
    {
        type            calculated;
        value           uniform (0 0 0);
    }
    outlet
    {
        type            calculated;
        value           nonuniform List<vector> 
20
(
(4.34474e-09 1.23188e-09 0)
(3.04863e-09 1.41e-09 0)
(1.76169e-09 -1.72822e-12 0)
(8.42979e-10 -1.58937e-09 0)
(2.67976e-09 -2.03358e-09 0)
(1.13673e-09 -6.41788e-10 0)
(-4.43572e-10 3.89505e-11 0)
(-9.16571e-10 3.1802e-10 0)
(-1.74411e-09 1.3707e-11 0)
(2.28095e-09 -1.20836e-10 0)
(2.17414e-09 1.42628e-10 0)
(1.56281e-09 2.186e-10 0)
(-2.27044e-10 2.03393e-10 0)
(-9.85082e-10 -5.95906e-12 0)
(7.43433e-10 7.69432e-11 0)
(3.42148e-09 3.4685e-10 0)
(4.5099e-09 7.30367e-10 0)
(2.63618e-09 1.20315e-09 0)
(-1.87324e-09 1.00769e-09 0)
(-4.93672e-09 3.02364e-10 0)
)
;
    }
    frontAndBack
    {
        type            empty;
    }
}


// ************************************************************************* //
