/*--------------------------------*- C++ -*----------------------------------*\
  =========                 |
  \\      /  F ield         | OpenFOAM: The Open Source CFD Toolbox
   \\    /   O peration     | Website:  https://openfoam.org
    \\  /    A nd           | Version:  9
     \\/     M anipulation  |
\*---------------------------------------------------------------------------*/
FoamFile
{
    format      ascii;
    class       volVectorField;
    location    "69";
    object      hU;
}
// * * * * * * * * * * * * * * * * * * * * * * * * * * * * * * * * * * * * * //

dimensions      [0 2 -1 0 0 0 0];

internalField   nonuniform List<vector> 
400
(
(0.001 -2.43993e-08 0)
(0.00100004 -7.03582e-08 0)
(0.00100012 -1.12842e-07 0)
(0.00100024 -1.52094e-07 0)
(0.00100039 -1.87306e-07 0)
(0.00100058 -2.17183e-07 0)
(0.00100078 -2.37615e-07 0)
(0.00100099 -2.45802e-07 0)
(0.00100118 -2.36412e-07 0)
(0.00100132 -2.1112e-07 0)
(0.0010014 -1.68484e-07 0)
(0.00100139 -1.28421e-07 0)
(0.00100129 -9.85611e-08 0)
(0.00100111 -9.25001e-08 0)
(0.00100087 -9.91304e-08 0)
(0.00100064 -1.35309e-07 0)
(0.00100043 -1.56436e-07 0)
(0.00100034 -2.0086e-07 0)
(0.00100026 -1.88226e-07 0)
(0.00100033 -2.6821e-07 0)
(0.001 -2.67763e-08 0)
(0.00100005 -7.83337e-08 0)
(0.00100013 -1.27495e-07 0)
(0.00100026 -1.7351e-07 0)
(0.00100042 -2.13439e-07 0)
(0.00100062 -2.41535e-07 0)
(0.00100084 -2.47601e-07 0)
(0.00100108 -2.21372e-07 0)
(0.0010013 -1.54312e-07 0)
(0.00100147 -4.70044e-08 0)
(0.00100156 9.45698e-08 0)
(0.00100154 2.48095e-07 0)
(0.00100141 3.90624e-07 0)
(0.00100119 4.78341e-07 0)
(0.00100092 5.06627e-07 0)
(0.00100066 4.52801e-07 0)
(0.00100048 3.78325e-07 0)
(0.00100036 2.56712e-07 0)
(0.00100033 2.05687e-07 0)
(0.00100028 8.14996e-08 0)
(0.001 -5.22239e-08 0)
(0.00100005 -1.58508e-07 0)
(0.00100013 -2.66129e-07 0)
(0.00100026 -3.73023e-07 0)
(0.00100043 -4.73741e-07 0)
(0.00100064 -5.57206e-07 0)
(0.0010009 -6.05605e-07 0)
(0.00100117 -5.983e-07 0)
(0.00100143 -5.1685e-07 0)
(0.00100164 -3.50368e-07 0)
(0.00100176 -1.08944e-07 0)
(0.00100175 1.63159e-07 0)
(0.00100159 4.02434e-07 0)
(0.0010013 5.21843e-07 0)
(0.00100094 5.01609e-07 0)
(0.00100062 3.55282e-07 0)
(0.00100036 2.03255e-07 0)
(0.00100026 4.55416e-08 0)
(0.00100022 -3.13855e-09 0)
(0.00100029 -1.16828e-07 0)
(0.001 -7.29468e-08 0)
(0.00100004 -2.21908e-07 0)
(0.00100013 -3.74191e-07 0)
(0.00100026 -5.29522e-07 0)
(0.00100045 -6.80679e-07 0)
(0.00100069 -8.11516e-07 0)
(0.001001 -8.90701e-07 0)
(0.00100134 -8.85417e-07 0)
(0.00100171 -7.5472e-07 0)
(0.00100203 -4.73709e-07 0)
(0.00100222 -2.35443e-08 0)
(0.00100219 4.91869e-07 0)
(0.00100192 9.36202e-07 0)
(0.00100146 1.1398e-06 0)
(0.00100097 1.05593e-06 0)
(0.00100058 7.44272e-07 0)
(0.00100041 4.23645e-07 0)
(0.00100035 1.69043e-07 0)
(0.0010004 1.01721e-07 0)
(0.00100034 5.71075e-10 0)
(0.001 -9.042e-08 0)
(0.00100004 -2.7761e-07 0)
(0.00100012 -4.76205e-07 0)
(0.00100025 -6.92808e-07 0)
(0.00100044 -9.20468e-07 0)
(0.00100072 -1.1402e-06 0)
(0.00100109 -1.29963e-06 0)
(0.00100155 -1.33733e-06 0)
(0.00100207 -1.17524e-06 0)
(0.00100257 -7.78875e-07 0)
(0.0010029 -1.71565e-07 0)
(0.00100288 5.75895e-07 0)
(0.00100244 1.22888e-06 0)
(0.00100167 1.51053e-06 0)
(0.00100086 1.37486e-06 0)
(0.00100031 9.64665e-07 0)
(0.00100013 5.80256e-07 0)
(0.00100021 3.12297e-07 0)
(0.00100036 2.61173e-07 0)
(0.00100043 1.67919e-07 0)
(0.001 -1.03132e-07 0)
(0.00100003 -3.18064e-07 0)
(0.00100009 -5.61095e-07 0)
(0.00100019 -8.43336e-07 0)
(0.00100038 -1.17223e-06 0)
(0.00100068 -1.52552e-06 0)
(0.00100115 -1.86e-06 0)
(0.00100178 -2.05515e-06 0)
(0.00100254 -1.91215e-06 0)
(0.00100326 -1.20098e-06 0)
(0.00100377 8.21167e-08 0)
(0.00100377 1.5405e-06 0)
(0.00100309 2.4313e-06 0)
(0.00100192 2.30404e-06 0)
(0.00100082 1.42975e-06 0)
(0.00100019 4.91682e-07 0)
(0.00100017 1.12391e-08 0)
(0.00100037 -8.79657e-08 0)
(0.00100063 5.88515e-08 0)
(0.00100054 4.98075e-08 0)
(0.001 -1.02782e-07 0)
(0.001 -3.3302e-07 0)
(0.00100002 -6.00774e-07 0)
(0.00100008 -9.607e-07 0)
(0.00100021 -1.39184e-06 0)
(0.00100048 -1.94689e-06 0)
(0.001001 -2.49088e-06 0)
(0.00100188 -3.08527e-06 0)
(0.00100321 -3.23399e-06 0)
(0.00100473 -2.87816e-06 0)
(0.00100574 -6.79097e-07 0)
(0.00100535 2.55422e-06 0)
(0.00100349 4.82749e-06 0)
(0.00100112 4.73683e-06 0)
(0.000999607 3.02917e-06 0)
(0.00099937 1.26372e-06 0)
(0.001 4.28796e-07 0)
(0.00100056 3.23738e-07 0)
(0.00100092 5.60758e-07 0)
(0.00100065 5.33864e-07 0)
(0.000999996 -9.28685e-08 0)
(0.000999968 -2.88308e-07 0)
(0.000999907 -5.76046e-07 0)
(0.000999875 -9.55864e-07 0)
(0.000999878 -1.57714e-06 0)
(0.0010001 -2.34582e-06 0)
(0.0010005 -3.40452e-06 0)
(0.00100152 -4.12553e-06 0)
(0.00100308 -4.37164e-06 0)
(0.00100601 -2.55068e-06 0)
(0.00100911 7.61124e-07 0)
(0.00100916 4.26478e-06 0)
(0.0010055 4.71836e-06 0)
(0.00100073 2.78381e-06 0)
(0.000998149 7.37159e-07 0)
(0.000998272 -2.73906e-07 0)
(0.000999795 -2.87353e-07 0)
(0.00100087 -1.17583e-08 0)
(0.00100133 2.11106e-07 0)
(0.00100085 1.02798e-07 0)
(0.000999995 -4.93413e-08 0)
(0.000999915 -2.03373e-07 0)
(0.000999755 -3.85927e-07 0)
(0.000999531 -7.34585e-07 0)
(0.000999287 -1.3385e-06 0)
(0.00099921 -2.48212e-06 0)
(0.000999706 -4.68882e-06 0)
(0.00100139 -8.06881e-06 0)
(0.00100491 -1.32847e-05 0)
(0.00100958 -1.49145e-05 0)
(0.00101189 3.84845e-06 0)
(0.00100892 1.87266e-05 0)
(0.00100221 1.57806e-05 0)
(0.000997566 5.7427e-06 0)
(0.000996883 -3.14933e-07 0)
(0.000998458 -1.26279e-06 0)
(0.00100027 -9.4718e-08 0)
(0.001001 6.33732e-07 0)
(0.00100107 6.51389e-07 0)
(0.00100054 2.43607e-07 0)
(0.000999804 -1.96239e-08 0)
(0.00100017 -6.62768e-08 0)
(0.000999215 -1.5114e-07 0)
(0.000999904 -2.48742e-07 0)
(0.000997521 -5.92441e-07 0)
(0.000998843 -1.13148e-06 0)
(0.000993346 -2.88364e-06 0)
(0.00099753 -5.5931e-06 0)
(0.000991666 -1.15438e-05 0)
(0.000915833 -1.27066e-05 0)
(0.000951462 2.66322e-07 0)
(0.00101023 1.46384e-05 0)
(0.000990951 1.30836e-05 0)
(0.000983973 5.14004e-06 0)
(0.000989584 1.93421e-07 0)
(0.000996279 -7.82095e-07 0)
(0.000999234 -1.11752e-07 0)
(0.000999409 2.48116e-07 0)
(0.000998645 1.7404e-07 0)
(0.000998503 -1.85202e-07 0)
(0.000999804 1.34221e-08 0)
(0.00100017 4.6131e-08 0)
(0.000999215 1.17421e-07 0)
(0.000999902 1.99729e-07 0)
(0.000997519 5.29103e-07 0)
(0.000998838 1.05168e-06 0)
(0.000993338 2.7871e-06 0)
(0.000997517 5.47321e-06 0)
(0.000991648 1.13954e-05 0)
(0.000915808 1.25466e-05 0)
(0.000951431 -4.77755e-07 0)
(0.0010102 -1.49084e-05 0)
(0.000990944 -1.34098e-05 0)
(0.000983965 -5.53681e-06 0)
(0.000989565 -6.49356e-07 0)
(0.000996241 2.47437e-07 0)
(0.000999194 -4.72659e-07 0)
(0.000999365 -1.00197e-06 0)
(0.000998631 -9.88803e-07 0)
(0.000998452 -8.89086e-07 0)
(0.000999995 4.30719e-08 0)
(0.000999914 1.83864e-07 0)
(0.000999754 3.53128e-07 0)
(0.00099953 6.87064e-07 0)
(0.000999286 1.2764e-06 0)
(0.00099921 2.40166e-06 0)
(0.000999701 4.58934e-06 0)
(0.00100139 7.94228e-06 0)
(0.0010049 1.31322e-05 0)
(0.00100957 1.47199e-05 0)
(0.00101188 -4.06046e-06 0)
(0.0010089 -1.90022e-05 0)
(0.00100214 -1.60929e-05 0)
(0.000997476 -6.12186e-06 0)
(0.000996813 -8.4427e-08 0)
(0.0009984 7.7537e-07 0)
(0.00100017 -4.26839e-07 0)
(0.00100085 -1.30424e-06 0)
(0.00100088 -1.37955e-06 0)
(0.00100036 -1.25147e-06 0)
(0.000999996 8.66357e-08 0)
(0.000999967 2.6981e-07 0)
(0.000999905 5.44289e-07 0)
(0.000999871 9.09855e-07 0)
(0.00099987 1.51357e-06 0)
(0.00100008 2.26151e-06 0)
(0.00100048 3.29344e-06 0)
(0.00100149 3.99057e-06 0)
(0.00100303 4.21193e-06 0)
(0.00100595 2.36814e-06 0)
(0.00100902 -9.73477e-07 0)
(0.00100906 -4.53327e-06 0)
(0.00100542 -5.01508e-06 0)
(0.00100066 -3.12727e-06 0)
(0.000998055 -1.13053e-06 0)
(0.000998133 -2.50828e-07 0)
(0.000999621 -3.21643e-07 0)
(0.00100064 -7.40157e-07 0)
(0.00100106 -9.6743e-07 0)
(0.00100055 -1.07476e-06 0)
(0.001 9.69339e-08 0)
(0.001 3.15324e-07 0)
(0.00100002 5.70786e-07 0)
(0.00100007 9.1672e-07 0)
(0.0010002 1.33321e-06 0)
(0.00100046 1.87098e-06 0)
(0.00100097 2.39896e-06 0)
(0.00100185 2.97488e-06 0)
(0.00100318 3.11064e-06 0)
(0.00100468 2.73235e-06 0)
(0.00100568 5.05849e-07 0)
(0.00100528 -2.75003e-06 0)
(0.00100338 -5.07451e-06 0)
(0.00100096 -5.06887e-06 0)
(0.000999407 -3.44863e-06 0)
(0.00099912 -1.79345e-06 0)
(0.000999743 -1.01938e-06 0)
(0.00100025 -1.05712e-06 0)
(0.00100061 -1.30697e-06 0)
(0.00100023 -1.51632e-06 0)
(0.001 9.81387e-08 0)
(0.00100003 3.02312e-07 0)
(0.00100008 5.3438e-07 0)
(0.00100018 8.04278e-07 0)
(0.00100036 1.12056e-06 0)
(0.00100066 1.45939e-06 0)
(0.00100112 1.77913e-06 0)
(0.00100174 1.95119e-06 0)
(0.00100248 1.78141e-06 0)
(0.00100317 1.0327e-06 0)
(0.00100366 -2.76599e-07 0)
(0.00100363 -1.77959e-06 0)
(0.00100292 -2.70837e-06 0)
(0.0010017 -2.63072e-06 0)
(0.00100058 -1.77882e-06 0)
(0.000999902 -8.94924e-07 0)
(0.000999857 -4.25485e-07 0)
(0.000999979 -4.45661e-07 0)
(0.00100021 -6.16035e-07 0)
(0.001 -8.49286e-07 0)
(0.001 8.62023e-08 0)
(0.00100004 2.63898e-07 0)
(0.00100011 4.52982e-07 0)
(0.00100024 6.59738e-07 0)
(0.00100043 8.76514e-07 0)
(0.0010007 1.08449e-06 0)
(0.00100106 1.2312e-06 0)
(0.0010015 1.25394e-06 0)
(0.001002 1.07318e-06 0)
(0.00100248 6.56012e-07 0)
(0.0010028 1.77676e-08 0)
(0.00100274 -7.69113e-07 0)
(0.00100227 -1.4484e-06 0)
(0.00100146 -1.77378e-06 0)
(0.00100062 -1.66811e-06 0)
(0.001 -1.34767e-06 0)
(0.000999792 -1.02766e-06 0)
(0.000999764 -9.34963e-07 0)
(0.000999882 -9.45302e-07 0)
(0.000999764 -1.10924e-06 0)
(0.001 6.91015e-08 0)
(0.00100004 2.09385e-07 0)
(0.00100012 3.53101e-07 0)
(0.00100025 4.99935e-07 0)
(0.00100043 6.43156e-07 0)
(0.00100066 7.65991e-07 0)
(0.00100096 8.38697e-07 0)
(0.00100129 8.27009e-07 0)
(0.00100163 6.91495e-07 0)
(0.00100191 4.06085e-07 0)
(0.00100206 -4.63518e-08 0)
(0.001002 -5.74571e-07 0)
(0.00100171 -1.03425e-06 0)
(0.0010012 -1.28098e-06 0)
(0.00100065 -1.22967e-06 0)
(0.00100016 -9.93948e-07 0)
(0.000999913 -7.00861e-07 0)
(0.000999738 -5.5585e-07 0)
(0.00099975 -4.88035e-07 0)
(0.000999557 -5.99321e-07 0)
(0.001 4.98696e-08 0)
(0.00100004 1.49388e-07 0)
(0.00100012 2.46227e-07 0)
(0.00100025 3.38102e-07 0)
(0.00100041 4.21189e-07 0)
(0.00100062 4.83686e-07 0)
(0.00100086 5.09413e-07 0)
(0.00100112 4.73838e-07 0)
(0.00100137 3.614e-07 0)
(0.00100157 1.55719e-07 0)
(0.00100167 -1.16024e-07 0)
(0.0010016 -4.19834e-07 0)
(0.00100139 -6.80487e-07 0)
(0.00100103 -8.41922e-07 0)
(0.00100063 -8.50154e-07 0)
(0.00100022 -7.70646e-07 0)
(0.000999948 -6.37658e-07 0)
(0.000999687 -5.96845e-07 0)
(0.000999626 -5.62756e-07 0)
(0.000999384 -6.85728e-07 0)
(0.001 3.38758e-08 0)
(0.00100004 1.0424e-07 0)
(0.00100011 1.74376e-07 0)
(0.00100023 2.41744e-07 0)
(0.00100038 3.02222e-07 0)
(0.00100056 3.50038e-07 0)
(0.00100077 3.75734e-07 0)
(0.00100097 3.68931e-07 0)
(0.00100116 3.19559e-07 0)
(0.0010013 2.2371e-07 0)
(0.00100136 8.59786e-08 0)
(0.00100131 -7.01532e-08 0)
(0.00100115 -2.05629e-07 0)
(0.00100086 -2.96988e-07 0)
(0.00100053 -3.12214e-07 0)
(0.00100016 -2.81815e-07 0)
(0.000999898 -2.02876e-07 0)
(0.000999611 -1.69403e-07 0)
(0.000999515 -1.19963e-07 0)
(0.000999246 -1.99206e-07 0)
(0.001 -4.45444e-09 0)
(0.00100004 -1.01211e-08 0)
(0.00100012 -1.29106e-08 0)
(0.00100024 -1.46075e-08 0)
(0.00100038 -1.70212e-08 0)
(0.00100056 -2.27924e-08 0)
(0.00100075 -3.36745e-08 0)
(0.00100094 -5.34279e-08 0)
(0.00100111 -8.19385e-08 0)
(0.00100123 -1.22437e-07 0)
(0.00100128 -1.70087e-07 0)
(0.00100121 -2.31278e-07 0)
(0.00100107 -2.90422e-07 0)
(0.00100081 -3.41178e-07 0)
(0.00100053 -3.59568e-07 0)
(0.00100018 -3.67953e-07 0)
(0.000999942 -3.42525e-07 0)
(0.000999607 -3.53245e-07 0)
(0.00099952 -3.28539e-07 0)
(0.000999128 -4.10936e-07 0)
)
;

boundaryField
{
    sides
    {
        type            slip;
    }
    inlet
    {
        type            fixedValue;
        value           uniform (0.001 0 0);
    }
    outlet
    {
        type            zeroGradient;
    }
    frontAndBack
    {
        type            empty;
    }
}


// ************************************************************************* //
