/*--------------------------------*- C++ -*----------------------------------*\
  =========                 |
  \\      /  F ield         | OpenFOAM: The Open Source CFD Toolbox
   \\    /   O peration     | Website:  https://openfoam.org
    \\  /    A nd           | Version:  9
     \\/     M anipulation  |
\*---------------------------------------------------------------------------*/
FoamFile
{
    format      ascii;
    class       volVectorField;
    location    "69";
    object      hU_0;
}
// * * * * * * * * * * * * * * * * * * * * * * * * * * * * * * * * * * * * * //

dimensions      [0 2 -1 0 0 0 0];

internalField   nonuniform List<vector> 
400
(
(0.001 -2.44587e-08 0)
(0.00100004 -7.04294e-08 0)
(0.00100012 -1.12749e-07 0)
(0.00100024 -1.51967e-07 0)
(0.00100039 -1.8717e-07 0)
(0.00100058 -2.17043e-07 0)
(0.00100078 -2.37449e-07 0)
(0.00100099 -2.45805e-07 0)
(0.00100118 -2.36559e-07 0)
(0.00100133 -2.11412e-07 0)
(0.0010014 -1.69009e-07 0)
(0.00100139 -1.28689e-07 0)
(0.00100129 -9.88463e-08 0)
(0.00100111 -9.26999e-08 0)
(0.00100087 -9.9376e-08 0)
(0.00100064 -1.3559e-07 0)
(0.00100043 -1.5671e-07 0)
(0.00100034 -2.01103e-07 0)
(0.00100026 -1.88312e-07 0)
(0.00100033 -2.68268e-07 0)
(0.001 -2.70609e-08 0)
(0.00100005 -7.84572e-08 0)
(0.00100013 -1.27221e-07 0)
(0.00100026 -1.73199e-07 0)
(0.00100042 -2.13138e-07 0)
(0.00100062 -2.41152e-07 0)
(0.00100084 -2.47339e-07 0)
(0.00100108 -2.21459e-07 0)
(0.0010013 -1.54878e-07 0)
(0.00100147 -4.75988e-08 0)
(0.00100156 9.36468e-08 0)
(0.00100154 2.47422e-07 0)
(0.00100141 3.90284e-07 0)
(0.00100119 4.77953e-07 0)
(0.00100092 5.06074e-07 0)
(0.00100066 4.52077e-07 0)
(0.00100048 3.77579e-07 0)
(0.00100036 2.56198e-07 0)
(0.00100033 2.05526e-07 0)
(0.00100028 8.14572e-08 0)
(0.001 -5.25769e-08 0)
(0.00100005 -1.58513e-07 0)
(0.00100013 -2.65829e-07 0)
(0.00100026 -3.72783e-07 0)
(0.00100043 -4.73428e-07 0)
(0.00100064 -5.56789e-07 0)
(0.0010009 -6.05482e-07 0)
(0.00100117 -5.98629e-07 0)
(0.00100143 -5.17268e-07 0)
(0.00100164 -3.50955e-07 0)
(0.00100176 -1.08951e-07 0)
(0.00100175 1.62647e-07 0)
(0.00100159 4.02812e-07 0)
(0.0010013 5.22157e-07 0)
(0.00100094 5.01246e-07 0)
(0.00100062 3.54423e-07 0)
(0.00100036 2.02272e-07 0)
(0.00100026 4.4938e-08 0)
(0.00100022 -3.27981e-09 0)
(0.00100029 -1.16801e-07 0)
(0.001 -7.30237e-08 0)
(0.00100004 -2.21728e-07 0)
(0.00100013 -3.74059e-07 0)
(0.00100026 -5.29505e-07 0)
(0.00100045 -6.80473e-07 0)
(0.00100069 -8.11333e-07 0)
(0.001001 -8.90761e-07 0)
(0.00100134 -8.85613e-07 0)
(0.00100171 -7.54015e-07 0)
(0.00100203 -4.73777e-07 0)
(0.00100222 -2.32527e-08 0)
(0.00100219 4.92732e-07 0)
(0.00100192 9.36771e-07 0)
(0.00100146 1.141e-06 0)
(0.00100097 1.05649e-06 0)
(0.00100058 7.43795e-07 0)
(0.00100041 4.22824e-07 0)
(0.00100035 1.68716e-07 0)
(0.0010004 1.01911e-07 0)
(0.00100034 6.84325e-10 0)
(0.001 -9.01972e-08 0)
(0.00100004 -2.77339e-07 0)
(0.00100012 -4.762e-07 0)
(0.00100025 -6.92886e-07 0)
(0.00100044 -9.20477e-07 0)
(0.00100072 -1.14031e-06 0)
(0.00100109 -1.29981e-06 0)
(0.00100155 -1.33622e-06 0)
(0.00100207 -1.1746e-06 0)
(0.00100256 -7.77567e-07 0)
(0.0010029 -1.71926e-07 0)
(0.00100288 5.76934e-07 0)
(0.00100244 1.22966e-06 0)
(0.00100167 1.51113e-06 0)
(0.00100086 1.37573e-06 0)
(0.0010003 9.64942e-07 0)
(0.00100013 5.80067e-07 0)
(0.00100021 3.12393e-07 0)
(0.00100036 2.61503e-07 0)
(0.00100043 1.68025e-07 0)
(0.001 -1.02749e-07 0)
(0.00100003 -3.17799e-07 0)
(0.00100009 -5.61073e-07 0)
(0.00100019 -8.4338e-07 0)
(0.00100038 -1.17239e-06 0)
(0.00100068 -1.52582e-06 0)
(0.00100115 -1.85957e-06 0)
(0.00100178 -2.05388e-06 0)
(0.00100254 -1.9114e-06 0)
(0.00100326 -1.20127e-06 0)
(0.00100377 8.38531e-08 0)
(0.00100378 1.53883e-06 0)
(0.00100309 2.43157e-06 0)
(0.00100192 2.30423e-06 0)
(0.00100082 1.42984e-06 0)
(0.00100019 4.91984e-07 0)
(0.00100017 1.15249e-08 0)
(0.00100037 -8.76614e-08 0)
(0.00100064 5.90255e-08 0)
(0.00100054 4.9797e-08 0)
(0.001 -1.02391e-07 0)
(0.001 -3.32775e-07 0)
(0.00100002 -6.00653e-07 0)
(0.00100008 -9.60683e-07 0)
(0.00100021 -1.39207e-06 0)
(0.00100048 -1.94696e-06 0)
(0.001001 -2.49028e-06 0)
(0.00100188 -3.08492e-06 0)
(0.00100321 -3.23353e-06 0)
(0.00100473 -2.88062e-06 0)
(0.00100574 -6.70301e-07 0)
(0.00100535 2.55506e-06 0)
(0.0010035 4.82645e-06 0)
(0.00100112 4.73667e-06 0)
(0.000999607 3.02879e-06 0)
(0.000999369 1.2635e-06 0)
(0.001 4.28964e-07 0)
(0.00100056 3.24165e-07 0)
(0.00100092 5.60991e-07 0)
(0.00100065 5.3385e-07 0)
(0.000999996 -9.25862e-08 0)
(0.000999968 -2.88064e-07 0)
(0.000999907 -5.75823e-07 0)
(0.000999875 -9.55798e-07 0)
(0.000999878 -1.57735e-06 0)
(0.0010001 -2.34566e-06 0)
(0.0010005 -3.40425e-06 0)
(0.00100152 -4.12604e-06 0)
(0.00100308 -4.37245e-06 0)
(0.00100601 -2.54848e-06 0)
(0.00100912 7.50763e-07 0)
(0.00100914 4.26493e-06 0)
(0.0010055 4.71958e-06 0)
(0.00100073 2.78364e-06 0)
(0.000998149 7.36582e-07 0)
(0.000998272 -2.74553e-07 0)
(0.000999795 -2.87382e-07 0)
(0.00100087 -1.14248e-08 0)
(0.00100133 2.1136e-07 0)
(0.00100085 1.02812e-07 0)
(0.000999995 -4.91971e-08 0)
(0.000999914 -2.0315e-07 0)
(0.000999755 -3.85648e-07 0)
(0.000999531 -7.34488e-07 0)
(0.000999287 -1.33871e-06 0)
(0.00099921 -2.48219e-06 0)
(0.000999706 -4.68879e-06 0)
(0.00100139 -8.06929e-06 0)
(0.00100491 -1.32851e-05 0)
(0.00100958 -1.49119e-05 0)
(0.00101188 3.83829e-06 0)
(0.00100893 1.87273e-05 0)
(0.00100222 1.57818e-05 0)
(0.000997564 5.74281e-06 0)
(0.000996882 -3.15226e-07 0)
(0.000998458 -1.26324e-06 0)
(0.00100027 -9.49696e-08 0)
(0.001001 6.33817e-07 0)
(0.00100107 6.51586e-07 0)
(0.00100054 2.4368e-07 0)
(0.000999804 -1.95776e-08 0)
(0.00100017 -6.61325e-08 0)
(0.000999215 -1.50934e-07 0)
(0.000999904 -2.48641e-07 0)
(0.000997521 -5.92726e-07 0)
(0.000998843 -1.13192e-06 0)
(0.000993346 -2.88374e-06 0)
(0.00099753 -5.59261e-06 0)
(0.000991667 -1.15428e-05 0)
(0.00091583 -1.2708e-05 0)
(0.000951466 2.73715e-07 0)
(0.00101023 1.4638e-05 0)
(0.000990948 1.30823e-05 0)
(0.000983972 5.13985e-06 0)
(0.000989583 1.93445e-07 0)
(0.000996279 -7.81718e-07 0)
(0.000999234 -1.11549e-07 0)
(0.000999409 2.48336e-07 0)
(0.000998645 1.74209e-07 0)
(0.000998503 -1.85123e-07 0)
(0.000999804 1.33735e-08 0)
(0.00100017 4.61384e-08 0)
(0.000999215 1.17419e-07 0)
(0.000999902 1.99721e-07 0)
(0.000997518 5.28925e-07 0)
(0.000998838 1.05113e-06 0)
(0.000993338 2.78701e-06 0)
(0.000997518 5.47386e-06 0)
(0.000991648 1.13966e-05 0)
(0.000915809 1.25449e-05 0)
(0.000951427 -4.75655e-07 0)
(0.0010102 -1.49113e-05 0)
(0.000990946 -1.34103e-05 0)
(0.000983965 -5.53665e-06 0)
(0.000989565 -6.48879e-07 0)
(0.000996242 2.48285e-07 0)
(0.000999194 -4.72004e-07 0)
(0.000999365 -1.00175e-06 0)
(0.00099863 -9.88807e-07 0)
(0.000998452 -8.89083e-07 0)
(0.000999995 4.29008e-08 0)
(0.000999914 1.83717e-07 0)
(0.000999754 3.52906e-07 0)
(0.00099953 6.86892e-07 0)
(0.000999285 1.27642e-06 0)
(0.00099921 2.4016e-06 0)
(0.000999702 4.58906e-06 0)
(0.00100139 7.94231e-06 0)
(0.0010049 1.3131e-05 0)
(0.00100957 1.47222e-05 0)
(0.0010119 -4.06185e-06 0)
(0.0010089 -1.89994e-05 0)
(0.00100214 -1.60925e-05 0)
(0.000997477 -6.12219e-06 0)
(0.000996814 -8.41388e-08 0)
(0.000998401 7.75595e-07 0)
(0.00100016 -4.26861e-07 0)
(0.00100085 -1.30459e-06 0)
(0.00100087 -1.37991e-06 0)
(0.00100036 -1.25154e-06 0)
(0.000999996 8.63127e-08 0)
(0.000999967 2.6954e-07 0)
(0.000999905 5.43971e-07 0)
(0.000999871 9.0961e-07 0)
(0.00099987 1.51372e-06 0)
(0.00100008 2.26187e-06 0)
(0.00100048 3.29341e-06 0)
(0.00100148 3.98972e-06 0)
(0.00100303 4.21044e-06 0)
(0.00100595 2.36849e-06 0)
(0.001009 -9.72052e-07 0)
(0.00100906 -4.53117e-06 0)
(0.00100542 -5.01544e-06 0)
(0.00100066 -3.12778e-06 0)
(0.000998056 -1.13096e-06 0)
(0.000998133 -2.51303e-07 0)
(0.000999621 -3.22175e-07 0)
(0.00100064 -7.40832e-07 0)
(0.00100106 -9.67946e-07 0)
(0.00100055 -1.07484e-06 0)
(0.001 9.64832e-08 0)
(0.001 3.14969e-07 0)
(0.00100002 5.70555e-07 0)
(0.00100007 9.16563e-07 0)
(0.0010002 1.3334e-06 0)
(0.00100046 1.87129e-06 0)
(0.00100097 2.39904e-06 0)
(0.00100185 2.97435e-06 0)
(0.00100318 3.11047e-06 0)
(0.00100469 2.72952e-06 0)
(0.00100568 5.07257e-07 0)
(0.00100527 -2.75193e-06 0)
(0.00100338 -5.07546e-06 0)
(0.00100096 -5.06925e-06 0)
(0.000999407 -3.44901e-06 0)
(0.00099912 -1.79367e-06 0)
(0.000999742 -1.01969e-06 0)
(0.00100025 -1.05763e-06 0)
(0.00100061 -1.30733e-06 0)
(0.00100023 -1.51632e-06 0)
(0.001 9.76991e-08 0)
(0.00100003 3.0196e-07 0)
(0.00100008 5.34311e-07 0)
(0.00100018 8.04285e-07 0)
(0.00100036 1.12064e-06 0)
(0.00100066 1.45941e-06 0)
(0.00100112 1.77886e-06 0)
(0.00100174 1.95111e-06 0)
(0.00100248 1.78135e-06 0)
(0.00100317 1.03304e-06 0)
(0.00100366 -2.78977e-07 0)
(0.00100363 -1.78131e-06 0)
(0.00100292 -2.70888e-06 0)
(0.0010017 -2.63112e-06 0)
(0.00100058 -1.77883e-06 0)
(0.000999902 -8.94722e-07 0)
(0.000999856 -4.25346e-07 0)
(0.000999979 -4.45787e-07 0)
(0.00100021 -6.1616e-07 0)
(0.001 -8.4921e-07 0)
(0.001 8.59698e-08 0)
(0.00100004 2.63628e-07 0)
(0.00100011 4.52956e-07 0)
(0.00100024 6.59786e-07 0)
(0.00100043 8.76446e-07 0)
(0.0010007 1.0842e-06 0)
(0.00100106 1.23059e-06 0)
(0.0010015 1.25353e-06 0)
(0.001002 1.07344e-06 0)
(0.00100248 6.56519e-07 0)
(0.0010028 1.81313e-08 0)
(0.00100274 -7.68662e-07 0)
(0.00100227 -1.44835e-06 0)
(0.00100146 -1.77358e-06 0)
(0.00100062 -1.66776e-06 0)
(0.001 -1.34726e-06 0)
(0.000999792 -1.02726e-06 0)
(0.000999763 -9.34844e-07 0)
(0.000999882 -9.45376e-07 0)
(0.000999763 -1.1092e-06 0)
(0.001 6.91868e-08 0)
(0.00100004 2.09211e-07 0)
(0.00100012 3.52905e-07 0)
(0.00100025 4.99864e-07 0)
(0.00100043 6.42992e-07 0)
(0.00100066 7.65665e-07 0)
(0.00100096 8.38115e-07 0)
(0.00100129 8.2643e-07 0)
(0.00100163 6.91465e-07 0)
(0.00100191 4.06444e-07 0)
(0.00100206 -4.58244e-08 0)
(0.001002 -5.74197e-07 0)
(0.00100171 -1.03401e-06 0)
(0.0010012 -1.28079e-06 0)
(0.00100065 -1.22949e-06 0)
(0.00100016 -9.93677e-07 0)
(0.000999913 -7.00468e-07 0)
(0.000999738 -5.5573e-07 0)
(0.000999749 -4.88271e-07 0)
(0.000999556 -5.99413e-07 0)
(0.001 5.02331e-08 0)
(0.00100004 1.49268e-07 0)
(0.00100012 2.45784e-07 0)
(0.00100025 3.3786e-07 0)
(0.00100041 4.21096e-07 0)
(0.00100062 4.83529e-07 0)
(0.00100086 5.0913e-07 0)
(0.00100112 4.73477e-07 0)
(0.00100137 3.61246e-07 0)
(0.00100157 1.55846e-07 0)
(0.00100167 -1.15801e-07 0)
(0.0010016 -4.1974e-07 0)
(0.00100139 -6.80589e-07 0)
(0.00100103 -8.42176e-07 0)
(0.00100063 -8.50372e-07 0)
(0.00100022 -7.70638e-07 0)
(0.000999948 -6.37445e-07 0)
(0.000999687 -5.96916e-07 0)
(0.000999625 -5.63233e-07 0)
(0.000999384 -6.85961e-07 0)
(0.001 3.4358e-08 0)
(0.00100004 1.04185e-07 0)
(0.00100011 1.73855e-07 0)
(0.00100023 2.41405e-07 0)
(0.00100038 3.02208e-07 0)
(0.00100056 3.50073e-07 0)
(0.00100077 3.75726e-07 0)
(0.00100097 3.68903e-07 0)
(0.00100116 3.19585e-07 0)
(0.0010013 2.23833e-07 0)
(0.00100136 8.60839e-08 0)
(0.00100131 -7.01166e-08 0)
(0.00100115 -2.05855e-07 0)
(0.00100086 -2.97416e-07 0)
(0.00100053 -3.12576e-07 0)
(0.00100016 -2.81917e-07 0)
(0.000999898 -2.02812e-07 0)
(0.00099961 -1.6959e-07 0)
(0.000999514 -1.20449e-07 0)
(0.000999247 -1.99443e-07 0)
(0.001 -4.21099e-09 0)
(0.00100004 -1.01223e-08 0)
(0.00100012 -1.31531e-08 0)
(0.00100024 -1.47854e-08 0)
(0.00100038 -1.70279e-08 0)
(0.00100056 -2.27404e-08 0)
(0.00100075 -3.36193e-08 0)
(0.00100094 -5.3365e-08 0)
(0.00100111 -8.18671e-08 0)
(0.00100123 -1.22354e-07 0)
(0.00100128 -1.70003e-07 0)
(0.00100121 -2.3126e-07 0)
(0.00100107 -2.90537e-07 0)
(0.00100081 -3.41372e-07 0)
(0.00100053 -3.59729e-07 0)
(0.00100018 -3.68006e-07 0)
(0.000999942 -3.42511e-07 0)
(0.000999606 -3.53322e-07 0)
(0.00099952 -3.28722e-07 0)
(0.000999129 -4.11029e-07 0)
)
;

boundaryField
{
    sides
    {
        type            slip;
    }
    inlet
    {
        type            fixedValue;
        value           uniform (0.001 0 0);
    }
    outlet
    {
        type            zeroGradient;
    }
    frontAndBack
    {
        type            empty;
    }
}


// ************************************************************************* //
