/*--------------------------------*- C++ -*----------------------------------*\
  =========                 |
  \\      /  F ield         | OpenFOAM: The Open Source CFD Toolbox
   \\    /   O peration     | Website:  https://openfoam.org
    \\  /    A nd           | Version:  9
     \\/     M anipulation  |
\*---------------------------------------------------------------------------*/
FoamFile
{
    format      ascii;
    class       surfaceScalarField;
    location    "69";
    object      phi;
}
// * * * * * * * * * * * * * * * * * * * * * * * * * * * * * * * * * * * * * //

dimensions      [0 4 -1 0 0 0 0];

internalField   nonuniform List<scalar> 
760
(
5.00009e-06
-9.36239e-11
5.0004e-06
-3.0394e-10
5.00092e-06
-5.09701e-10
5.00162e-06
-7.03705e-10
5.00249e-06
-8.75753e-10
5.00349e-06
-1.0078e-09
5.00455e-06
-1.06602e-09
5.00557e-06
-1.01729e-09
5.0064e-06
-8.3201e-10
5.00692e-06
-5.20982e-10
5.00704e-06
-1.21021e-10
5.00665e-06
3.97958e-10
5.00579e-06
8.58648e-10
5.00469e-06
1.10857e-09
5.00351e-06
1.17708e-09
5.00256e-06
9.55041e-10
5.00184e-06
7.13926e-10
5.0016e-06
2.42531e-10
5.0015e-06
1.07492e-10
-3.90357e-10
5.00012e-06
-2.13081e-10
5.00045e-06
-6.30184e-10
5.00098e-06
-1.04139e-09
5.00172e-06
-1.44112e-09
5.00265e-06
-1.80771e-09
5.00374e-06
-2.10193e-09
5.00493e-06
-2.25624e-09
5.0061e-06
-2.19638e-09
5.00713e-06
-1.84793e-09
5.00777e-06
-1.16313e-09
5.00774e-06
-9.00007e-11
5.00725e-06
8.8905e-10
5.00626e-06
1.84782e-09
5.00494e-06
2.42342e-09
5.00367e-06
2.45317e-09
5.00276e-06
1.86245e-09
5.00223e-06
1.24285e-09
5.0019e-06
5.7585e-10
5.00164e-06
3.67429e-10
-1.46443e-10
5.00011e-06
-3.19407e-10
5.00043e-06
-9.50004e-10
5.00096e-06
-1.57319e-09
5.00172e-06
-2.20201e-09
5.00272e-06
-2.80654e-09
5.00394e-06
-3.32436e-09
5.00532e-06
-3.63277e-09
5.00672e-06
-3.59329e-09
5.00793e-06
-3.05174e-09
5.00872e-06
-1.95448e-09
5.00893e-06
-3.08016e-10
5.00825e-06
1.56726e-09
5.00686e-06
3.22218e-09
5.00514e-06
4.13629e-09
5.00349e-06
4.09964e-09
5.00229e-06
3.06153e-09
5.00165e-06
1.88714e-09
5.00146e-06
7.61566e-10
5.00143e-06
3.93768e-10
-2.21393e-10
5.0001e-06
-4.18218e-10
5.00041e-06
-1.25988e-09
5.00094e-06
-2.10909e-09
5.00175e-06
-3.00327e-09
5.00285e-06
-3.91165e-09
5.00428e-06
-4.75389e-09
5.00601e-06
-5.35631e-09
5.00795e-06
-5.52376e-09
5.00983e-06
-4.94899e-09
5.01107e-06
-3.1906e-09
5.01119e-06
-4.39363e-10
5.00998e-06
2.75942e-09
5.00764e-06
5.56059e-09
5.00513e-06
6.63024e-09
5.00345e-06
5.76132e-09
5.00268e-06
3.83058e-09
5.00246e-06
2.10658e-09
5.00229e-06
9.28693e-10
5.00198e-06
7.05236e-10
3.39231e-10
5.00008e-06
-5.00974e-10
5.00034e-06
-1.51882e-09
5.00083e-06
-2.60175e-09
5.00163e-06
-3.80453e-09
5.00285e-06
-5.13103e-09
5.00457e-06
-6.46769e-09
5.0068e-06
-7.57474e-09
5.00941e-06
-8.15282e-09
5.01239e-06
-7.9193e-09
5.01477e-06
-5.60167e-09
5.01482e-06
-4.74879e-10
5.01284e-06
4.72998e-09
5.00866e-06
9.73177e-09
5.00459e-06
1.07096e-08
5.00223e-06
8.11447e-09
5.00172e-06
4.32072e-09
5.00203e-06
1.79801e-09
5.00224e-06
7.14055e-10
5.002e-06
9.47833e-10
6.27891e-10
5.00004e-06
-5.44721e-10
5.0002e-06
-1.67491e-09
5.00054e-06
-2.94136e-09
5.00121e-06
-4.4759e-09
5.0024e-06
-6.32945e-09
5.00453e-06
-8.57714e-09
5.0076e-06
-1.06585e-08
5.01167e-06
-1.22244e-08
5.01552e-06
-1.178e-08
5.01901e-06
-9.07043e-09
5.0202e-06
-1.68374e-09
5.01602e-06
8.94904e-09
5.0095e-06
1.62478e-08
5.0042e-06
1.60035e-08
5.00216e-06
1.01615e-08
5.00248e-06
3.99843e-09
5.00325e-06
1.02177e-09
5.00338e-06
5.87657e-10
5.00278e-06
1.54389e-09
1.42364e-09
4.99998e-06
-5.26223e-10
4.99994e-06
-1.63303e-09
5.00003e-06
-3.03382e-09
5.00036e-06
-4.80665e-09
5.00122e-06
-7.18905e-09
5.00292e-06
-1.02808e-08
5.0068e-06
-1.45422e-08
5.01392e-06
-1.9342e-08
5.02374e-06
-2.16035e-08
5.03092e-06
-1.62239e-08
5.02874e-06
4.56426e-10
5.01672e-06
2.09224e-08
5.00417e-06
2.8819e-08
4.99872e-06
2.14652e-08
5.00057e-06
8.32254e-09
5.00284e-06
1.73095e-09
5.0037e-06
1.55037e-10
5.00364e-06
6.43534e-10
5.00303e-06
2.16089e-09
1.68253e-09
4.99986e-06
-3.91558e-10
4.99955e-06
-1.31892e-09
4.99912e-06
-2.60818e-09
4.99885e-06
-4.53896e-09
4.99933e-06
-7.66607e-09
5.00036e-06
-1.13093e-08
5.00364e-06
-1.7834e-08
5.00981e-06
-2.55101e-08
5.02489e-06
-3.66547e-08
5.05605e-06
-4.75114e-08
5.05013e-06
7.70181e-09
5.02318e-06
4.7799e-08
4.99816e-06
5.38042e-08
4.99348e-06
2.61466e-08
4.99946e-06
2.35475e-09
5.00406e-06
-2.87309e-09
5.00489e-06
-6.7327e-10
5.00371e-06
1.82923e-09
5.0035e-06
2.37957e-09
9.70986e-10
4.99977e-06
-1.58262e-10
4.99915e-06
-7.03291e-10
4.99792e-06
-1.37753e-09
4.99611e-06
-2.73147e-09
4.99402e-06
-5.57725e-09
4.99374e-06
-1.10299e-08
4.99945e-06
-2.3535e-08
5.01714e-06
-4.32012e-08
5.05568e-06
-7.52362e-08
5.06689e-06
-5.85899e-08
5.04963e-06
2.36379e-08
4.99649e-06
1.01004e-07
4.98931e-06
6.10112e-08
4.9959e-06
1.954e-08
5.00018e-06
-1.93551e-09
5.00291e-06
-5.61619e-09
5.00251e-06
-2.76813e-10
5.00183e-06
2.51638e-09
5.00253e-06
1.67722e-09
7.55636e-11
4.99986e-06
-1.50161e-11
4.9992e-06
-5.03077e-11
4.99791e-06
-8.60051e-11
4.99531e-06
-1.28681e-10
4.9899e-06
-1.69526e-10
4.97908e-06
-2.16174e-10
4.95582e-06
-2.67092e-10
4.91295e-06
-3.36643e-10
4.83813e-06
-4.2215e-10
4.77997e-06
-4.69583e-10
4.80426e-06
-5.95709e-10
4.90605e-06
-7.19129e-10
4.96778e-06
-7.53602e-10
4.98821e-06
-9.07448e-10
4.98744e-06
-1.16869e-09
4.98325e-06
-1.43266e-09
4.98454e-06
-1.5634e-09
4.98889e-06
-1.82844e-09
4.99246e-06
-1.89699e-09
-2.58635e-09
4.99986e-06
1.27723e-10
4.9992e-06
6.01707e-10
4.9979e-06
1.21053e-09
4.9953e-06
2.48174e-09
4.98988e-06
5.24975e-09
4.97905e-06
1.06036e-08
4.95577e-06
2.30162e-08
4.91289e-06
4.25393e-08
4.83802e-06
7.44481e-08
4.77975e-06
5.7844e-08
4.80424e-06
-2.51144e-08
4.90597e-06
-1.02465e-07
4.96776e-06
-6.25143e-08
4.98806e-06
-2.12012e-08
4.98735e-06
-4.57565e-10
4.98293e-06
2.99338e-09
4.98442e-06
-3.05246e-09
4.98887e-06
-6.28385e-09
4.99234e-06
-5.36034e-09
-4.98749e-09
4.99977e-06
3.59512e-10
4.99914e-06
1.22136e-09
4.99791e-06
2.44117e-09
4.9961e-06
4.29557e-09
4.99402e-06
7.33383e-09
4.99373e-06
1.08865e-08
4.99942e-06
1.73147e-08
5.01707e-06
2.48949e-08
5.0556e-06
3.59282e-08
5.06702e-06
4.63941e-08
5.04949e-06
-7.00867e-09
4.9961e-06
-4.90988e-08
4.98884e-06
-5.52357e-08
4.99568e-06
-2.80325e-08
5.0001e-06
-4.86132e-09
5.00231e-06
7.91156e-10
5.00165e-06
-2.38735e-09
5.00089e-06
-5.53077e-09
5.00167e-06
-6.14091e-09
-5.9565e-09
4.99986e-06
4.94349e-10
4.99954e-06
1.53955e-09
4.99911e-06
2.87592e-09
4.99883e-06
4.57644e-09
4.99927e-06
6.88762e-09
5.00026e-06
9.8935e-09
5.00347e-06
1.41034e-08
5.0096e-06
1.87679e-08
5.0246e-06
2.0911e-08
5.05562e-06
1.54339e-08
5.04972e-06
-1.72637e-09
5.02282e-06
-2.21343e-08
4.99785e-06
-3.02888e-08
4.99314e-06
-2.33263e-08
4.99863e-06
-1.03406e-08
5.00344e-06
-4.01777e-09
5.00372e-06
-2.6657e-09
5.00234e-06
-4.15527e-09
5.00215e-06
-5.94756e-09
-6.54104e-09
4.99997e-06
5.16528e-10
4.99993e-06
1.58973e-09
5e-06
2.79822e-09
5.00031e-06
4.27005e-09
5.00113e-06
6.06077e-09
5.00279e-06
8.23308e-09
5.00668e-06
1.02212e-08
5.01378e-06
1.16635e-08
5.02358e-06
1.11188e-08
5.03067e-06
8.26275e-09
5.02841e-06
6.58721e-10
5.01625e-06
-1.00172e-08
5.00348e-06
-1.75463e-08
4.99776e-06
-1.76025e-08
4.9994e-06
-1.19838e-08
5.0016e-06
-6.21588e-09
5.00239e-06
-3.45882e-09
5.00212e-06
-3.8811e-09
5.00118e-06
-5.00935e-09
-5.9823e-09
5.00004e-06
4.78456e-10
5.00018e-06
1.44531e-09
5.0005e-06
2.47611e-09
5.00115e-06
3.62138e-09
5.00232e-06
4.88862e-09
5.00439e-06
6.15964e-09
5.00741e-06
7.20376e-09
5.0114e-06
7.6915e-09
5.01513e-06
7.3813e-09
5.01853e-06
4.87201e-09
5.01955e-06
-3.85764e-10
5.01521e-06
-5.69783e-09
5.00853e-06
-1.08627e-08
5.00309e-06
-1.21764e-08
5.00086e-06
-9.75485e-09
5.001e-06
-6.34791e-09
5.00154e-06
-4.00274e-09
5.0013e-06
-3.64291e-09
5.00033e-06
-4.04655e-09
-4.98196e-09
5.00008e-06
3.99024e-10
5.00032e-06
1.19861e-09
5.00079e-06
2.00573e-09
5.00157e-06
2.84957e-09
5.00275e-06
3.70738e-09
5.00441e-06
4.50046e-09
5.00655e-06
5.05758e-09
5.00909e-06
5.15867e-09
5.01203e-06
4.45176e-09
5.0144e-06
2.50501e-09
5.01413e-06
-1.40304e-10
5.01207e-06
-3.63412e-09
5.00774e-06
-6.5333e-09
5.00347e-06
-7.91227e-09
5.00091e-06
-7.19351e-09
5.00012e-06
-5.5508e-09
5.00009e-06
-3.97868e-09
4.99986e-06
-3.41587e-09
4.99915e-06
-3.34436e-09
-4.17761e-09
5.0001e-06
2.97893e-10
5.00039e-06
8.99768e-10
5.00091e-06
1.49664e-09
5.00167e-06
2.0868e-09
5.00274e-06
2.64838e-09
5.00412e-06
3.11706e-09
5.00579e-06
3.3883e-09
5.00763e-06
3.31533e-09
5.00933e-06
2.75504e-09
5.01026e-06
1.57174e-09
5.01042e-06
-3.01791e-10
5.00902e-06
-2.22921e-09
5.00649e-06
-4.00443e-09
5.00366e-06
-5.07988e-09
5.00153e-06
-5.06081e-09
5.00033e-06
-4.35283e-09
4.99969e-06
-3.33987e-09
4.99915e-06
-2.8845e-09
4.99843e-06
-2.63055e-09
-3.22136e-09
5.0001e-06
1.93002e-10
5.00041e-06
5.90834e-10
5.00093e-06
9.83396e-10
5.00166e-06
1.35804e-09
5.00262e-06
1.69583e-09
5.00378e-06
1.95439e-09
5.00509e-06
2.07025e-09
5.00645e-06
1.95712e-09
5.00764e-06
1.555e-09
5.00838e-06
8.27851e-10
5.0082e-06
-1.25948e-10
5.00733e-06
-1.35351e-09
5.00569e-06
-2.37178e-09
5.00367e-06
-3.06238e-09
5.00178e-06
-3.16799e-09
5.00032e-06
-2.89612e-09
4.9993e-06
-2.32294e-09
4.99851e-06
-2.09348e-09
4.99771e-06
-1.83797e-09
-2.28316e-09
5.00009e-06
1.09677e-10
5.00038e-06
3.01767e-10
5.00087e-06
4.93386e-10
5.00155e-06
6.76206e-10
5.00241e-06
8.3519e-10
5.00341e-06
9.50832e-10
5.00448e-06
9.95971e-10
5.0055e-06
9.33521e-10
5.00632e-06
7.33202e-10
5.00679e-06
3.59207e-10
5.0068e-06
-1.4171e-10
5.00607e-06
-6.26511e-10
5.00478e-06
-1.08882e-09
5.00314e-06
-1.42597e-09
5.00147e-06
-1.4986e-09
5.00001e-06
-1.43595e-09
4.99887e-06
-1.18581e-09
4.99791e-06
-1.13509e-09
4.99705e-06
-9.79737e-10
-1.42791e-09
5.00012e-06
5.00043e-06
5.00091e-06
5.00158e-06
5.00242e-06
5.00337e-06
5.00436e-06
5.00529e-06
5.00603e-06
5.00639e-06
5.00624e-06
5.00561e-06
5.00452e-06
5.0031e-06
5.00159e-06
5.00015e-06
4.99896e-06
4.99783e-06
4.99686e-06
)
;

boundaryField
{
    sides
    {
        type            calculated;
        value           uniform 0;
    }
    inlet
    {
        type            calculated;
        value           nonuniform List<scalar> 
20
(
-5e-06
-5e-06
-5e-06
-5e-06
-5e-06
-5e-06
-5e-06
-5e-06
-5e-06
-5e-06
-5e-06
-5e-06
-5e-06
-5e-06
-5e-06
-5e-06
-5e-06
-5e-06
-5e-06
-5e-06
)
;
    }
    outlet
    {
        type            calculated;
        value           nonuniform List<scalar> 
20
(
5.00189e-06
5.00139e-06
5.0015e-06
5.00141e-06
5.00171e-06
5.00199e-06
5.00278e-06
5.00421e-06
5.00343e-06
4.99513e-06
4.99474e-06
5.00264e-06
5.00273e-06
5.00062e-06
4.99933e-06
4.99835e-06
4.99747e-06
4.99677e-06
4.9962e-06
4.99543e-06
)
;
    }
    frontAndBack
    {
        type            empty;
        value           nonuniform List<scalar> 0();
    }
}


// ************************************************************************* //
