2.80937e-05    56.5604
8.78022e-05    340.349
0.000154994    857.134
0.000230608    983.729
0.000315699    851.864
0.000411455    687.166
0.000519212    549.293
0.000640475    442.749
0.000776937    361.247
0.000930502    298.268
0.00110331    248.848
0.00129779    209.457
0.00151663    177.606
0.00176291    151.526
0.00204005    129.936
0.00235193    111.893
 0.0027029    96.6893
0.00309785    83.7865
0.00354231    72.7675
0.00404248    63.3046
0.00460533    55.1378
0.00523873    48.0579
0.00595151     41.895
0.00675364    36.5102
 0.0076563    31.7886
0.00867209    27.6347
 0.0098152    23.9684
 0.0111016    20.7225
 0.0125492      17.84
 0.0141782    15.2727
 0.0160115    12.9801
 0.0180745    10.9278
  0.020396    9.08823
 0.0230086    7.44002
 0.0259485    5.96965
  0.029257    4.67362
 0.0329801     3.5617
 0.0371699    2.65956
 0.0418848    2.00631
 0.0471906    1.64779
 0.0528094     1.6496
 0.0581152    2.01156
 0.0628301    2.66773
 0.0670199     3.5721
  0.070743    4.68557
 0.0740515    5.98264
 0.0769914     7.4537
  0.079604    9.10236
 0.0819255    10.9422
 0.0839885    12.9945
 0.0858218    15.2871
 0.0874508     17.854
 0.0888984     20.736
 0.0901848    23.9812
 0.0913279    27.6464
 0.0923437    31.7989
 0.0932464    36.5187
 0.0940485    41.9011
 0.0947613    48.0611
 0.0953947    55.1377
 0.0959575    63.3003
 0.0964577    72.7582
 0.0969021    83.7714
 0.0972971    96.6672
 0.0976481    111.863
   0.09796    129.896
 0.0982371    151.475
 0.0984834    177.542
 0.0987022    209.376
 0.0988967    248.748
 0.0990695    298.145
 0.0992231    361.096
 0.0993595    442.562
 0.0994808    549.059
 0.0995885    686.871
 0.0996843    851.482
 0.0997694    983.232
  0.099845    856.578
 0.0999122    340.095
 0.0999719    56.5208
