2.80937e-05    22677.9
8.78022e-05    19944.5
0.000154994    14227.3
0.000230608    8946.59
0.000315699    5802.29
0.000411455    4007.55
0.000519212    2923.43
0.000640475     2228.5
0.000776937    1756.91
0.000930502    1420.82
0.00110331    1171.44
0.00129779    980.304
0.00151663     829.95
0.00176291    709.188
0.00204005    610.551
0.00235193    528.879
 0.0027029    460.495
0.00309785    402.703
0.00354231    353.481
0.00404248     311.28
0.00460533    274.892
0.00523873    243.357
0.00595151    215.904
0.00675364    191.906
 0.0076563    170.844
0.00867209    152.288
 0.0098152    135.874
 0.0111016    121.294
 0.0125492    108.279
 0.0141782    96.5933
 0.0160115    86.0232
 0.0180745    76.3667
  0.020396    67.4232
 0.0230086    58.9798
 0.0259485    50.7962
  0.029257    42.5941
 0.0329801    34.0738
 0.0371699    25.0024
 0.0418848    15.3476
 0.0471906    5.16564
 0.0528094    5.27537
 0.0581152    15.4508
 0.0628301    25.0916
 0.0670199    34.1442
  0.070743    42.6464
 0.0740515    50.8336
 0.0769914    59.0055
  0.079604    67.4396
 0.0819255    76.3753
 0.0839885    86.0249
 0.0858218    96.5883
 0.0874508    108.267
 0.0888984    121.275
 0.0901848    135.848
 0.0913279    152.253
 0.0923437      170.8
 0.0932464    191.852
 0.0940485    215.839
 0.0947613    243.278
 0.0953947    274.798
 0.0959575     311.17
 0.0964577    353.352
 0.0969021    402.553
 0.0972971    460.322
 0.0976481    528.681
   0.09796    610.324
 0.0982371    708.929
 0.0984834    829.655
 0.0987022     979.97
 0.0988967    1171.06
 0.0990695    1420.39
 0.0992231    1756.44
 0.0993595    2227.97
 0.0994808    2922.84
 0.0995885     4006.9
 0.0996843    5801.54
 0.0997694     8945.6
  0.099845    14225.3
 0.0999122    19940.3
 0.0999719    22672.1
