2.80937e-05 0.00828898
8.78022e-05   0.158581
0.000154994   0.485386
0.000230608   0.671116
0.000315699     0.7414
0.000411455   0.764935
0.000519212   0.770139
0.000640475   0.768161
0.000776937   0.763403
0.000930502   0.757644
0.00110331   0.751594
0.00129779   0.745509
0.00151663   0.739444
0.00176291    0.73336
0.00204005   0.727177
0.00235193   0.720795
 0.0027029   0.714103
0.00309785   0.706988
0.00354231   0.699329
0.00404248   0.691005
0.00460533   0.681887
0.00523873   0.671844
0.00595151   0.660734
0.00675364   0.648408
 0.0076563   0.634706
0.00867209   0.619458
 0.0098152   0.602479
 0.0111016   0.583576
 0.0125492   0.562539
 0.0141782   0.539156
 0.0160115   0.513212
 0.0180745   0.484512
  0.020396   0.452914
 0.0230086   0.418393
 0.0259485   0.381166
  0.029257   0.341908
 0.0329801   0.302117
 0.0371699   0.264584
 0.0418848   0.233684
 0.0471906   0.215061
 0.0528094   0.215194
 0.0581152   0.234051
 0.0628301    0.26512
 0.0670199   0.302753
  0.070743    0.34259
 0.0740515    0.38186
 0.0769914   0.419079
  0.079604   0.453578
 0.0819255   0.485148
 0.0839885   0.513815
 0.0858218   0.539724
 0.0874508   0.563071
 0.0888984   0.584069
 0.0901848   0.602934
 0.0913279   0.619873
 0.0923437   0.635082
 0.0932464   0.648744
 0.0940485   0.661032
 0.0947613   0.672103
 0.0953947   0.682109
 0.0959575   0.691189
 0.0964577   0.699477
 0.0969021     0.7071
 0.0972971   0.714182
 0.0976481   0.720841
   0.09796   0.727192
 0.0982371   0.733345
 0.0984834   0.739401
 0.0987022    0.74544
 0.0988967     0.7515
 0.0990695   0.757527
 0.0992231   0.763266
 0.0993595   0.768005
 0.0994808   0.769965
 0.0995885   0.764746
 0.0996843   0.741197
 0.0997694   0.670902
  0.099845   0.485178
 0.0999122    0.15849
 0.0999719 0.00828413
