2.80937e-05 0.00552599
8.78022e-05   0.105721
0.000154994   0.323591
0.000230608    0.44741
0.000315699   0.494267
0.000411455   0.509956
0.000519212   0.513426
0.000640475   0.512107
0.000776937   0.508936
0.000930502   0.505096
0.00110331   0.501063
0.00129779   0.497006
0.00151663   0.492962
0.00176291   0.488907
0.00204005   0.484785
0.00235193    0.48053
 0.0027029   0.476069
0.00309785   0.471325
0.00354231   0.466219
0.00404248    0.46067
0.00460533   0.454592
0.00523873   0.447896
0.00595151   0.440489
0.00675364   0.432272
 0.0076563   0.423137
0.00867209   0.412972
 0.0098152   0.401653
 0.0111016   0.389051
 0.0125492   0.375026
 0.0141782   0.359437
 0.0160115   0.342141
 0.0180745   0.323008
  0.020396   0.301942
 0.0230086   0.278929
 0.0259485    0.25411
  0.029257   0.227938
 0.0329801   0.201411
 0.0371699   0.176389
 0.0418848   0.155789
 0.0471906   0.143374
 0.0528094   0.143463
 0.0581152   0.156034
 0.0628301   0.176747
 0.0670199   0.201835
  0.070743   0.228394
 0.0740515   0.254574
 0.0769914   0.279386
  0.079604   0.302386
 0.0819255   0.323432
 0.0839885   0.342544
 0.0858218   0.359816
 0.0874508   0.375381
 0.0888984   0.389379
 0.0901848   0.401956
 0.0913279   0.413249
 0.0923437   0.423388
 0.0932464   0.432496
 0.0940485   0.440688
 0.0947613   0.448069
 0.0953947   0.454739
 0.0959575   0.460793
 0.0964577   0.466318
 0.0969021     0.4714
 0.0972971   0.476121
 0.0976481   0.480561
   0.09796   0.484795
 0.0982371   0.488897
 0.0984834   0.492934
 0.0987022    0.49696
 0.0988967      0.501
 0.0990695   0.505018
 0.0992231   0.508844
 0.0993595   0.512003
 0.0994808    0.51331
 0.0995885    0.50983
 0.0996843   0.494132
 0.0997694   0.447268
  0.099845   0.323452
 0.0999122    0.10566
 0.0999719 0.00552275
