2.80937e-05 -8.41169e-05
8.78022e-05 -0.0100415
0.000154994 -0.0854421
0.000230608  -0.145969
0.000315699  -0.176251
0.000411455  -0.192845
0.000519212  -0.202095
0.000640475   -0.20754
0.000776937   -0.21088
0.000930502  -0.212964
0.00110331  -0.214232
0.00129779  -0.214928
0.00151663  -0.215189
0.00176291  -0.215098
0.00204005  -0.214702
0.00235193  -0.214025
 0.0027029  -0.213078
0.00309785  -0.211858
0.00354231  -0.210356
0.00404248  -0.208552
0.00460533  -0.206421
0.00523873  -0.203933
0.00595151  -0.201048
0.00675364  -0.197722
 0.0076563  -0.193904
0.00867209  -0.189536
 0.0098152  -0.184551
 0.0111016  -0.178874
 0.0125492   -0.17242
 0.0141782  -0.165095
 0.0160115  -0.156791
 0.0180745  -0.147386
  0.020396  -0.136744
 0.0230086   -0.12471
 0.0259485   -0.11111
  0.029257 -0.0957611
 0.0329801 -0.0784901
 0.0371699 -0.0591599
 0.0418848 -0.0375543
 0.0471906 -0.0130357
 0.0528094  0.0133145
 0.0581152  0.0378272
 0.0628301  0.0594292
 0.0670199  0.0787542
  0.070743  0.0960169
 0.0740515   0.111356
 0.0769914   0.124944
  0.079604   0.136967
 0.0819255   0.147597
 0.0839885   0.156989
 0.0858218    0.16528
 0.0874508   0.172592
 0.0888984   0.179033
 0.0901848   0.184697
 0.0913279   0.189669
 0.0923437   0.194023
 0.0932464   0.197828
 0.0940485    0.20114
 0.0947613   0.204012
 0.0953947   0.206488
 0.0959575   0.208606
 0.0964577   0.210398
 0.0969021   0.211889
 0.0972971   0.213098
 0.0976481   0.214035
   0.09796   0.214702
 0.0982371    0.21509
 0.0984834   0.215172
 0.0987022   0.214904
 0.0988967   0.214202
 0.0990695   0.212928
 0.0992231   0.210839
 0.0993595   0.207495
 0.0994808   0.202046
 0.0995885   0.192794
 0.0996843   0.176198
 0.0997694   0.145917
  0.099845  0.0853946
 0.0999122  0.0100326
 0.0999719 8.40551e-05
