2.80937e-05   0.074337
8.78022e-05   0.325148
0.000154994    0.56885
0.000230608   0.668887
0.000315699   0.703041
0.000411455   0.714112
0.000519212   0.716537
0.000640475   0.715617
0.000776937   0.713397
0.000930502   0.710701
0.00110331   0.707858
0.00129779   0.704987
0.00151663   0.702113
0.00176291   0.699219
0.00204005   0.696265
0.00235193   0.693203
 0.0027029   0.689978
0.00309785   0.686531
0.00354231   0.682803
0.00404248   0.678727
0.00460533   0.674234
0.00523873    0.66925
0.00595151   0.663694
0.00675364   0.657474
 0.0076563    0.65049
0.00867209   0.642629
 0.0098152   0.633761
 0.0111016   0.623739
 0.0125492   0.612394
 0.0141782   0.599531
 0.0160115   0.584928
 0.0180745   0.568338
  0.020396   0.549493
 0.0230086   0.528137
 0.0259485   0.504094
  0.029257   0.477429
 0.0329801   0.448789
 0.0371699   0.419987
 0.0418848   0.394701
 0.0471906   0.378648
 0.0528094   0.378764
 0.0581152   0.395012
 0.0628301   0.420412
 0.0670199   0.449261
  0.070743   0.477905
 0.0740515   0.504553
 0.0769914    0.52857
  0.079604   0.549896
 0.0819255   0.568711
 0.0839885   0.585272
 0.0858218   0.599847
 0.0874508   0.612683
 0.0888984   0.624003
 0.0901848      0.634
 0.0913279   0.642844
 0.0923437   0.650683
 0.0932464   0.657644
 0.0940485   0.663843
 0.0947613   0.669379
 0.0953947   0.674343
 0.0959575   0.678817
 0.0964577   0.682875
 0.0969021   0.686586
 0.0972971   0.690015
 0.0976481   0.693225
   0.09796   0.696272
 0.0982371   0.699211
 0.0984834   0.702092
 0.0987022   0.704954
 0.0988967   0.707814
 0.0990695   0.710646
 0.0992231   0.713333
 0.0993595   0.715544
 0.0994808   0.716457
 0.0995885   0.714024
 0.0996843   0.702945
 0.0997694   0.668781
  0.099845   0.568728
 0.0999122   0.325054
 0.0999719  0.0743152
