/*--------------------------------*- C++ -*----------------------------------*\
  =========                 |
  \\      /  F ield         | OpenFOAM: The Open Source CFD Toolbox
   \\    /   O peration     | Website:  https://openfoam.org
    \\  /    A nd           | Version:  9
     \\/     M anipulation  |
\*---------------------------------------------------------------------------*/
FoamFile
{
    format      ascii;
    class       volVectorField;
    location    "58";
    object      ddtCorrDdt0(hU);
}
// * * * * * * * * * * * * * * * * * * * * * * * * * * * * * * * * * * * * * //

dimensions      [0 2 -2 0 0 0 0];

internalField   nonuniform List<vector> 
400
(
(1.7309e-09 -2.12267e-09 0)
(2.21694e-09 1.90865e-09 0)
(-1.42627e-09 3.46888e-09 0)
(-2.23671e-09 3.28445e-09 0)
(3.32876e-09 3.11369e-09 0)
(7.96756e-09 1.07689e-09 0)
(7.96242e-09 6.79233e-10 0)
(7.5494e-09 9.6774e-11 0)
(6.27217e-09 3.35853e-10 0)
(7.84562e-09 -2.5035e-09 0)
(5.75511e-09 -6.97296e-09 0)
(4.33177e-09 -3.1442e-09 0)
(4.45068e-09 -2.38401e-09 0)
(2.40547e-09 7.97506e-10 0)
(2.5518e-09 8.09267e-10 0)
(2.80127e-09 -1.98881e-09 0)
(4.55056e-09 -3.81651e-09 0)
(6.56577e-09 -2.03898e-09 0)
(1.32341e-09 -4.16274e-10 0)
(-4.65366e-09 1.22059e-10 0)
(2.97955e-09 -3.05916e-09 0)
(5.3763e-09 4.38047e-09 0)
(1.30531e-09 7.89423e-09 0)
(-9.37463e-11 8.43768e-09 0)
(3.28492e-09 6.36918e-09 0)
(6.15773e-09 1.54362e-09 0)
(6.56938e-09 -5.54907e-12 0)
(6.11273e-09 2.17806e-09 0)
(6.61871e-09 1.66221e-10 0)
(2.34916e-09 -3.19263e-09 0)
(6.86033e-09 -1.07031e-08 0)
(5.40847e-09 -8.20079e-09 0)
(4.03658e-09 -3.31958e-09 0)
(4.04187e-09 1.23154e-09 0)
(1.37793e-10 2.48933e-09 0)
(-2.96909e-10 -3.38337e-09 0)
(1.7687e-09 -9.58853e-09 0)
(3.72645e-09 -6.12033e-09 0)
(1.29205e-09 1.63461e-09 0)
(-3.65931e-09 1.35723e-09 0)
(1.6313e-09 -3.41491e-10 0)
(7.23957e-09 6.50294e-09 0)
(5.09684e-09 1.06618e-08 0)
(3.14301e-09 1.01295e-08 0)
(3.46193e-09 4.44484e-09 0)
(3.3854e-09 -3.89136e-10 0)
(5.84316e-09 2.078e-09 0)
(4.15104e-09 6.67715e-09 0)
(5.83778e-09 3.75639e-09 0)
(3.39514e-09 -4.54635e-09 0)
(6.07154e-10 -3.5583e-09 0)
(7.19058e-09 -1.30294e-08 0)
(2.95676e-09 -2.33735e-09 0)
(4.75121e-09 1.35883e-09 0)
(1.8497e-09 2.94604e-10 0)
(-4.00063e-09 -4.14223e-09 0)
(-2.84598e-09 -9.58811e-09 0)
(3.93075e-09 -6.71027e-09 0)
(4.19777e-09 7.43088e-10 0)
(-1.48948e-09 8.99462e-10 0)
(5.24604e-11 2.70907e-09 0)
(7.11318e-09 9.2337e-09 0)
(6.58149e-09 1.28125e-08 0)
(5.08803e-09 9.02473e-09 0)
(2.96833e-09 7.74616e-10 0)
(4.20667e-09 -5.37819e-10 0)
(3.91388e-09 8.3158e-09 0)
(6.3052e-09 7.67739e-09 0)
(-2.40924e-09 8.99175e-09 0)
(1.00451e-08 -4.87054e-09 0)
(-2.62549e-09 -7.82114e-09 0)
(-7.69998e-10 -1.99546e-09 0)
(1.06054e-08 -6.67579e-09 0)
(1.3342e-09 1.33966e-09 0)
(3.43229e-09 -1.40582e-09 0)
(1.61584e-09 -7.61917e-09 0)
(-3.24349e-09 -9.38257e-09 0)
(-2.24141e-09 -2.7747e-09 0)
(1.68266e-09 4.53972e-09 0)
(2.07538e-09 2.06792e-09 0)
(-9.70146e-10 5.01708e-09 0)
(4.25486e-09 1.1382e-08 0)
(6.03367e-09 1.34072e-08 0)
(5.27264e-09 7.26459e-09 0)
(4.53591e-09 -1.13114e-09 0)
(4.66188e-09 2.56905e-09 0)
(4.14744e-09 7.3027e-09 0)
(1.6474e-09 1.05081e-08 0)
(4.47426e-09 9.55963e-10 0)
(-1.04106e-08 1.78238e-08 0)
(2.42779e-08 -1.5193e-08 0)
(-1.04185e-08 7.76565e-09 0)
(-6.49161e-09 7.96114e-09 0)
(9.04433e-09 5.19992e-10 0)
(1.44702e-09 -1.41644e-09 0)
(2.5119e-09 -7.56447e-09 0)
(2.98503e-09 -9.93781e-09 0)
(2.12579e-09 -2.3653e-09 0)
(2.20747e-09 6.90857e-09 0)
(2.11002e-09 3.2274e-09 0)
(-1.50168e-09 5.20297e-09 0)
(4.46274e-10 1.27526e-08 0)
(3.63312e-09 1.40212e-08 0)
(5.35848e-09 6.53328e-09 0)
(5.83181e-09 -3.63896e-11 0)
(4.87721e-09 1.8326e-09 0)
(3.75447e-09 4.80935e-09 0)
(-4.02579e-09 5.12159e-09 0)
(1.34663e-08 1.44442e-08 0)
(-4.42599e-09 1.41855e-08 0)
(-6.76255e-09 2.06924e-08 0)
(3.08567e-08 -1.69653e-08 0)
(-2.49958e-08 2.19095e-08 0)
(-1.59137e-08 1.67239e-08 0)
(5.23403e-09 2.78408e-09 0)
(6.71497e-09 -5.11018e-09 0)
(4.68545e-09 -9.25953e-09 0)
(1.41601e-09 -4.2739e-09 0)
(2.87207e-09 4.39256e-09 0)
(6.28791e-09 2.61646e-09 0)
(-1.11451e-09 3.4599e-09 0)
(-2.56756e-09 1.25903e-08 0)
(1.7757e-09 1.44056e-08 0)
(5.0947e-09 7.26834e-09 0)
(6.00361e-09 1.01483e-09 0)
(4.70442e-09 -9.24481e-10 0)
(-2.13612e-09 1.03546e-09 0)
(9.32747e-09 5.6257e-09 0)
(-6.05222e-09 2.24186e-08 0)
(5.20507e-08 -2.5273e-08 0)
(-6.87226e-08 1.99662e-07 0)
(2.13268e-09 1.55004e-08 0)
(3.06335e-08 -6.84776e-09 0)
(-2.46051e-08 1.48827e-08 0)
(-1.6878e-08 9.53251e-09 0)
(2.07785e-09 -1.89546e-09 0)
(5.62249e-09 -7.50936e-09 0)
(2.6822e-09 -3.42194e-09 0)
(3.83133e-09 6.21188e-09 0)
(7.75158e-09 3.6241e-09 0)
(-1.60582e-10 1.64036e-09 0)
(-3.32691e-09 1.08904e-08 0)
(7.65739e-10 1.2992e-08 0)
(4.51854e-09 7.31665e-09 0)
(4.80806e-09 7.71603e-10 0)
(2.18379e-09 -3.52134e-09 0)
(7.79867e-10 2.00454e-10 0)
(4.77267e-09 1.39383e-08 0)
(-7.3342e-09 -6.47722e-10 0)
(1.75733e-07 1.62966e-08 0)
(1.11883e-07 -2.10962e-07 0)
(-2.53289e-07 -1.96459e-08 0)
(-2.19916e-08 -8.92795e-09 0)
(4.71029e-09 -6.22986e-09 0)
(-1.00537e-08 7.27154e-09 0)
(-2.97927e-09 4.41564e-09 0)
(2.22782e-09 -3.37199e-09 0)
(6.57147e-10 -6.88434e-10 0)
(3.52972e-09 6.87859e-09 0)
(8.13165e-09 3.65179e-09 0)
(9.79746e-10 1.04101e-09 0)
(-3.05265e-09 8.01637e-09 0)
(5.22261e-10 9.24826e-09 0)
(3.29461e-09 4.6679e-09 0)
(2.84934e-09 1.00217e-10 0)
(2.1863e-09 -4.70447e-09 0)
(3.22789e-09 5.70662e-10 0)
(1.3529e-09 1.39627e-08 0)
(1.48816e-08 3.20796e-10 0)
(-1.60434e-07 1.26985e-08 0)
(-1.11444e-07 -2.15773e-07 0)
(2.54303e-07 -2.12635e-08 0)
(2.24339e-08 -1.61878e-08 0)
(-5.96489e-09 -8.39802e-09 0)
(5.22243e-09 3.71932e-09 0)
(-2.1087e-09 6.70121e-09 0)
(-7.66586e-09 3.04252e-09 0)
(-1.55498e-09 3.38109e-09 0)
(1.31459e-09 8.06961e-09 0)
(7.74381e-09 4.74561e-09 0)
(1.39158e-09 9.22669e-10 0)
(-2.64738e-09 3.85392e-09 0)
(-2.96216e-10 3.62303e-09 0)
(2.37872e-09 5.97792e-10 0)
(1.1137e-09 -1.14932e-09 0)
(1.42511e-09 -1.40868e-09 0)
(6.70333e-09 2.10958e-10 0)
(1.09563e-09 7.06525e-09 0)
(1.25019e-08 1.39729e-08 0)
(-4.75935e-08 -2.26568e-08 0)
(8.87497e-08 1.46821e-07 0)
(-4.86495e-09 -4.14181e-09 0)
(-2.53444e-08 -2.04095e-08 0)
(2.78079e-08 1.09422e-09 0)
(1.46913e-08 1.81234e-09 0)
(-1.11596e-10 2.16995e-09 0)
(-2.59935e-10 4.12353e-09 0)
(-4.82005e-09 4.3293e-09 0)
(-5.92019e-10 6.54078e-09 0)
(-7.18931e-10 3.77428e-09 0)
(1.31428e-09 6.89751e-11 0)
(-2.81514e-09 -1.76868e-09 0)
(-9.76283e-10 -2.65165e-09 0)
(1.60256e-09 -3.05782e-09 0)
(1.56213e-09 -9.97847e-10 0)
(2.07769e-09 2.44351e-09 0)
(6.12574e-09 2.94283e-09 0)
(8.93713e-09 -3.72965e-09 0)
(-1.49141e-09 6.83932e-09 0)
(-4.15279e-09 -1.07526e-08 0)
(-4.08135e-08 1.09273e-07 0)
(2.3753e-08 -6.33893e-08 0)
(4.04512e-08 1.057e-08 0)
(2.47385e-08 4.71231e-09 0)
(6.94756e-09 -2.64124e-09 0)
(-1.15535e-10 -2.29779e-09 0)
(-2.70548e-09 1.81109e-10 0)
(-2.80144e-09 1.81662e-09 0)
(-7.7533e-10 2.09978e-09 0)
(-4.36297e-10 7.59957e-10 0)
(8.11394e-10 -1.29499e-09 0)
(-3.03366e-09 -7.716e-09 0)
(-1.14178e-09 -8.5203e-09 0)
(2.01491e-09 -4.75872e-09 0)
(2.57466e-09 3.08829e-10 0)
(3.07846e-09 6.06308e-09 0)
(3.78553e-09 7.21871e-10 0)
(9.70627e-09 -9.77515e-09 0)
(-1.91303e-08 -1.60626e-08 0)
(1.61702e-07 3.23719e-08 0)
(-6.26913e-07 -8.79757e-08 0)
(-1.17774e-07 8.26644e-08 0)
(7.74467e-08 2.0671e-08 0)
(9.07904e-09 -2.266e-09 0)
(3.1939e-09 -6.80416e-09 0)
(3.37511e-10 -5.68345e-09 0)
(2.38565e-10 -3.57145e-10 0)
(5.94288e-10 3.58513e-10 0)
(5.18634e-10 -2.3506e-09 0)
(-6.4904e-11 -1.39366e-09 0)
(-1.08698e-10 -2.97086e-09 0)
(-3.04923e-09 -1.24306e-08 0)
(-2.01177e-10 -1.31749e-08 0)
(3.32135e-09 -4.82412e-09 0)
(4.91895e-09 2.5933e-09 0)
(2.1222e-09 6.44783e-09 0)
(7.99955e-10 1.21896e-09 0)
(-1.79542e-09 -1.44901e-08 0)
(3.21647e-08 -1.38928e-08 0)
(-1.61382e-07 1.25166e-08 0)
(6.44737e-07 -5.75602e-08 0)
(1.52585e-07 7.1125e-08 0)
(-7.37952e-08 8.27627e-09 0)
(-1.2044e-08 -3.33718e-09 0)
(-5.00804e-09 -8.46845e-09 0)
(8.08179e-13 -4.6847e-09 0)
(5.18319e-09 2.65761e-09 0)
(3.68178e-09 4.88309e-10 0)
(9.83002e-10 -5.85417e-09 0)
(1.30764e-09 -3.24087e-09 0)
(-1.11451e-09 -4.50179e-09 0)
(-1.99463e-09 -1.43936e-08 0)
(2.06983e-09 -1.54381e-08 0)
(5.35811e-09 -5.43845e-09 0)
(6.02061e-09 3.58693e-09 0)
(3.02405e-09 4.15999e-09 0)
(-2.66526e-09 1.68159e-09 0)
(1.91644e-09 -7.74942e-09 0)
(1.45969e-10 -1.10073e-08 0)
(3.93922e-08 -3.01028e-08 0)
(2.56392e-08 1.13799e-07 0)
(-6.19868e-08 -5.41774e-08 0)
(-1.1013e-08 -1.1886e-08 0)
(-1.4659e-08 -1.14386e-08 0)
(-1.12571e-08 -8.32412e-09 0)
(1.42915e-09 1.45999e-09 0)
(6.09573e-09 7.8789e-09 0)
(2.76107e-09 2.65922e-09 0)
(6.73006e-10 -5.67631e-09 0)
(3.02232e-09 -3.10209e-09 0)
(-1.94053e-09 -4.95185e-09 0)
(7.23097e-10 -1.30708e-08 0)
(4.30573e-09 -1.50997e-08 0)
(6.5937e-09 -7.37344e-09 0)
(6.37634e-09 1.14032e-09 0)
(4.39526e-09 1.41104e-09 0)
(-3.29976e-10 -1.32846e-09 0)
(-1.46311e-09 -6.22022e-10 0)
(2.87728e-09 -1.01272e-08 0)
(7.05503e-09 -4.95192e-09 0)
(-1.06934e-08 -4.63132e-08 0)
(3.76662e-09 -1.4738e-08 0)
(-7.83316e-09 -1.5381e-08 0)
(-9.61272e-09 -1.55539e-08 0)
(-4.46139e-10 -3.89743e-09 0)
(5.24753e-09 6.58982e-09 0)
(4.75921e-09 1.17063e-08 0)
(1.5816e-09 6.30856e-09 0)
(6.93627e-10 -2.17021e-09 0)
(2.78755e-09 -1.44534e-09 0)
(-1.84691e-09 -4.18307e-09 0)
(4.28703e-09 -1.04263e-08 0)
(5.4521e-09 -1.30807e-08 0)
(5.76379e-09 -9.17089e-09 0)
(5.78919e-09 -2.13535e-09 0)
(5.23251e-09 -1.84956e-09 0)
(4.03014e-09 -3.76159e-09 0)
(8.53946e-10 -1.98551e-09 0)
(1.71107e-09 1.45602e-09 0)
(8.35365e-10 -2.16431e-09 0)
(4.16791e-09 2.64623e-09 0)
(2.01086e-10 1.23667e-09 0)
(-1.54114e-09 -5.93431e-09 0)
(4.37937e-09 -4.93662e-09 0)
(6.0257e-09 1.21122e-09 0)
(4.48633e-09 9.42837e-09 0)
(3.14035e-09 1.40777e-08 0)
(2.31885e-09 8.08768e-09 0)
(1.24666e-09 -4.53893e-10 0)
(3.23012e-10 -3.293e-10 0)
(-4.29143e-10 -2.65721e-09 0)
(7.29248e-09 -8.60004e-09 0)
(4.92533e-09 -1.08841e-08 0)
(3.12918e-09 -8.67556e-09 0)
(3.90926e-09 -3.6615e-09 0)
(6.05909e-09 -2.66285e-09 0)
(6.98855e-09 -5.19793e-09 0)
(5.04934e-09 -4.72291e-09 0)
(2.30601e-09 7.62469e-10 0)
(-1.16613e-10 5.77284e-09 0)
(4.06207e-09 1.16996e-08 0)
(5.24845e-09 8.09681e-09 0)
(7.08383e-09 3.67577e-09 0)
(7.70521e-09 -6.68309e-10 0)
(5.83206e-09 1.50154e-09 0)
(3.29665e-09 9.41561e-09 0)
(1.63501e-09 1.36114e-08 0)
(2.4981e-09 5.97624e-09 0)
(1.83928e-09 -2.73386e-09 0)
(-2.12624e-09 -1.35133e-09 0)
(1.93442e-09 -6.92882e-10 0)
(8.31597e-09 -8.24981e-09 0)
(3.22791e-09 -9.69377e-09 0)
(-3.52077e-10 -5.88638e-09 0)
(1.79889e-09 -2.29378e-09 0)
(6.31044e-09 -1.12568e-09 0)
(8.59771e-09 -4.78004e-09 0)
(7.5536e-09 -6.48632e-09 0)
(3.34197e-09 -3.8916e-09 0)
(2.98671e-09 4.50445e-09 0)
(1.91793e-09 1.11019e-08 0)
(2.77138e-09 9.947e-09 0)
(6.39434e-09 4.18044e-09 0)
(6.8887e-09 -1.77113e-09 0)
(5.23965e-09 -5.44564e-10 0)
(1.1502e-09 6.39283e-09 0)
(-4.12518e-10 1.00672e-08 0)
(2.28907e-09 1.94731e-09 0)
(1.92468e-09 -6.74646e-09 0)
(-2.181e-09 -3.5927e-09 0)
(3.48162e-09 9.28393e-10 0)
(6.77247e-09 -6.1047e-09 0)
(1.69116e-09 -7.36744e-09 0)
(-2.38668e-09 -2.74969e-09 0)
(5.02769e-10 -3.46313e-10 0)
(6.13485e-09 2.86436e-10 0)
(9.00754e-09 -2.16742e-09 0)
(8.03222e-09 -5.01687e-09 0)
(5.28146e-09 -4.39597e-09 0)
(3.60041e-09 9.76827e-10 0)
(3.20142e-09 4.42538e-09 0)
(4.63654e-09 5.60657e-09 0)
(4.03757e-09 1.57252e-09 0)
(3.41248e-09 -2.59385e-09 0)
(2.57116e-09 -2.37328e-09 0)
(-5.3856e-10 2.76699e-09 0)
(-1.63354e-09 6.29322e-09 0)
(5.5344e-10 -3.83158e-10 0)
(4.33263e-10 -7.95738e-09 0)
(2.55341e-10 -4.34807e-09 0)
(4.50454e-09 7.29625e-10 0)
(4.94456e-09 -1.89244e-09 0)
(4.70613e-10 -2.61661e-09 0)
(-3.41053e-09 -7.18381e-10 0)
(-9.34513e-11 1.15534e-10 0)
(6.09727e-09 3.27827e-10 0)
(9.13261e-09 -2.3573e-10 0)
(8.10816e-09 -1.42594e-09 0)
(6.12541e-09 -1.53519e-09 0)
(4.78811e-09 -2.19073e-10 0)
(3.99335e-09 1.52079e-09 0)
(3.3507e-09 1.27816e-09 0)
(2.33465e-09 -6.12955e-10 0)
(2.58118e-09 -1.66336e-09 0)
(2.23115e-09 -1.36117e-09 0)
(-3.43337e-10 6.89461e-10 0)
(-2.64517e-09 2.21583e-09 0)
(-2.12184e-09 -3.9395e-10 0)
(-8.12648e-10 -3.5874e-09 0)
(3.35798e-09 -2.01572e-09 0)
)
;

boundaryField
{
    sides
    {
        type            calculated;
        value           nonuniform List<vector> 
40
(
(4.50454e-09 0 0)
(4.94456e-09 0 0)
(4.70613e-10 0 0)
(-3.41053e-09 0 0)
(-9.34513e-11 0 0)
(6.09727e-09 0 0)
(9.13261e-09 0 0)
(8.10816e-09 0 0)
(6.12541e-09 0 0)
(4.78811e-09 0 0)
(3.99335e-09 0 0)
(3.3507e-09 0 0)
(2.33465e-09 0 0)
(2.58118e-09 0 0)
(2.23115e-09 0 0)
(-3.43337e-10 0 0)
(-2.64517e-09 0 0)
(-2.12184e-09 0 0)
(-8.12648e-10 0 0)
(3.35798e-09 0 0)
(1.7309e-09 0 0)
(2.21694e-09 0 0)
(-1.42627e-09 0 0)
(-2.23671e-09 0 0)
(3.32876e-09 0 0)
(7.96756e-09 0 0)
(7.96242e-09 0 0)
(7.5494e-09 0 0)
(6.27217e-09 0 0)
(7.84562e-09 0 0)
(5.75511e-09 0 0)
(4.33177e-09 0 0)
(4.45068e-09 0 0)
(2.40547e-09 0 0)
(2.5518e-09 0 0)
(2.80127e-09 0 0)
(4.55056e-09 0 0)
(6.56577e-09 0 0)
(1.32341e-09 0 0)
(-4.65366e-09 0 0)
)
;
    }
    inlet
    {
        type            calculated;
        value           uniform (0 0 0);
    }
    outlet
    {
        type            calculated;
        value           nonuniform List<vector> 
20
(
(-4.65366e-09 1.22059e-10 0)
(-3.65931e-09 1.35723e-09 0)
(-1.48948e-09 8.99462e-10 0)
(2.07538e-09 2.06792e-09 0)
(2.11002e-09 3.2274e-09 0)
(6.28791e-09 2.61646e-09 0)
(7.75158e-09 3.6241e-09 0)
(8.13165e-09 3.65179e-09 0)
(7.74381e-09 4.74561e-09 0)
(-7.18931e-10 3.77428e-09 0)
(-4.36297e-10 7.59957e-10 0)
(-6.4904e-11 -1.39366e-09 0)
(1.30764e-09 -3.24087e-09 0)
(3.02232e-09 -3.10209e-09 0)
(2.78755e-09 -1.44534e-09 0)
(3.23012e-10 -3.293e-10 0)
(-2.12624e-09 -1.35133e-09 0)
(-2.181e-09 -3.5927e-09 0)
(2.55341e-10 -4.34807e-09 0)
(3.35798e-09 -2.01572e-09 0)
)
;
    }
    frontAndBack
    {
        type            empty;
    }
}


// ************************************************************************* //
