/*--------------------------------*- C++ -*----------------------------------*\
  =========                 |
  \\      /  F ield         | OpenFOAM: The Open Source CFD Toolbox
   \\    /   O peration     | Website:  https://openfoam.org
    \\  /    A nd           | Version:  9
     \\/     M anipulation  |
\*---------------------------------------------------------------------------*/
FoamFile
{
    format      ascii;
    class       volScalarField;
    location    "58";
    object      h_0;
}
// * * * * * * * * * * * * * * * * * * * * * * * * * * * * * * * * * * * * * //

dimensions      [0 1 0 0 0 0 0];

internalField   nonuniform List<scalar> 
400
(
0.0100004
0.0100004
0.0100003
0.0100002
0.00999997
0.00999975
0.00999951
0.00999927
0.00999905
0.00999887
0.00999878
0.00999878
0.0099989
0.00999911
0.00999938
0.00999965
0.00999987
0.01
0.0100001
0.01
0.0100004
0.0100003
0.0100002
0.0100001
0.00999988
0.00999965
0.00999939
0.00999912
0.00999887
0.00999866
0.00999855
0.00999857
0.00999872
0.00999897
0.00999927
0.00999957
0.00999978
0.00999991
0.00999996
0.00999998
0.0100004
0.0100003
0.0100002
0.0100001
0.00999988
0.00999963
0.00999935
0.00999903
0.00999873
0.00999848
0.00999833
0.00999834
0.00999852
0.00999885
0.00999925
0.00999964
0.00999992
0.0100001
0.0100001
0.01
0.0100004
0.0100004
0.0100003
0.0100001
0.00999991
0.00999963
0.00999929
0.00999889
0.00999847
0.0099981
0.00999787
0.0099979
0.00999819
0.00999872
0.0099993
0.00999974
0.00999995
0.00999999
0.00999996
0.00999996
0.0100005
0.0100005
0.0100004
0.0100002
0.01
0.0099997
0.00999927
0.00999875
0.00999816
0.00999759
0.00999718
0.00999719
0.00999769
0.00999858
0.00999952
0.0100002
0.0100004
0.0100003
0.0100001
0.00999999
0.0100006
0.0100006
0.0100005
0.0100004
0.0100002
0.00999987
0.00999934
0.00999862
0.00999776
0.0099969
0.00999633
0.00999627
0.00999705
0.00999842
0.00999973
0.0100004
0.0100005
0.0100002
0.00999993
0.00999992
0.0100008
0.0100008
0.0100008
0.0100007
0.0100006
0.0100002
0.00999967
0.00999868
0.00999715
0.00999537
0.00999415
0.00999454
0.00999668
0.00999947
0.0100013
0.0100015
0.0100008
0.01
0.00999974
0.00999987
0.0100009
0.010001
0.010001
0.0100011
0.0100011
0.0100008
0.0100003
0.00999929
0.00999738
0.00999432
0.00999028
0.00999021
0.00999448
0.0100002
0.0100033
0.0100031
0.0100013
0.00999985
0.0099995
0.00999983
0.010001
0.0100011
0.0100013
0.0100015
0.0100018
0.0100019
0.0100014
0.00999949
0.00999551
0.00998972
0.009987
0.00998976
0.00999804
0.0100037
0.0100044
0.0100024
0.0100003
0.00999934
0.00999944
0.00999988
0.010001
0.0100012
0.0100014
0.0100019
0.0100026
0.010004
0.0100059
0.0100078
0.0100049
0.00897848
0.00895243
0.00997584
0.0100088
0.0100178
0.0100104
0.0100023
0.00999885
0.0099989
0.00999978
0.0100001
0.0100009
0.0100011
0.0100013
0.0100018
0.0100026
0.010004
0.0100058
0.0100078
0.0100048
0.00897845
0.00895243
0.00997583
0.0100088
0.0100178
0.0100104
0.0100023
0.00999884
0.00999889
0.00999975
0.0100001
0.0100008
0.0100009
0.0100011
0.0100013
0.0100016
0.0100017
0.0100012
0.0099993
0.00999531
0.00998957
0.00998651
0.00998962
0.00999792
0.0100036
0.0100043
0.0100023
0.0100002
0.00999932
0.00999945
0.00999989
0.0100006
0.0100006
0.0100007
0.0100007
0.0100007
0.0100005
0.01
0.00999899
0.00999712
0.00999402
0.00999036
0.00998994
0.00999422
0.00999994
0.0100031
0.0100029
0.0100011
0.00999977
0.00999947
0.00999982
0.0100003
0.0100003
0.0100003
0.0100002
0.0100001
0.00999979
0.00999922
0.00999824
0.00999672
0.00999496
0.00999371
0.00999414
0.00999634
0.00999917
0.0100011
0.0100013
0.0100006
0.0099999
0.00999964
0.00999983
0.01
0.01
0.00999994
0.00999982
0.00999962
0.00999928
0.00999876
0.00999806
0.00999722
0.0099964
0.00999584
0.00999583
0.00999664
0.00999804
0.00999939
0.0100001
0.0100002
0.00999999
0.00999982
0.00999988
0.00999976
0.00999972
0.00999964
0.0099995
0.00999928
0.00999897
0.00999856
0.00999806
0.00999749
0.00999693
0.00999655
0.0099966
0.00999713
0.00999806
0.00999905
0.00999975
0.01
0.00999999
0.00999991
0.00999993
0.00999953
0.00999948
0.00999939
0.00999925
0.00999904
0.00999878
0.00999844
0.00999806
0.00999767
0.00999734
0.00999716
0.00999722
0.00999756
0.00999813
0.00999878
0.00999931
0.00999964
0.00999977
0.00999983
0.00999992
0.00999933
0.00999929
0.0099992
0.00999906
0.00999887
0.00999863
0.00999835
0.00999805
0.00999776
0.00999753
0.00999741
0.00999747
0.00999772
0.00999812
0.00999859
0.00999904
0.00999939
0.00999963
0.00999978
0.00999991
0.00999918
0.00999914
0.00999906
0.00999893
0.00999875
0.00999854
0.0099983
0.00999806
0.00999784
0.00999767
0.0099976
0.00999765
0.00999784
0.00999816
0.00999855
0.00999894
0.00999929
0.00999955
0.00999976
0.00999992
0.00999904
0.009999
0.00999891
0.00999878
0.00999861
0.00999841
0.00999819
0.00999796
0.00999776
0.00999762
0.00999756
0.00999762
0.0099978
0.00999808
0.00999842
0.00999878
0.00999911
0.0099994
0.00999965
0.00999987
)
;

boundaryField
{
    sides
    {
        type            zeroGradient;
    }
    inlet
    {
        type            zeroGradient;
    }
    outlet
    {
        type            fixedValue;
        value           uniform 0.01;
    }
    frontAndBack
    {
        type            empty;
    }
}


// ************************************************************************* //
