/*--------------------------------*- C++ -*----------------------------------*\
  =========                 |
  \\      /  F ield         | OpenFOAM: The Open Source CFD Toolbox
   \\    /   O peration     | Website:  https://openfoam.org
    \\  /    A nd           | Version:  9
     \\/     M anipulation  |
\*---------------------------------------------------------------------------*/
FoamFile
{
    format      ascii;
    class       volVectorField;
    location    "58";
    object      hU;
}
// * * * * * * * * * * * * * * * * * * * * * * * * * * * * * * * * * * * * * //

dimensions      [0 2 -1 0 0 0 0];

internalField   nonuniform List<vector> 
400
(
(0.001 -2.39425e-08 0)
(0.00100004 -6.97833e-08 0)
(0.00100011 -1.12959e-07 0)
(0.00100023 -1.52455e-07 0)
(0.00100039 -1.86836e-07 0)
(0.00100058 -2.15579e-07 0)
(0.00100078 -2.3552e-07 0)
(0.00100099 -2.44438e-07 0)
(0.00100118 -2.36116e-07 0)
(0.00100132 -2.11712e-07 0)
(0.0010014 -1.69015e-07 0)
(0.0010014 -1.28389e-07 0)
(0.00100129 -9.87628e-08 0)
(0.00100111 -9.29393e-08 0)
(0.00100087 -1.00093e-07 0)
(0.00100064 -1.3642e-07 0)
(0.00100043 -1.57152e-07 0)
(0.00100033 -2.0145e-07 0)
(0.00100025 -1.88788e-07 0)
(0.00100032 -2.68597e-07 0)
(0.001 -2.59235e-08 0)
(0.00100004 -7.68331e-08 0)
(0.00100013 -1.27269e-07 0)
(0.00100025 -1.73845e-07 0)
(0.00100042 -2.12089e-07 0)
(0.00100062 -2.37528e-07 0)
(0.00100084 -2.42512e-07 0)
(0.00100107 -2.1789e-07 0)
(0.00100129 -1.54031e-07 0)
(0.00100147 -4.86713e-08 0)
(0.00100156 9.2472e-08 0)
(0.00100154 2.47745e-07 0)
(0.00100141 3.90755e-07 0)
(0.00100119 4.77285e-07 0)
(0.00100092 5.04294e-07 0)
(0.00100066 4.50173e-07 0)
(0.00100048 3.77477e-07 0)
(0.00100036 2.58506e-07 0)
(0.00100032 2.05971e-07 0)
(0.00100028 7.9991e-08 0)
(0.001 -5.1041e-08 0)
(0.00100004 -1.56094e-07 0)
(0.00100012 -2.65449e-07 0)
(0.00100025 -3.73552e-07 0)
(0.00100043 -4.72383e-07 0)
(0.00100064 -5.52119e-07 0)
(0.00100089 -5.98888e-07 0)
(0.00100116 -5.93934e-07 0)
(0.00100143 -5.17225e-07 0)
(0.00100164 -3.53254e-07 0)
(0.00100176 -1.10734e-07 0)
(0.00100175 1.63401e-07 0)
(0.00100159 4.0453e-07 0)
(0.0010013 5.21561e-07 0)
(0.00100094 4.98729e-07 0)
(0.00100062 3.51999e-07 0)
(0.00100036 2.026e-07 0)
(0.00100026 4.83276e-08 0)
(0.00100021 -2.05027e-09 0)
(0.00100029 -1.18309e-07 0)
(0.001 -7.08549e-08 0)
(0.00100004 -2.18439e-07 0)
(0.00100013 -3.7343e-07 0)
(0.00100026 -5.31028e-07 0)
(0.00100044 -6.80215e-07 0)
(0.00100069 -8.06409e-07 0)
(0.00100099 -8.83203e-07 0)
(0.00100134 -8.81263e-07 0)
(0.0010017 -7.5461e-07 0)
(0.00100202 -4.77144e-07 0)
(0.00100221 -2.3591e-08 0)
(0.00100219 4.95727e-07 0)
(0.00100192 9.40592e-07 0)
(0.00100146 1.14183e-06 0)
(0.00100097 1.05373e-06 0)
(0.00100058 7.40925e-07 0)
(0.0010004 4.24104e-07 0)
(0.00100035 1.7419e-07 0)
(0.0010004 1.04119e-07 0)
(0.00100034 -1.32483e-09 0)
(0.001 -8.73325e-08 0)
(0.00100004 -2.73355e-07 0)
(0.00100012 -4.75408e-07 0)
(0.00100024 -6.94991e-07 0)
(0.00100044 -9.20877e-07 0)
(0.00100072 -1.13546e-06 0)
(0.00100109 -1.29269e-06 0)
(0.00100155 -1.33271e-06 0)
(0.00100206 -1.17511e-06 0)
(0.00100256 -7.79079e-07 0)
(0.0010029 -1.71439e-07 0)
(0.00100288 5.83077e-07 0)
(0.00100244 1.23635e-06 0)
(0.00100167 1.51425e-06 0)
(0.00100086 1.37424e-06 0)
(0.00100031 9.62325e-07 0)
(0.00100013 5.81877e-07 0)
(0.00100021 3.19766e-07 0)
(0.00100036 2.65199e-07 0)
(0.00100042 1.66168e-07 0)
(0.001 -9.94113e-08 0)
(0.00100003 -3.13532e-07 0)
(0.00100008 -5.60312e-07 0)
(0.00100019 -8.45703e-07 0)
(0.00100038 -1.1729e-06 0)
(0.00100068 -1.52142e-06 0)
(0.00100114 -1.85346e-06 0)
(0.00100178 -2.0504e-06 0)
(0.00100254 -1.91139e-06 0)
(0.00100326 -1.20019e-06 0)
(0.00100376 8.63072e-08 0)
(0.00100377 1.54729e-06 0)
(0.00100309 2.4417e-06 0)
(0.00100191 2.30912e-06 0)
(0.00100082 1.42952e-06 0)
(0.00100019 4.90168e-07 0)
(0.00100017 1.33108e-08 0)
(0.00100037 -8.12684e-08 0)
(0.00100063 6.25779e-08 0)
(0.00100054 4.83903e-08 0)
(0.001 -9.91466e-08 0)
(0.001 -3.28767e-07 0)
(0.00100002 -5.99817e-07 0)
(0.00100007 -9.62495e-07 0)
(0.00100021 -1.39224e-06 0)
(0.00100048 -1.94322e-06 0)
(0.00100099 -2.48471e-06 0)
(0.00100188 -3.08085e-06 0)
(0.00100321 -3.23219e-06 0)
(0.00100473 -2.88178e-06 0)
(0.00100573 -6.60914e-07 0)
(0.00100535 2.55976e-06 0)
(0.00100349 4.83285e-06 0)
(0.00100112 4.74074e-06 0)
(0.000999604 3.02858e-06 0)
(0.000999368 1.26212e-06 0)
(0.001 4.31078e-07 0)
(0.00100056 3.30665e-07 0)
(0.00100092 5.64051e-07 0)
(0.00100065 5.31855e-07 0)
(0.000999995 -8.99841e-08 0)
(0.000999967 -2.84772e-07 0)
(0.000999906 -5.7476e-07 0)
(0.000999873 -9.56563e-07 0)
(0.000999874 -1.577e-06 0)
(0.00100009 -2.34257e-06 0)
(0.0010005 -3.39899e-06 0)
(0.00100152 -4.12098e-06 0)
(0.00100308 -4.37147e-06 0)
(0.00100602 -2.55123e-06 0)
(0.00100911 7.42774e-07 0)
(0.00100913 4.2665e-06 0)
(0.0010055 4.72171e-06 0)
(0.00100073 2.78514e-06 0)
(0.000998146 7.3671e-07 0)
(0.00099827 -2.74948e-07 0)
(0.000999793 -2.85529e-07 0)
(0.00100087 -6.76364e-09 0)
(0.00100133 2.13441e-07 0)
(0.00100085 1.01215e-07 0)
(0.000999995 -4.75526e-08 0)
(0.000999915 -2.00884e-07 0)
(0.000999755 -3.84465e-07 0)
(0.000999528 -7.34229e-07 0)
(0.000999283 -1.33781e-06 0)
(0.000999205 -2.47999e-06 0)
(0.000999702 -4.68527e-06 0)
(0.00100139 -8.06531e-06 0)
(0.00100491 -1.32837e-05 0)
(0.00100957 -1.49139e-05 0)
(0.00101187 3.83072e-06 0)
(0.00100894 1.87283e-05 0)
(0.00100221 1.57831e-05 0)
(0.000997563 5.74446e-06 0)
(0.000996882 -3.14335e-07 0)
(0.000998455 -1.2626e-06 0)
(0.00100027 -9.3454e-08 0)
(0.001001 6.36622e-07 0)
(0.00100107 6.52422e-07 0)
(0.00100054 2.42031e-07 0)
(0.000999804 -1.90152e-08 0)
(0.00100017 -6.50254e-08 0)
(0.000999215 -1.49821e-07 0)
(0.000999901 -2.4762e-07 0)
(0.000997516 -5.91437e-07 0)
(0.000998837 -1.13058e-06 0)
(0.000993342 -2.8828e-06 0)
(0.000997528 -5.59161e-06 0)
(0.000991664 -1.15404e-05 0)
(0.000915826 -1.27057e-05 0)
(0.000951466 2.79854e-07 0)
(0.00101022 1.46393e-05 0)
(0.000990947 1.30853e-05 0)
(0.000983973 5.14366e-06 0)
(0.000989582 1.95976e-07 0)
(0.000996275 -7.7999e-07 0)
(0.00099923 -1.10288e-07 0)
(0.000999407 2.49502e-07 0)
(0.000998644 1.74305e-07 0)
(0.000998501 -1.86409e-07 0)
(0.000999804 1.28535e-08 0)
(0.00100017 4.60408e-08 0)
(0.000999215 1.18389e-07 0)
(0.0009999 2.01279e-07 0)
(0.000997513 5.30369e-07 0)
(0.000998832 1.05175e-06 0)
(0.000993335 2.7863e-06 0)
(0.000997517 5.47263e-06 0)
(0.000991648 1.13968e-05 0)
(0.000915806 1.25479e-05 0)
(0.000951422 -4.70059e-07 0)
(0.0010102 -1.49093e-05 0)
(0.000990947 -1.3407e-05 0)
(0.000983964 -5.53418e-06 0)
(0.000989562 -6.46235e-07 0)
(0.000996237 2.50379e-07 0)
(0.000999188 -4.71237e-07 0)
(0.000999361 -1.00208e-06 0)
(0.00099863 -9.88824e-07 0)
(0.000998451 -8.89514e-07 0)
(0.000999995 4.14402e-08 0)
(0.000999915 1.8235e-07 0)
(0.000999754 3.53473e-07 0)
(0.000999527 6.8886e-07 0)
(0.00099928 1.27784e-06 0)
(0.000999205 2.40159e-06 0)
(0.000999698 4.58777e-06 0)
(0.00100139 7.94004e-06 0)
(0.0010049 1.31282e-05 0)
(0.00100958 1.4719e-05 0)
(0.00101188 -4.06764e-06 0)
(0.00100889 -1.90027e-05 0)
(0.00100214 -1.60972e-05 0)
(0.000997475 -6.12416e-06 0)
(0.00099681 -8.36192e-08 0)
(0.000998395 7.77647e-07 0)
(0.00100016 -4.26047e-07 0)
(0.00100085 -1.30591e-06 0)
(0.00100087 -1.38039e-06 0)
(0.00100036 -1.25148e-06 0)
(0.000999996 8.4039e-08 0)
(0.000999967 2.67012e-07 0)
(0.000999904 5.44199e-07 0)
(0.000999868 9.12205e-07 0)
(0.000999866 1.51546e-06 0)
(0.00100008 2.26107e-06 0)
(0.00100047 3.29147e-06 0)
(0.00100148 3.98751e-06 0)
(0.00100303 4.20752e-06 0)
(0.00100593 2.36372e-06 0)
(0.00100902 -9.79542e-07 0)
(0.00100906 -4.53949e-06 0)
(0.00100542 -5.02391e-06 0)
(0.00100066 -3.13211e-06 0)
(0.000998053 -1.13087e-06 0)
(0.00099813 -2.48236e-07 0)
(0.000999618 -3.21256e-07 0)
(0.00100064 -7.43769e-07 0)
(0.00100106 -9.69279e-07 0)
(0.00100055 -1.07435e-06 0)
(0.001 9.34979e-08 0)
(0.001 3.11599e-07 0)
(0.00100002 5.70733e-07 0)
(0.00100007 9.1993e-07 0)
(0.00100019 1.3356e-06 0)
(0.00100046 1.86961e-06 0)
(0.00100097 2.39549e-06 0)
(0.00100185 2.97217e-06 0)
(0.00100317 3.11038e-06 0)
(0.00100468 2.72968e-06 0)
(0.00100568 5.08479e-07 0)
(0.00100526 -2.75955e-06 0)
(0.00100338 -5.08251e-06 0)
(0.00100096 -5.0725e-06 0)
(0.000999406 -3.44686e-06 0)
(0.000999118 -1.78944e-06 0)
(0.00099974 -1.01927e-06 0)
(0.00100025 -1.06217e-06 0)
(0.00100061 -1.30944e-06 0)
(0.00100023 -1.51559e-06 0)
(0.001 9.4287e-08 0)
(0.00100002 2.98203e-07 0)
(0.00100008 5.34595e-07 0)
(0.00100018 8.08112e-07 0)
(0.00100036 1.12307e-06 0)
(0.00100066 1.45694e-06 0)
(0.00100111 1.77354e-06 0)
(0.00100174 1.94813e-06 0)
(0.00100247 1.7827e-06 0)
(0.00100317 1.03624e-06 0)
(0.00100365 -2.82912e-07 0)
(0.00100363 -1.78695e-06 0)
(0.00100292 -2.71503e-06 0)
(0.0010017 -2.63244e-06 0)
(0.00100058 -1.7752e-06 0)
(0.000999901 -8.89937e-07 0)
(0.000999855 -4.25044e-07 0)
(0.000999978 -4.50789e-07 0)
(0.00100021 -6.18497e-07 0)
(0.001 -8.48263e-07 0)
(0.001 8.27018e-08 0)
(0.00100004 2.60009e-07 0)
(0.00100011 4.53407e-07 0)
(0.00100023 6.6359e-07 0)
(0.00100042 8.78581e-07 0)
(0.00100069 1.081e-06 0)
(0.00100105 1.22411e-06 0)
(0.0010015 1.24904e-06 0)
(0.00100199 1.07389e-06 0)
(0.00100248 6.58804e-07 0)
(0.00100279 1.89049e-08 0)
(0.00100274 -7.72338e-07 0)
(0.00100227 -1.45303e-06 0)
(0.00100146 -1.77443e-06 0)
(0.00100062 -1.66436e-06 0)
(0.001 -1.34275e-06 0)
(0.000999791 -1.02723e-06 0)
(0.000999762 -9.39942e-07 0)
(0.000999881 -9.47333e-07 0)
(0.000999763 -1.1079e-06 0)
(0.001 6.68074e-08 0)
(0.00100004 2.06196e-07 0)
(0.00100012 3.5319e-07 0)
(0.00100025 5.0277e-07 0)
(0.00100043 6.44239e-07 0)
(0.00100066 7.62145e-07 0)
(0.00100095 8.31565e-07 0)
(0.00100128 8.21345e-07 0)
(0.00100162 6.90552e-07 0)
(0.00100191 4.07846e-07 0)
(0.00100206 -4.6173e-08 0)
(0.001002 -5.77655e-07 0)
(0.0010017 -1.03786e-06 0)
(0.00100119 -1.28129e-06 0)
(0.00100065 -1.22631e-06 0)
(0.00100016 -9.89587e-07 0)
(0.000999911 -7.00246e-07 0)
(0.000999736 -5.59818e-07 0)
(0.000999748 -4.89445e-07 0)
(0.000999556 -5.97923e-07 0)
(0.001 4.91037e-08 0)
(0.00100004 1.47195e-07 0)
(0.00100012 2.459e-07 0)
(0.00100024 3.39658e-07 0)
(0.00100041 4.214e-07 0)
(0.00100062 4.80228e-07 0)
(0.00100086 5.0363e-07 0)
(0.00100111 4.69255e-07 0)
(0.00100137 3.60098e-07 0)
(0.00100157 1.56669e-07 0)
(0.00100166 -1.16407e-07 0)
(0.0010016 -4.22812e-07 0)
(0.00100139 -6.83777e-07 0)
(0.00100103 -8.42774e-07 0)
(0.00100063 -8.48342e-07 0)
(0.00100022 -7.67718e-07 0)
(0.000999947 -6.36805e-07 0)
(0.000999686 -5.9925e-07 0)
(0.000999623 -5.63607e-07 0)
(0.000999382 -6.84605e-07 0)
(0.001 3.43521e-08 0)
(0.00100004 1.03118e-07 0)
(0.00100011 1.73569e-07 0)
(0.00100022 2.41875e-07 0)
(0.00100038 3.01749e-07 0)
(0.00100056 3.47647e-07 0)
(0.00100076 3.7219e-07 0)
(0.00100097 3.66229e-07 0)
(0.00100116 3.18897e-07 0)
(0.0010013 2.24357e-07 0)
(0.00100136 8.62509e-08 0)
(0.00100131 -7.14388e-08 0)
(0.00100115 -2.078e-07 0)
(0.00100086 -2.9811e-07 0)
(0.00100053 -3.11662e-07 0)
(0.00100016 -2.80167e-07 0)
(0.000999898 -2.02123e-07 0)
(0.00099961 -1.70629e-07 0)
(0.000999512 -1.20347e-07 0)
(0.000999245 -1.9849e-07 0)
(0.001 -3.95852e-09 0)
(0.00100004 -1.04199e-08 0)
(0.00100012 -1.35239e-08 0)
(0.00100023 -1.50279e-08 0)
(0.00100038 -1.74552e-08 0)
(0.00100056 -2.3631e-08 0)
(0.00100075 -3.47657e-08 0)
(0.00100094 -5.42858e-08 0)
(0.00100111 -8.22574e-08 0)
(0.00100123 -1.22254e-07 0)
(0.00100128 -1.70224e-07 0)
(0.00100121 -2.32145e-07 0)
(0.00100107 -2.91281e-07 0)
(0.0010008 -3.41433e-07 0)
(0.00100053 -3.59302e-07 0)
(0.00100018 -3.67364e-07 0)
(0.000999943 -3.42189e-07 0)
(0.000999606 -3.53571e-07 0)
(0.000999517 -3.28636e-07 0)
(0.000999126 -4.10701e-07 0)
)
;

boundaryField
{
    sides
    {
        type            slip;
    }
    inlet
    {
        type            fixedValue;
        value           uniform (0.001 0 0);
    }
    outlet
    {
        type            zeroGradient;
    }
    frontAndBack
    {
        type            empty;
    }
}


// ************************************************************************* //
