/*--------------------------------*- C++ -*----------------------------------*\
  =========                 |
  \\      /  F ield         | OpenFOAM: The Open Source CFD Toolbox
   \\    /   O peration     | Website:  https://openfoam.org
    \\  /    A nd           | Version:  9
     \\/     M anipulation  |
\*---------------------------------------------------------------------------*/
FoamFile
{
    format      ascii;
    class       volVectorField;
    location    "58";
    object      hU_0;
}
// * * * * * * * * * * * * * * * * * * * * * * * * * * * * * * * * * * * * * //

dimensions      [0 2 -1 0 0 0 0];

internalField   nonuniform List<vector> 
400
(
(0.001 -2.37842e-08 0)
(0.00100004 -6.99324e-08 0)
(0.00100011 -1.13257e-07 0)
(0.00100023 -1.52786e-07 0)
(0.00100039 -1.87082e-07 0)
(0.00100058 -2.15605e-07 0)
(0.00100078 -2.35498e-07 0)
(0.00100099 -2.44468e-07 0)
(0.00100118 -2.36099e-07 0)
(0.00100132 -2.11512e-07 0)
(0.0010014 -1.68383e-07 0)
(0.00100139 -1.28102e-07 0)
(0.00100129 -9.86238e-08 0)
(0.00100111 -9.3029e-08 0)
(0.00100087 -1.00226e-07 0)
(0.00100064 -1.363e-07 0)
(0.00100043 -1.56911e-07 0)
(0.00100033 -2.01385e-07 0)
(0.00100025 -1.88775e-07 0)
(0.00100033 -2.68599e-07 0)
(0.001 -2.57628e-08 0)
(0.00100004 -7.71973e-08 0)
(0.00100013 -1.27969e-07 0)
(0.00100025 -1.74645e-07 0)
(0.00100042 -2.12545e-07 0)
(0.00100062 -2.37484e-07 0)
(0.00100084 -2.42401e-07 0)
(0.00100107 -2.18099e-07 0)
(0.00100129 -1.54041e-07 0)
(0.00100147 -4.83531e-08 0)
(0.00100156 9.3275e-08 0)
(0.00100154 2.48515e-07 0)
(0.00100141 3.90951e-07 0)
(0.00100118 4.77108e-07 0)
(0.00100092 5.04055e-07 0)
(0.00100066 4.5042e-07 0)
(0.00100048 3.78174e-07 0)
(0.00100036 2.58886e-07 0)
(0.00100032 2.05764e-07 0)
(0.00100028 7.98681e-08 0)
(0.001 -5.11259e-08 0)
(0.00100004 -1.56692e-07 0)
(0.00100012 -2.66467e-07 0)
(0.00100025 -3.74474e-07 0)
(0.00100043 -4.72647e-07 0)
(0.00100064 -5.51927e-07 0)
(0.00100089 -5.99082e-07 0)
(0.00100116 -5.94419e-07 0)
(0.00100143 -5.17668e-07 0)
(0.00100164 -3.5277e-07 0)
(0.00100176 -1.1044e-07 0)
(0.00100175 1.64374e-07 0)
(0.00100159 4.04881e-07 0)
(0.0010013 5.21362e-07 0)
(0.00100094 4.98736e-07 0)
(0.00100062 3.52477e-07 0)
(0.00100036 2.03444e-07 0)
(0.00100026 4.88486e-08 0)
(0.00100021 -2.18858e-09 0)
(0.00100029 -1.18415e-07 0)
(0.001 -7.10858e-08 0)
(0.00100004 -2.1931e-07 0)
(0.00100012 -3.74722e-07 0)
(0.00100026 -5.31895e-07 0)
(0.00100044 -6.80232e-07 0)
(0.00100069 -8.06393e-07 0)
(0.00100099 -8.83807e-07 0)
(0.00100134 -8.81934e-07 0)
(0.0010017 -7.55225e-07 0)
(0.00100202 -4.77248e-07 0)
(0.00100221 -2.24669e-08 0)
(0.00100219 4.95743e-07 0)
(0.00100192 9.4096e-07 0)
(0.00100146 1.14177e-06 0)
(0.00100097 1.05382e-06 0)
(0.00100058 7.41686e-07 0)
(0.0010004 4.25119e-07 0)
(0.00100035 1.74564e-07 0)
(0.0010004 1.03689e-07 0)
(0.00100034 -1.56541e-09 0)
(0.001 -8.76516e-08 0)
(0.00100004 -2.74408e-07 0)
(0.00100011 -4.76797e-07 0)
(0.00100024 -6.95763e-07 0)
(0.00100044 -9.20885e-07 0)
(0.00100072 -1.1357e-06 0)
(0.00100109 -1.29317e-06 0)
(0.00100155 -1.33354e-06 0)
(0.00100206 -1.17552e-06 0)
(0.00100256 -7.80703e-07 0)
(0.0010029 -1.70703e-07 0)
(0.00100288 5.83265e-07 0)
(0.00100244 1.2353e-06 0)
(0.00100167 1.51381e-06 0)
(0.00100086 1.37425e-06 0)
(0.00100031 9.62985e-07 0)
(0.00100013 5.82992e-07 0)
(0.00100021 3.20299e-07 0)
(0.00100036 2.64664e-07 0)
(0.00100042 1.65831e-07 0)
(0.001 -9.97251e-08 0)
(0.00100003 -3.14705e-07 0)
(0.00100008 -5.61737e-07 0)
(0.00100019 -8.46457e-07 0)
(0.00100038 -1.17302e-06 0)
(0.00100068 -1.52149e-06 0)
(0.00100114 -1.85374e-06 0)
(0.00100178 -2.05087e-06 0)
(0.00100254 -1.91358e-06 0)
(0.00100325 -1.20027e-06 0)
(0.00100377 8.34948e-08 0)
(0.00100377 1.54862e-06 0)
(0.00100309 2.44071e-06 0)
(0.00100192 2.30734e-06 0)
(0.00100082 1.42883e-06 0)
(0.00100019 4.90465e-07 0)
(0.00100017 1.42754e-08 0)
(0.00100037 -8.06143e-08 0)
(0.00100063 6.22604e-08 0)
(0.00100054 4.81096e-08 0)
(0.001 -9.93605e-08 0)
(0.001 -3.29939e-07 0)
(0.00100002 -6.01228e-07 0)
(0.00100007 -9.63285e-07 0)
(0.00100021 -1.39236e-06 0)
(0.00100048 -1.943e-06 0)
(0.00100099 -2.48475e-06 0)
(0.00100188 -3.08169e-06 0)
(0.00100321 -3.2339e-06 0)
(0.00100472 -2.88108e-06 0)
(0.00100573 -6.65087e-07 0)
(0.00100535 2.5567e-06 0)
(0.00100349 4.83346e-06 0)
(0.00100112 4.73984e-06 0)
(0.000999606 3.02749e-06 0)
(0.000999369 1.26202e-06 0)
(0.001 4.31729e-07 0)
(0.00100056 3.31075e-07 0)
(0.00100092 5.63468e-07 0)
(0.00100065 5.31455e-07 0)
(0.000999995 -9.01045e-08 0)
(0.000999968 -2.85791e-07 0)
(0.000999906 -5.75993e-07 0)
(0.000999873 -9.57287e-07 0)
(0.000999874 -1.57701e-06 0)
(0.00100009 -2.34215e-06 0)
(0.0010005 -3.39915e-06 0)
(0.00100152 -4.1223e-06 0)
(0.00100308 -4.37121e-06 0)
(0.00100602 -2.55215e-06 0)
(0.00100908 7.49236e-07 0)
(0.00100913 4.27007e-06 0)
(0.0010055 4.72256e-06 0)
(0.00100073 2.78591e-06 0)
(0.000998147 7.36374e-07 0)
(0.00099827 -2.75417e-07 0)
(0.000999793 -2.85372e-07 0)
(0.00100087 -6.76941e-09 0)
(0.00100133 2.12724e-07 0)
(0.00100085 1.00802e-07 0)
(0.000999995 -4.76626e-08 0)
(0.000999915 -2.01631e-07 0)
(0.000999755 -3.853e-07 0)
(0.000999528 -7.34668e-07 0)
(0.000999282 -1.33774e-06 0)
(0.000999205 -2.47952e-06 0)
(0.000999701 -4.68556e-06 0)
(0.00100139 -8.06656e-06 0)
(0.00100491 -1.32833e-05 0)
(0.00100957 -1.49146e-05 0)
(0.00101191 3.83836e-06 0)
(0.00100893 1.87321e-05 0)
(0.00100221 1.57846e-05 0)
(0.000997563 5.74555e-06 0)
(0.000996881 -3.14267e-07 0)
(0.000998455 -1.26317e-06 0)
(0.00100027 -9.38566e-08 0)
(0.001001 6.36182e-07 0)
(0.00100107 6.51552e-07 0)
(0.00100054 2.41531e-07 0)
(0.000999803 -1.91263e-08 0)
(0.00100017 -6.53744e-08 0)
(0.000999215 -1.50102e-07 0)
(0.000999901 -2.47641e-07 0)
(0.000997516 -5.91332e-07 0)
(0.000998837 -1.13044e-06 0)
(0.000993342 -2.88297e-06 0)
(0.000997528 -5.59242e-06 0)
(0.000991663 -1.1541e-05 0)
(0.000915829 -1.27042e-05 0)
(0.000951464 2.77071e-07 0)
(0.00101022 1.46386e-05 0)
(0.000990949 1.30874e-05 0)
(0.000983972 5.14416e-06 0)
(0.00098958 1.95947e-07 0)
(0.000996275 -7.80182e-07 0)
(0.00099923 -1.10691e-07 0)
(0.000999407 2.49057e-07 0)
(0.000998644 1.73647e-07 0)
(0.000998501 -1.86784e-07 0)
(0.000999803 1.28327e-08 0)
(0.00100017 4.62105e-08 0)
(0.000999215 1.18705e-07 0)
(0.0009999 2.0161e-07 0)
(0.000997513 5.30405e-07 0)
(0.000998832 1.05144e-06 0)
(0.000993334 2.78611e-06 0)
(0.000997517 5.47296e-06 0)
(0.000991648 1.13956e-05 0)
(0.000915805 1.25507e-05 0)
(0.000951426 -4.79934e-07 0)
(0.0010102 -1.49061e-05 0)
(0.000990944 -1.34066e-05 0)
(0.000983961 -5.53458e-06 0)
(0.000989561 -6.46104e-07 0)
(0.000996237 2.50611e-07 0)
(0.000999189 -4.71176e-07 0)
(0.000999362 -1.00216e-06 0)
(0.00099863 -9.88968e-07 0)
(0.000998451 -8.89587e-07 0)
(0.000999995 4.15582e-08 0)
(0.000999915 1.83065e-07 0)
(0.000999754 3.54295e-07 0)
(0.000999527 6.89361e-07 0)
(0.00099928 1.27773e-06 0)
(0.000999204 2.40098e-06 0)
(0.000999697 4.58786e-06 0)
(0.00100139 7.94108e-06 0)
(0.0010049 1.31291e-05 0)
(0.00100957 1.47147e-05 0)
(0.00101187 -4.05913e-06 0)
(0.00100891 -1.90077e-05 0)
(0.00100214 -1.61004e-05 0)
(0.000997473 -6.12472e-06 0)
(0.000996809 -8.3254e-08 0)
(0.000998395 7.7821e-07 0)
(0.00100016 -4.25875e-07 0)
(0.00100085 -1.30584e-06 0)
(0.00100087 -1.38015e-06 0)
(0.00100036 -1.25135e-06 0)
(0.000999996 8.42876e-08 0)
(0.000999967 2.68162e-07 0)
(0.000999904 5.45417e-07 0)
(0.000999868 9.12708e-07 0)
(0.000999865 1.51522e-06 0)
(0.00100007 2.26041e-06 0)
(0.00100047 3.29157e-06 0)
(0.00100148 3.9889e-06 0)
(0.00100303 4.20862e-06 0)
(0.00100594 2.36062e-06 0)
(0.00100902 -9.73682e-07 0)
(0.00100904 -4.54495e-06 0)
(0.00100542 -5.02596e-06 0)
(0.00100066 -3.13239e-06 0)
(0.000998054 -1.13036e-06 0)
(0.00099813 -2.47733e-07 0)
(0.000999617 -3.21421e-07 0)
(0.00100064 -7.43868e-07 0)
(0.00100106 -9.68814e-07 0)
(0.00100055 -1.07407e-06 0)
(0.001 9.38056e-08 0)
(0.001 3.12937e-07 0)
(0.00100002 5.72201e-07 0)
(0.00100007 9.20503e-07 0)
(0.00100019 1.33535e-06 0)
(0.00100046 1.86918e-06 0)
(0.00100097 2.39536e-06 0)
(0.00100185 2.97311e-06 0)
(0.00100317 3.11147e-06 0)
(0.00100468 2.73312e-06 0)
(0.00100567 4.98633e-07 0)
(0.00100527 -2.75773e-06 0)
(0.00100338 -5.08124e-06 0)
(0.00100096 -5.0715e-06 0)
(0.000999407 -3.44595e-06 0)
(0.000999119 -1.78935e-06 0)
(0.00099974 -1.02001e-06 0)
(0.00100025 -1.06261e-06 0)
(0.00100061 -1.309e-06 0)
(0.00100023 -1.51529e-06 0)
(0.001 9.45564e-08 0)
(0.00100002 2.99428e-07 0)
(0.00100008 5.36133e-07 0)
(0.00100018 8.08911e-07 0)
(0.00100036 1.12305e-06 0)
(0.00100066 1.45676e-06 0)
(0.00100111 1.77349e-06 0)
(0.00100173 1.94834e-06 0)
(0.00100247 1.78399e-06 0)
(0.00100317 1.03752e-06 0)
(0.00100365 -2.80933e-07 0)
(0.00100363 -1.78493e-06 0)
(0.00100292 -2.71355e-06 0)
(0.00100171 -2.63078e-06 0)
(0.00100058 -1.77442e-06 0)
(0.000999901 -8.90288e-07 0)
(0.000999854 -4.26208e-07 0)
(0.000999977 -4.51582e-07 0)
(0.00100021 -6.18298e-07 0)
(0.001 -8.48052e-07 0)
(0.001 8.2924e-08 0)
(0.00100004 2.60983e-07 0)
(0.00100011 4.54819e-07 0)
(0.00100023 6.64573e-07 0)
(0.00100042 8.78809e-07 0)
(0.00100069 1.08106e-06 0)
(0.00100105 1.22422e-06 0)
(0.0010015 1.24907e-06 0)
(0.00100199 1.07409e-06 0)
(0.00100248 6.59152e-07 0)
(0.00100279 1.93909e-08 0)
(0.00100274 -7.72243e-07 0)
(0.00100227 -1.45221e-06 0)
(0.00100146 -1.77356e-06 0)
(0.00100062 -1.66417e-06 0)
(0.001 -1.3435e-06 0)
(0.00099979 -1.02863e-06 0)
(0.000999761 -9.40832e-07 0)
(0.000999881 -9.47223e-07 0)
(0.000999763 -1.10775e-06 0)
(0.001 6.7041e-08 0)
(0.00100004 2.06981e-07 0)
(0.00100012 3.54306e-07 0)
(0.00100025 5.03655e-07 0)
(0.00100043 6.44537e-07 0)
(0.00100066 7.62281e-07 0)
(0.00100095 8.3183e-07 0)
(0.00100128 8.21575e-07 0)
(0.00100162 6.90417e-07 0)
(0.00100191 4.07426e-07 0)
(0.00100206 -4.71462e-08 0)
(0.001002 -5.78329e-07 0)
(0.0010017 -1.03798e-06 0)
(0.00100119 -1.28105e-06 0)
(0.00100064 -1.2264e-06 0)
(0.00100016 -9.90486e-07 0)
(0.000999911 -7.01561e-07 0)
(0.000999736 -5.60426e-07 0)
(0.000999748 -4.89151e-07 0)
(0.000999556 -5.97735e-07 0)
(0.001 4.93361e-08 0)
(0.00100004 1.47934e-07 0)
(0.00100012 2.4673e-07 0)
(0.00100024 3.40191e-07 0)
(0.00100041 4.21555e-07 0)
(0.00100062 4.80265e-07 0)
(0.00100086 5.03971e-07 0)
(0.00100111 4.69746e-07 0)
(0.00100137 3.60314e-07 0)
(0.00100156 1.56196e-07 0)
(0.00100166 -1.17537e-07 0)
(0.0010016 -4.23786e-07 0)
(0.00100139 -6.84207e-07 0)
(0.00100103 -8.42674e-07 0)
(0.00100063 -8.48412e-07 0)
(0.00100022 -7.68442e-07 0)
(0.000999947 -6.37746e-07 0)
(0.000999686 -5.9942e-07 0)
(0.000999623 -5.63043e-07 0)
(0.000999382 -6.84313e-07 0)
(0.001 3.45094e-08 0)
(0.00100004 1.03678e-07 0)
(0.00100011 1.7408e-07 0)
(0.00100022 2.42049e-07 0)
(0.00100038 3.01747e-07 0)
(0.00100056 3.47587e-07 0)
(0.00100076 3.7239e-07 0)
(0.00100097 3.66677e-07 0)
(0.00100116 3.19265e-07 0)
(0.0010013 2.24209e-07 0)
(0.00100136 8.58041e-08 0)
(0.00100131 -7.20079e-08 0)
(0.00100115 -2.08064e-07 0)
(0.00100086 -2.97973e-07 0)
(0.00100053 -3.11594e-07 0)
(0.00100016 -2.80564e-07 0)
(0.000999898 -2.02694e-07 0)
(0.000999609 -1.70567e-07 0)
(0.000999512 -1.19719e-07 0)
(0.000999245 -1.98178e-07 0)
(0.001 -3.90516e-09 0)
(0.00100004 -1.02384e-08 0)
(0.00100012 -1.33748e-08 0)
(0.00100023 -1.50149e-08 0)
(0.00100038 -1.7477e-08 0)
(0.00100056 -2.36712e-08 0)
(0.00100075 -3.47321e-08 0)
(0.00100094 -5.4147e-08 0)
(0.00100111 -8.21125e-08 0)
(0.00100123 -1.22247e-07 0)
(0.00100128 -1.70378e-07 0)
(0.00100121 -2.32291e-07 0)
(0.00100107 -2.91269e-07 0)
(0.0010008 -3.41315e-07 0)
(0.00100053 -3.59239e-07 0)
(0.00100018 -3.67484e-07 0)
(0.000999944 -3.42387e-07 0)
(0.000999606 -3.5352e-07 0)
(0.000999517 -3.28351e-07 0)
(0.000999126 -4.10558e-07 0)
)
;

boundaryField
{
    sides
    {
        type            slip;
    }
    inlet
    {
        type            fixedValue;
        value           uniform (0.001 0 0);
    }
    outlet
    {
        type            zeroGradient;
    }
    frontAndBack
    {
        type            empty;
    }
}


// ************************************************************************* //
