/*--------------------------------*- C++ -*----------------------------------*\
  =========                 |
  \\      /  F ield         | OpenFOAM: The Open Source CFD Toolbox
   \\    /   O peration     | Website:  https://openfoam.org
    \\  /    A nd           | Version:  9
     \\/     M anipulation  |
\*---------------------------------------------------------------------------*/
FoamFile
{
    format      ascii;
    class       surfaceScalarField;
    location    "58";
    object      phi_0;
}
// * * * * * * * * * * * * * * * * * * * * * * * * * * * * * * * * * * * * * //

dimensions      [0 4 -1 0 0 0 0];

internalField   nonuniform List<scalar> 
760
(
5.00008e-06
-9.08457e-11
5.00038e-06
-3.00681e-10
5.00089e-06
-5.10899e-10
5.0016e-06
-7.06774e-10
5.00248e-06
-8.71245e-10
5.00348e-06
-9.92488e-10
5.00453e-06
-1.04653e-09
5.00555e-06
-1.00585e-09
5.00638e-06
-8.29989e-10
5.00691e-06
-5.27492e-10
5.00704e-06
-1.27072e-10
5.00664e-06
3.98621e-10
5.00578e-06
8.56747e-10
5.00467e-06
1.1025e-09
5.00351e-06
1.16586e-09
5.00256e-06
9.44999e-10
5.00184e-06
7.11255e-10
5.00158e-06
2.4838e-10
5.00147e-06
1.0634e-10
-3.95034e-10
5.00011e-06
-2.09082e-10
5.00043e-06
-6.23861e-10
5.00096e-06
-1.0434e-09
5.0017e-06
-1.4465e-09
5.00264e-06
-1.80068e-09
5.00373e-06
-2.07611e-09
5.00491e-06
-2.22523e-09
5.00609e-06
-2.17862e-09
5.00711e-06
-1.85205e-09
5.00776e-06
-1.17493e-09
5.00773e-06
-9.87702e-11
5.00724e-06
8.91685e-10
5.00625e-06
1.85091e-09
5.00494e-06
2.41652e-09
5.00366e-06
2.43877e-09
5.00276e-06
1.84925e-09
5.00223e-06
1.2419e-09
5.00189e-06
5.86234e-10
5.00162e-06
3.69143e-10
-1.56338e-10
5.0001e-06
-3.12673e-10
5.00041e-06
-9.39455e-10
5.00094e-06
-1.57511e-09
5.0017e-06
-2.21055e-09
5.0027e-06
-2.80156e-09
5.00392e-06
-3.29687e-09
5.0053e-06
-3.59945e-09
5.0067e-06
-3.57404e-09
5.00791e-06
-3.05824e-09
5.00871e-06
-1.96757e-09
5.00893e-06
-3.10483e-10
5.00824e-06
1.57639e-09
5.00686e-06
3.24191e-09
5.00514e-06
4.13829e-09
5.00349e-06
4.08564e-09
5.00229e-06
3.04682e-09
5.00165e-06
1.89051e-09
5.00145e-06
7.86551e-10
5.00142e-06
4.01435e-10
-2.29654e-10
5.00009e-06
-4.06658e-10
5.00039e-06
-1.24495e-09
5.00092e-06
-2.11129e-09
5.00173e-06
-3.01637e-09
5.00283e-06
-3.91104e-09
5.00426e-06
-4.73073e-09
5.00599e-06
-5.32158e-09
5.00792e-06
-5.50886e-09
5.00982e-06
-4.94639e-09
5.01105e-06
-3.20991e-09
5.01118e-06
-4.26991e-10
5.00998e-06
2.78531e-09
5.00763e-06
5.58747e-09
5.00513e-06
6.6479e-09
5.00346e-06
5.75583e-09
5.00268e-06
3.81962e-09
5.00246e-06
2.11624e-09
5.00229e-06
9.59619e-10
5.00197e-06
7.19162e-10
3.30462e-10
5.00008e-06
-4.84865e-10
5.00033e-06
-1.50172e-09
5.00082e-06
-2.60473e-09
5.00162e-06
-3.81967e-09
5.00283e-06
-5.13507e-09
5.00455e-06
-6.44627e-09
5.00677e-06
-7.54584e-09
5.00939e-06
-8.1282e-09
5.01236e-06
-7.92421e-09
5.01478e-06
-5.59923e-09
5.0148e-06
-4.79965e-10
5.01283e-06
4.78034e-09
5.00866e-06
9.76994e-09
5.00458e-06
1.0722e-08
5.00222e-06
8.11216e-09
5.00172e-06
4.31508e-09
5.00202e-06
1.81486e-09
5.00223e-06
7.56568e-10
5.00199e-06
9.65132e-10
6.17378e-10
5.00004e-06
-5.26668e-10
5.00019e-06
-1.6585e-09
5.00052e-06
-2.94397e-09
5.00119e-06
-4.49056e-09
5.00239e-06
-6.33254e-09
5.0045e-06
-8.55884e-09
5.00758e-06
-1.06261e-08
5.01164e-06
-1.22054e-08
5.0155e-06
-1.17834e-08
5.01899e-06
-9.05777e-09
5.0202e-06
-1.67899e-09
5.01599e-06
8.95976e-09
5.00949e-06
1.62988e-08
5.00421e-06
1.6024e-08
5.00216e-06
1.01544e-08
5.00247e-06
3.99218e-09
5.00325e-06
1.03784e-09
5.00338e-06
6.25496e-10
5.00278e-06
1.55927e-09
1.41336e-09
4.99998e-06
-5.10022e-10
4.99993e-06
-1.61902e-09
5.00002e-06
-3.03502e-09
5.00034e-06
-4.81641e-09
5.0012e-06
-7.19028e-09
5.0029e-06
-1.02604e-08
5.00678e-06
-1.45129e-08
5.01389e-06
-1.93269e-08
5.02375e-06
-2.15961e-08
5.03089e-06
-1.62723e-08
5.02872e-06
6.2724e-10
5.01671e-06
2.0953e-08
5.00415e-06
2.88323e-08
4.99871e-06
2.1477e-08
5.00056e-06
8.31635e-09
5.00283e-06
1.72438e-09
5.00369e-06
1.67213e-10
5.00364e-06
6.71862e-10
5.00303e-06
2.17153e-09
1.67126e-09
4.99986e-06
-3.80239e-10
4.99954e-06
-1.30832e-09
4.99911e-06
-2.60648e-09
4.99883e-06
-4.54268e-09
4.9993e-06
-7.66248e-09
5.00033e-06
-1.12935e-08
5.00362e-06
-1.78106e-08
5.0098e-06
-2.54988e-08
5.02486e-06
-3.66673e-08
5.05611e-06
-4.74796e-08
5.0499e-06
6.69695e-09
5.02316e-06
4.78184e-08
4.99816e-06
5.38304e-08
4.99348e-06
2.61561e-08
4.99945e-06
2.35353e-09
5.00405e-06
-2.8771e-09
5.00489e-06
-6.67847e-10
5.00371e-06
1.84832e-09
5.00349e-06
2.3839e-09
9.60007e-10
4.99976e-06
-1.53011e-10
4.99915e-06
-6.96618e-10
4.99791e-06
-1.3728e-09
4.99609e-06
-2.72825e-09
4.99399e-06
-5.57244e-09
4.99371e-06
-1.10193e-08
4.99943e-06
-2.35279e-08
5.01712e-06
-4.31934e-08
5.05569e-06
-7.52157e-08
5.06679e-06
-5.86226e-08
5.04982e-06
2.38105e-08
4.99647e-06
1.01034e-07
4.98928e-06
6.10142e-08
4.99589e-06
1.95507e-08
5.00016e-06
-1.92255e-09
5.0029e-06
-5.61254e-09
5.0025e-06
-2.50249e-10
5.00182e-06
2.52408e-09
5.00253e-06
1.67746e-09
6.57896e-11
4.99986e-06
-1.54387e-11
4.9992e-06
-4.76923e-11
4.9979e-06
-7.96421e-11
4.99529e-06
-1.20461e-10
4.98987e-06
-1.63423e-10
4.97905e-06
-2.1636e-10
4.9558e-06
-2.67423e-10
4.91295e-06
-3.33246e-10
4.8381e-06
-4.09921e-10
4.77998e-06
-4.30502e-10
4.80424e-06
-6.26915e-10
4.90602e-06
-7.19181e-10
4.96778e-06
-7.25114e-10
4.9882e-06
-8.90834e-10
4.98742e-06
-1.15213e-09
4.98323e-06
-1.41699e-09
4.98453e-06
-1.55346e-09
4.98888e-06
-1.82454e-09
4.99246e-06
-1.89679e-09
-2.59122e-09
4.99986e-06
1.22476e-10
4.9992e-06
5.99974e-10
4.9979e-06
1.2168e-09
4.99527e-06
2.49246e-09
4.98985e-06
5.25646e-09
4.97902e-06
1.06005e-08
4.95575e-06
2.30075e-08
4.91289e-06
4.25389e-08
4.83802e-06
7.44463e-08
4.7797e-06
5.7834e-08
4.80425e-06
-2.51122e-08
4.90599e-06
-1.02492e-07
4.96775e-06
-6.25255e-08
4.98804e-06
-2.12027e-08
4.98732e-06
-4.45165e-10
4.9829e-06
3.01104e-09
4.9844e-06
-3.045e-09
4.98886e-06
-6.28804e-09
4.99233e-06
-5.36211e-09
-4.98842e-09
4.99977e-06
3.49884e-10
4.99915e-06
1.21543e-09
4.9979e-06
2.4467e-09
4.99608e-06
4.30816e-09
4.99399e-06
7.34059e-09
4.9937e-06
1.08836e-08
4.99941e-06
1.73085e-08
5.01707e-06
2.48815e-08
5.05562e-06
3.58981e-08
5.06696e-06
4.63383e-08
5.04952e-06
-6.19905e-09
4.9961e-06
-4.90637e-08
4.98882e-06
-5.52941e-08
4.99566e-06
-2.80565e-08
5.00007e-06
-4.85732e-09
5.00228e-06
8.0169e-10
5.00163e-06
-2.38606e-09
5.00088e-06
-5.54506e-09
5.00167e-06
-6.14602e-09
-5.95449e-09
4.99986e-06
4.80504e-10
4.99954e-06
1.52934e-09
4.9991e-06
2.8816e-09
4.99881e-06
4.59174e-09
4.99925e-06
6.89684e-09
5.00024e-06
9.88711e-09
5.00345e-06
1.40912e-08
5.00958e-06
1.8758e-08
5.02457e-06
2.09099e-08
5.05564e-06
1.54017e-08
5.04967e-06
-1.7457e-09
5.02277e-06
-2.22239e-08
4.99785e-06
-3.03338e-08
4.99314e-06
-2.33435e-08
4.99862e-06
-1.03349e-08
5.00342e-06
-4.00253e-09
5.0037e-06
-2.66736e-09
5.00233e-06
-4.17845e-09
5.00214e-06
-5.95646e-09
-6.53708e-09
4.99997e-06
4.98992e-10
4.99992e-06
1.57609e-09
4.99999e-06
2.80552e-09
5.00029e-06
4.29065e-09
5.00111e-06
6.07214e-09
5.00277e-06
8.22238e-09
5.00666e-06
1.01984e-08
5.01375e-06
1.16571e-08
5.02355e-06
1.11301e-08
5.03069e-06
8.28142e-09
5.02834e-06
6.01651e-10
5.01623e-06
-1.00522e-08
5.00348e-06
-1.75827e-08
4.99776e-06
-1.76129e-08
4.9994e-06
-1.1967e-08
5.00159e-06
-6.19409e-09
5.00238e-06
-3.46242e-09
5.00211e-06
-3.91054e-09
5.00118e-06
-5.02054e-09
-5.97675e-09
5.00003e-06
4.60068e-10
5.00017e-06
1.43018e-09
5.00049e-06
2.4855e-09
5.00113e-06
3.64572e-09
5.0023e-06
4.90102e-09
5.00437e-06
6.14397e-09
5.00739e-06
7.17101e-09
5.01137e-06
7.6712e-09
5.01511e-06
7.39255e-09
5.0185e-06
4.89286e-09
5.01954e-06
-3.98904e-10
5.01521e-06
-5.71354e-09
5.00853e-06
-1.08835e-08
5.0031e-06
-1.2174e-08
5.00086e-06
-9.7317e-09
5.00099e-06
-6.32442e-09
5.00153e-06
-4.00752e-09
5.00129e-06
-3.67316e-09
5.00033e-06
-4.05691e-09
-4.9749e-09
5.00007e-06
3.84652e-10
5.00031e-06
1.18502e-09
5.00078e-06
2.01417e-09
5.00155e-06
2.87206e-09
5.00273e-06
3.71657e-09
5.00439e-06
4.48157e-09
5.00654e-06
5.0207e-09
5.00907e-06
5.12973e-09
5.012e-06
4.44944e-09
5.01438e-06
2.51995e-09
5.01412e-06
-1.37923e-10
5.01207e-06
-3.64934e-09
5.00774e-06
-6.54858e-09
5.00348e-06
-7.90777e-09
5.00091e-06
-7.17368e-09
5.00011e-06
-5.53129e-09
5.00008e-06
-3.98187e-09
4.99985e-06
-3.44036e-09
4.99915e-06
-3.35133e-09
-4.16975e-09
5.00009e-06
2.91601e-10
5.00038e-06
8.89799e-10
5.00089e-06
1.50035e-09
5.00165e-06
2.10078e-09
5.00272e-06
2.65184e-09
5.0041e-06
3.09802e-09
5.00577e-06
3.35618e-09
5.00761e-06
3.28977e-09
5.00931e-06
2.74635e-09
5.01025e-06
1.57291e-09
5.01041e-06
-3.04368e-10
5.00901e-06
-2.24695e-09
5.00648e-06
-4.02296e-09
5.00365e-06
-5.08391e-09
5.00152e-06
-5.04985e-09
5.00032e-06
-4.33858e-09
4.99968e-06
-3.3408e-09
4.99914e-06
-2.90114e-09
4.99843e-06
-2.63325e-09
-3.21364e-09
5.00009e-06
1.94687e-10
5.00039e-06
5.85438e-10
5.00091e-06
9.81526e-10
5.00164e-06
1.3617e-09
5.0026e-06
1.69462e-09
5.00376e-06
1.93974e-09
5.00507e-06
2.04889e-09
5.00643e-06
1.94153e-09
5.00763e-06
1.55115e-09
5.00837e-06
8.30007e-10
5.0082e-06
-1.33107e-10
5.00732e-06
-1.3692e-09
5.00568e-06
-2.38813e-09
5.00366e-06
-3.06715e-09
5.00177e-06
-3.16255e-09
5.00031e-06
-2.88791e-09
4.99929e-06
-2.32308e-09
4.9985e-06
-2.10331e-09
4.9977e-06
-1.83868e-09
-2.27738e-09
5.00007e-06
1.13727e-10
5.00035e-06
3.00209e-10
5.00084e-06
4.90433e-10
5.00153e-06
6.74844e-10
5.00239e-06
8.32625e-10
5.00339e-06
9.42755e-10
5.00446e-06
9.85671e-10
5.00549e-06
9.27207e-10
5.00631e-06
7.331e-10
5.00678e-06
3.60994e-10
5.0068e-06
-1.42759e-10
5.00606e-06
-6.33119e-10
5.00477e-06
-1.09698e-09
5.00313e-06
-1.42988e-09
5.00146e-06
-1.49786e-09
5.00001e-06
-1.43253e-09
4.99887e-06
-1.18464e-09
4.9979e-06
-1.13829e-09
4.99704e-06
-9.79628e-10
-1.42472e-09
5.0001e-06
5.00039e-06
5.00089e-06
5.00157e-06
5.0024e-06
5.00335e-06
5.00434e-06
5.00527e-06
5.00601e-06
5.00638e-06
5.00624e-06
5.00561e-06
5.00451e-06
5.00308e-06
5.00159e-06
5.00016e-06
4.99897e-06
4.99782e-06
4.99684e-06
)
;

boundaryField
{
    sides
    {
        type            calculated;
        value           uniform 0;
    }
    inlet
    {
        type            calculated;
        value           nonuniform List<scalar> 
20
(
-5e-06
-5e-06
-5e-06
-5e-06
-5e-06
-5e-06
-5e-06
-5e-06
-5e-06
-5e-06
-5e-06
-5e-06
-5e-06
-5e-06
-5e-06
-5e-06
-5e-06
-5e-06
-5e-06
-5e-06
)
;
    }
    outlet
    {
        type            calculated;
        value           nonuniform List<scalar> 
20
(
5.00187e-06
5.00138e-06
5.00149e-06
5.00141e-06
5.0017e-06
5.00198e-06
5.00277e-06
5.0042e-06
5.00342e-06
4.99512e-06
4.99473e-06
5.00263e-06
5.00273e-06
5.00062e-06
4.99933e-06
4.99834e-06
4.99747e-06
4.99676e-06
4.99619e-06
4.99542e-06
)
;
    }
    frontAndBack
    {
        type            empty;
        value           nonuniform List<scalar> 0();
    }
}


// ************************************************************************* //
