/*--------------------------------*- C++ -*----------------------------------*\
  =========                 |
  \\      /  F ield         | OpenFOAM: The Open Source CFD Toolbox
   \\    /   O peration     | Website:  https://openfoam.org
    \\  /    A nd           | Version:  9
     \\/     M anipulation  |
\*---------------------------------------------------------------------------*/
FoamFile
{
    format      ascii;
    class       volVectorField;
    location    "58";
    object      U;
}
// * * * * * * * * * * * * * * * * * * * * * * * * * * * * * * * * * * * * * //

dimensions      [0 1 -1 0 0 0 0];

internalField   nonuniform List<vector> 
400
(
(0.0999962 -2.39415e-06 0)
(0.1 -6.97807e-06 0)
(0.100009 -1.12956e-05 0)
(0.100022 -1.52453e-05 0)
(0.100039 -1.86837e-05 0)
(0.10006 -2.15584e-05 0)
(0.100083 -2.35532e-05 0)
(0.100106 -2.44456e-05 0)
(0.100127 -2.36139e-05 0)
(0.100144 -2.11735e-05 0)
(0.100152 -1.69036e-05 0)
(0.100152 -1.28404e-05 0)
(0.10014 -9.87736e-06 0)
(0.100119 -9.29475e-06 0)
(0.100093 -1.001e-05 0)
(0.100068 -1.36424e-05 0)
(0.100045 -1.57154e-05 0)
(0.100033 -2.0145e-05 0)
(0.100024 -1.88787e-05 0)
(0.100032 -2.68596e-05 0)
(0.0999967 -2.59226e-06 0)
(0.100001 -7.68307e-06 0)
(0.10001 -1.27266e-05 0)
(0.100025 -1.73844e-05 0)
(0.100043 -2.12091e-05 0)
(0.100065 -2.37536e-05 0)
(0.10009 -2.42526e-05 0)
(0.100116 -2.17909e-05 0)
(0.100141 -1.54048e-05 0)
(0.10016 -4.86778e-06 0)
(0.100171 9.24855e-06 0)
(0.100168 2.47781e-05 0)
(0.100154 3.90805e-05 0)
(0.100129 4.77334e-05 0)
(0.100099 5.0433e-05 0)
(0.100071 4.50192e-05 0)
(0.10005 3.77485e-05 0)
(0.100037 2.58509e-05 0)
(0.100033 2.05972e-05 0)
(0.100028 7.99912e-06 0)
(0.0999967 -5.10391e-06 0)
(0.100001 -1.56089e-05 0)
(0.10001 -2.65443e-05 0)
(0.100024 -3.73549e-05 0)
(0.100044 -4.72388e-05 0)
(0.100068 -5.5214e-05 0)
(0.100096 -5.98927e-05 0)
(0.100126 -5.93992e-05 0)
(0.100155 -5.17291e-05 0)
(0.100179 -3.53308e-05 0)
(0.100193 -1.10753e-05 0)
(0.100192 1.63428e-05 0)
(0.100174 4.0459e-05 0)
(0.100142 5.21621e-05 0)
(0.100102 4.98766e-05 0)
(0.100065 3.52012e-05 0)
(0.100037 2.02601e-05 0)
(0.100025 4.83273e-06 0)
(0.10002 -2.05025e-07 0)
(0.100029 -1.18308e-05 0)
(0.0999961 -7.08519e-06 0)
(0.100001 -2.18431e-05 0)
(0.10001 -3.73419e-05 0)
(0.100025 -5.31021e-05 0)
(0.100045 -6.8022e-05 0)
(0.100073 -8.06438e-05 0)
(0.100106 -8.83266e-05 0)
(0.100145 -8.81362e-05 0)
(0.100186 -7.54726e-05 0)
(0.100222 -4.77235e-05 0)
(0.100243 -2.35961e-06 0)
(0.10024 4.95831e-05 0)
(0.10021 9.40762e-05 0)
(0.100159 0.000114198 0)
(0.100104 0.000105381 0)
(0.100061 7.40944e-05 0)
(0.100041 4.24106e-05 0)
(0.100035 1.7419e-05 0)
(0.10004 1.04119e-05 0)
(0.100035 -1.32484e-07 0)
(0.0999951 -8.7328e-06 0)
(0.0999991 -2.73342e-05 0)
(0.100008 -4.7539e-05 0)
(0.100022 -6.94974e-05 0)
(0.100044 -9.20876e-05 0)
(0.100075 -0.00011355 0)
(0.100116 -0.000129279 0)
(0.100167 -0.000133288 0)
(0.100225 -0.000117533 0)
(0.100281 -7.79268e-05 0)
(0.100318 -1.71487e-05 0)
(0.100316 5.83241e-05 0)
(0.100267 0.000123663 0)
(0.100181 0.000151447 0)
(0.100091 0.000137431 0)
(0.100029 9.62309e-05 0)
(0.100009 5.81855e-05 0)
(0.100019 3.19758e-05 0)
(0.100035 2.65197e-05 0)
(0.100043 1.66168e-05 0)
(0.0999938 -9.9405e-06 0)
(0.0999965 -3.13513e-05 0)
(0.100003 -5.60281e-05 0)
(0.100015 -8.45667e-05 0)
(0.100035 -0.000117288 0)
(0.100069 -0.000152144 0)
(0.100121 -0.000185358 0)
(0.100192 -0.000205068 0)
(0.100276 -0.000191182 0)
(0.100357 -0.000120056 0)
(0.100413 8.6339e-06 0)
(0.100415 0.000154787 0)
(0.100339 0.000244242 0)
(0.100207 0.000230949 0)
(0.100084 0.000142956 0)
(0.100014 4.90147e-05 0)
(0.100012 1.33102e-06 0)
(0.100035 -8.12669e-06 0)
(0.100064 6.25783e-06 0)
(0.100055 4.83907e-06 0)
(0.0999922 -9.91389e-06 0)
(0.0999925 -3.28741e-05 0)
(0.0999945 -5.99771e-05 0)
(0.1 -9.62428e-05 0)
(0.100015 -0.000139216 0)
(0.100045 -0.000194317 0)
(0.100102 -0.00024848 0)
(0.100201 -0.000308126 0)
(0.100349 -0.000323312 0)
(0.100519 -0.000288311 0)
(0.100632 -6.61302e-05 0)
(0.10059 0.000256116 0)
(0.100382 0.000483445 0)
(0.100117 0.000474099 0)
(0.0999474 0.000302818 0)
(0.0999215 0.000126193 0)
(0.0999922 4.31043e-05 0)
(0.100055 3.30663e-05 0)
(0.100095 5.64065e-05 0)
(0.100067 5.31862e-05 0)
(0.0999903 -8.99758e-06 0)
(0.0999871 -2.84744e-05 0)
(0.0999804 -5.74701e-05 0)
(0.0999765 -9.5646e-05 0)
(0.0999768 -0.000157683 0)
(0.1 -0.000234237 0)
(0.100046 -0.000339887 0)
(0.100159 -0.000412127 0)
(0.100334 -0.000437261 0)
(0.100659 -0.000255269 0)
(0.101006 7.43475e-05 0)
(0.101012 0.000427068 0)
(0.100605 0.000472431 0)
(0.100071 0.000278509 0)
(0.0997815 7.36466e-05 0)
(0.0997964 -2.74863e-05 0)
(0.0999667 -2.85493e-05 0)
(0.100089 -6.76374e-07 0)
(0.100138 2.13452e-05 0)
(0.100086 1.01217e-05 0)
(0.0999893 -4.75478e-06 0)
(0.0999804 -2.00861e-05 0)
(0.0999626 -3.84415e-05 0)
(0.0999373 -7.34115e-05 0)
(0.09991 -0.000133757 0)
(0.0999012 -0.000247951 0)
(0.0999561 -0.000468461 0)
(0.100144 -0.000806571 0)
(0.100536 -0.00132897 0)
(0.10106 -0.00149292 0)
(0.101322 0.000383581 0)
(0.100997 0.00187474 0)
(0.100241 0.00157862 0)
(0.0997196 0.000574235 0)
(0.0996441 -3.14196e-05 0)
(0.0998214 -0.00012623 0)
(0.100024 -9.34513e-06 0)
(0.100106 6.36664e-05 0)
(0.100113 6.52459e-05 0)
(0.100055 2.42034e-05 0)
(0.0999702 -1.90132e-06 0)
(0.100006 -6.50179e-06 0)
(0.0999076 -1.498e-05 0)
(0.0999713 -2.47573e-05 0)
(0.0997252 -5.9128e-05 0)
(0.0998433 -0.000113012 0)
(0.099276 -0.000288111 0)
(0.0996748 -0.000558724 0)
(0.0991178 -0.00115347 0)
(0.102002 -0.00141513 0)
(0.10628 3.12601e-05 0)
(0.101267 0.00146747 0)
(0.0990073 0.00130738 0)
(0.0982223 0.00051345 0)
(0.0988549 1.95772e-05 0)
(0.0996046 -7.7981e-05 0)
(0.0999345 -1.103e-05 0)
(0.0999517 2.4953e-05 0)
(0.0998666 1.74309e-05 0)
(0.0998486 -1.86406e-05 0)
(0.0999709 1.28523e-06 0)
(0.100006 4.60358e-06 0)
(0.0999082 1.18373e-05 0)
(0.0999718 2.01243e-05 0)
(0.0997255 5.30231e-05 0)
(0.0998434 0.000105133 0)
(0.0992758 0.000278468 0)
(0.0996743 0.000546838 0)
(0.0991167 0.00113912 0)
(0.102 0.00139755 0)
(0.106276 -5.25066e-05 0)
(0.101265 -0.00149455 0)
(0.0990077 -0.00133953 0)
(0.0982219 -0.000552437 0)
(0.0988533 -6.45563e-05 0)
(0.099601 2.50322e-05 0)
(0.0999304 -4.71292e-05 0)
(0.0999473 -0.000100219 0)
(0.0998655 -9.88849e-05 0)
(0.0998438 -8.89503e-05 0)
(0.0999914 4.14368e-06 0)
(0.0999824 1.82334e-05 0)
(0.0999646 3.53435e-05 0)
(0.0999392 6.88767e-05 0)
(0.0999117 0.000127763 0)
(0.0999031 0.000240117 0)
(0.0999577 0.000458721 0)
(0.100146 0.00079406 0)
(0.100537 0.00131343 0)
(0.101063 0.00147344 0)
(0.101324 -0.000407312 0)
(0.100994 -0.00190225 0)
(0.100235 -0.00161006 0)
(0.0997117 -0.000612196 0)
(0.0996381 -8.35832e-06 0)
(0.0998167 7.7747e-05 0)
(0.100014 -4.26038e-05 0)
(0.100091 -0.000130599 0)
(0.100093 -0.000138046 0)
(0.100037 -0.000125149 0)
(0.0999938 8.40342e-06 0)
(0.0999905 2.66995e-05 0)
(0.0999836 5.44161e-05 0)
(0.0999794 9.12137e-05 0)
(0.0999793 0.000151535 0)
(0.100002 0.000226095 0)
(0.100047 0.000329146 0)
(0.100158 0.000398791 0)
(0.100332 0.000420874 0)
(0.100654 0.000236513 0)
(0.100999 -9.8049e-05 0)
(0.101007 -0.000454404 0)
(0.1006 -0.000502682 0)
(0.100067 -0.000313213 0)
(0.0997746 -0.000113052 0)
(0.0997842 -2.48164e-05 0)
(0.0999505 -3.2122e-05 0)
(0.100066 -7.43786e-05 0)
(0.100111 -9.69331e-05 0)
(0.100056 -0.000107437 0)
(0.099997 9.3495e-06 0)
(0.0999972 3.11589e-05 0)
(0.0999989 5.70716e-05 0)
(0.100004 9.19908e-05 0)
(0.100019 0.000133559 0)
(0.100048 0.000186965 0)
(0.100104 0.000239567 0)
(0.100203 0.000297269 0)
(0.10035 0.00031114 0)
(0.100519 0.000273106 0)
(0.100631 5.08796e-05 0)
(0.100585 -0.000276117 0)
(0.100375 -0.000508437 0)
(0.100104 -0.000507292 0)
(0.09993 -0.000344649 0)
(0.0998985 -0.00017892 0)
(0.0999677 -0.00010192 0)
(0.100026 -0.000106218 0)
(0.100065 -0.000130948 0)
(0.100025 -0.000151562 0)
(0.0999999 9.42868e-06 0)
(0.100002 2.98203e-05 0)
(0.100009 5.34599e-05 0)
(0.10002 8.08127e-05 0)
(0.10004 0.000112312 0)
(0.100073 0.000145704 0)
(0.100124 0.000177376 0)
(0.100193 0.000194851 0)
(0.100275 0.00017832 0)
(0.100353 0.000103661 0)
(0.100407 -2.8303e-05 0)
(0.100405 -0.00017877 0)
(0.100326 -0.000271595 0)
(0.10019 -0.000263295 0)
(0.100064 -0.000177531 0)
(0.0999886 -8.89924e-05 0)
(0.0999831 -4.25033e-05 0)
(0.0999978 -4.50789e-05 0)
(0.100023 -6.18509e-05 0)
(0.100001 -8.48273e-05 0)
(0.100003 8.27038e-06 0)
(0.100006 2.60016e-05 0)
(0.100015 4.53424e-05 0)
(0.100028 6.63623e-05 0)
(0.10005 8.78644e-05 0)
(0.10008 0.000108112 0)
(0.10012 0.000122428 0)
(0.100169 0.000124928 0)
(0.100224 0.000107416 0)
(0.100279 6.59007e-05 0)
(0.100314 1.89115e-06 0)
(0.100308 -7.72601e-05 0)
(0.100256 -0.000145345 0)
(0.100165 -0.000177478 0)
(0.100071 -0.000166452 0)
(0.100003 -0.000134279 0)
(0.0999789 -0.000102723 0)
(0.0999763 -9.39943e-05 0)
(0.099989 -9.47342e-05 0)
(0.099977 -0.000110791 0)
(0.100005 6.68105e-06 0)
(0.100009 2.06207e-05 0)
(0.100018 3.53211e-05 0)
(0.100032 5.02808e-05 0)
(0.100052 6.443e-05 0)
(0.100078 7.62238e-05 0)
(0.100111 8.31695e-05 0)
(0.100148 8.21504e-05 0)
(0.100186 6.90713e-05 0)
(0.100217 4.07955e-05 0)
(0.100234 -4.61861e-06 0)
(0.100228 -5.77816e-05 0)
(0.100195 -0.000103812 0)
(0.100138 -0.000128153 0)
(0.100077 -0.000122646 0)
(0.100023 -9.89655e-05 0)
(0.0999948 -7.00272e-05 0)
(0.099976 -5.59831e-05 0)
(0.0999764 -4.89453e-05 0)
(0.0999564 -5.97928e-05 0)
(0.100007 4.91069e-06 0)
(0.100011 1.47206e-05 0)
(0.10002 2.45919e-05 0)
(0.100034 3.3969e-05 0)
(0.100052 4.21448e-05 0)
(0.100075 4.80293e-05 0)
(0.100102 5.03713e-05 0)
(0.100131 4.69346e-05 0)
(0.100159 3.60179e-05 0)
(0.100181 1.56707e-05 0)
(0.100192 -1.16437e-05 0)
(0.100186 -4.22919e-05 0)
(0.100162 -6.83933e-05 0)
(0.100122 -8.42933e-05 0)
(0.100077 -8.48462e-05 0)
(0.100031 -7.67792e-05 0)
(0.100001 -6.36843e-05 0)
(0.0999723 -5.99272e-05 0)
(0.0999645 -5.63619e-05 0)
(0.0999391 -6.84611e-05 0)
(0.100009 3.43549e-06 0)
(0.100012 1.03127e-05 0)
(0.10002 1.73585e-05 0)
(0.100033 2.41901e-05 0)
(0.10005 3.01787e-05 0)
(0.100071 3.47698e-05 0)
(0.100093 3.72253e-05 0)
(0.100116 3.663e-05 0)
(0.100138 3.18966e-05 0)
(0.100153 2.24409e-05 0)
(0.10016 8.62716e-06 0)
(0.100155 -7.14556e-06 0)
(0.100136 -2.07845e-05 0)
(0.100104 -2.98165e-05 0)
(0.100068 -3.11707e-05 0)
(0.100027 -2.80197e-05 0)
(0.0999969 -2.02137e-05 0)
(0.0999654 -1.70637e-05 0)
(0.0999536 -1.2035e-05 0)
(0.0999253 -1.98491e-05 0)
(0.10001 -3.95889e-07 0)
(0.100014 -1.04209e-06 0)
(0.100022 -1.35253e-06 0)
(0.100035 -1.50297e-06 0)
(0.100052 -1.74576e-06 0)
(0.100072 -2.36348e-06 0)
(0.100093 -3.4772e-06 0)
(0.100114 -5.42969e-06 0)
(0.100134 -8.22758e-06 0)
(0.100147 -1.22283e-05 0)
(0.100152 -1.70265e-05 0)
(0.100145 -2.322e-05 0)
(0.100129 -2.91345e-05 0)
(0.1001 -3.41499e-05 0)
(0.100069 -3.59358e-05 0)
(0.10003 -3.67409e-05 0)
(0.100003 -3.42219e-05 0)
(0.0999665 -3.53592e-05 0)
(0.0999552 -3.28648e-05 0)
(0.099914 -4.10706e-05 0)
)
;

boundaryField
{
    sides
    {
        type            calculated;
        value           nonuniform List<vector> 
40
(
(0.10001 0 0)
(0.100014 0 0)
(0.100022 0 0)
(0.100035 0 0)
(0.100052 0 0)
(0.100072 0 0)
(0.100093 0 0)
(0.100114 0 0)
(0.100134 0 0)
(0.100147 0 0)
(0.100152 0 0)
(0.100145 0 0)
(0.100129 0 0)
(0.1001 0 0)
(0.100069 0 0)
(0.10003 0 0)
(0.100003 0 0)
(0.0999665 0 0)
(0.0999552 0 0)
(0.099914 0 0)
(0.0999962 0 0)
(0.1 0 0)
(0.100009 0 0)
(0.100022 0 0)
(0.100039 0 0)
(0.10006 0 0)
(0.100083 0 0)
(0.100106 0 0)
(0.100127 0 0)
(0.100144 0 0)
(0.100152 0 0)
(0.100152 0 0)
(0.10014 0 0)
(0.100119 0 0)
(0.100093 0 0)
(0.100068 0 0)
(0.100045 0 0)
(0.100033 0 0)
(0.100024 0 0)
(0.100032 0 0)
)
;
    }
    inlet
    {
        type            calculated;
        value           nonuniform List<vector> 
20
(
(0.0999959 0 0)
(0.0999964 0 0)
(0.0999963 0 0)
(0.0999958 0 0)
(0.0999949 0 0)
(0.0999936 0 0)
(0.0999922 0 0)
(0.0999908 0 0)
(0.0999899 0 0)
(0.0999898 0 0)
(0.0999905 0 0)
(0.0999919 0 0)
(0.0999942 0 0)
(0.0999969 0 0)
(0.0999998 0 0)
(0.100002 0 0)
(0.100005 0 0)
(0.100007 0 0)
(0.100008 0 0)
(0.100009 0 0)
)
;
    }
    outlet
    {
        type            calculated;
        value           nonuniform List<vector> 
20
(
(0.100032 -2.68597e-05 0)
(0.100028 7.9991e-06 0)
(0.100029 -1.18309e-05 0)
(0.100034 -1.32483e-07 0)
(0.100042 1.66168e-05 0)
(0.100054 4.83903e-06 0)
(0.100065 5.31855e-05 0)
(0.100085 1.01215e-05 0)
(0.100054 2.42031e-05 0)
(0.0998501 -1.86409e-05 0)
(0.0998451 -8.89514e-05 0)
(0.100036 -0.000125148 0)
(0.100055 -0.000107435 0)
(0.100023 -0.000151559 0)
(0.1 -8.48263e-05 0)
(0.0999763 -0.00011079 0)
(0.0999556 -5.97923e-05 0)
(0.0999382 -6.84605e-05 0)
(0.0999245 -1.9849e-05 0)
(0.0999126 -4.10701e-05 0)
)
;
    }
    frontAndBack
    {
        type            empty;
    }
}


// ************************************************************************* //
