/*--------------------------------*- C++ -*----------------------------------*\
  =========                 |
  \\      /  F ield         | OpenFOAM: The Open Source CFD Toolbox
   \\    /   O peration     | Website:  https://openfoam.org
    \\  /    A nd           | Version:  9
     \\/     M anipulation  |
\*---------------------------------------------------------------------------*/
FoamFile
{
    format      ascii;
    class       volVectorField;
    location    "62";
    object      ddtCorrDdt0(hU);
}
// * * * * * * * * * * * * * * * * * * * * * * * * * * * * * * * * * * * * * //

dimensions      [0 2 -2 0 0 0 0];

internalField   nonuniform List<vector> 
400
(
(6.60814e-11 -2.22855e-11 0)
(1.36637e-09 -1.48293e-09 0)
(1.27148e-09 -9.4787e-10 0)
(5.73817e-10 1.2829e-09 0)
(1.44693e-09 1.96883e-09 0)
(1.23503e-09 -8.65156e-10 0)
(-3.56494e-10 -4.02001e-09 0)
(-5.85846e-10 -2.75724e-09 0)
(-2.24443e-10 -3.03965e-09 0)
(-1.89166e-09 -9.84641e-10 0)
(7.75396e-10 -3.07166e-09 0)
(7.9151e-10 -5.89797e-10 0)
(5.02979e-09 -3.15727e-10 0)
(4.96076e-09 -1.06021e-09 0)
(8.64952e-10 1.14276e-09 0)
(-9.29887e-11 1.239e-09 0)
(8.94808e-10 -9.71597e-10 0)
(2.75785e-09 -3.22574e-09 0)
(8.58919e-10 -4.4786e-09 0)
(-8.23056e-09 -2.17502e-09 0)
(-1.31738e-09 -6.1244e-10 0)
(4.56934e-10 -4.12899e-09 0)
(1.71174e-09 -1.99721e-09 0)
(1.543e-09 3.8387e-09 0)
(1.12909e-09 3.91885e-09 0)
(-6.73059e-10 -4.27047e-09 0)
(-1.68643e-10 -9.59482e-09 0)
(-1.32464e-09 -5.89468e-09 0)
(1.02018e-09 -5.18619e-09 0)
(-2.19103e-09 -1.3645e-09 0)
(-1.1826e-09 2.14545e-10 0)
(4.49461e-09 -2.12844e-09 0)
(6.18246e-10 8.1152e-11 0)
(3.39395e-09 -1.83088e-09 0)
(3.38545e-10 1.55761e-09 0)
(-4.68496e-09 3.66918e-09 0)
(-4.8518e-09 -1.76461e-09 0)
(-1.95527e-09 -9.55857e-09 0)
(-3.22827e-10 -1.05544e-08 0)
(-3.02431e-09 -3.86949e-09 0)
(-1.98947e-09 -2.94177e-09 0)
(-2.78591e-10 -5.76937e-09 0)
(2.62678e-09 -5.12806e-10 0)
(2.42586e-09 5.97392e-09 0)
(-1.172e-09 2.20232e-09 0)
(-2.27481e-09 -7.84904e-09 0)
(-1.22417e-09 -7.0298e-09 0)
(1.43247e-09 -7.02707e-09 0)
(-6.99378e-10 2.1565e-10 0)
(4.76637e-09 -2.13628e-09 0)
(-3.91667e-09 4.79086e-09 0)
(1.94356e-09 -2.20697e-09 0)
(5.78706e-10 -3.93257e-09 0)
(-1.94854e-09 -6.48459e-10 0)
(1.90027e-09 -1.72464e-10 0)
(-5.30388e-09 2.0323e-09 0)
(-1.26428e-08 -1.06273e-09 0)
(-7.98657e-09 -8.25453e-09 0)
(2.27161e-09 -9.33141e-09 0)
(4.61243e-09 -3.50117e-09 0)
(-1.25711e-09 -5.85262e-09 0)
(9.02176e-10 -5.97162e-09 0)
(3.90286e-09 1.85643e-09 0)
(1.55448e-09 6.16888e-09 0)
(-3.21221e-09 -9.35066e-10 0)
(-1.92837e-09 -4.80613e-09 0)
(-1.2051e-09 -4.57591e-09 0)
(4.07187e-09 -5.22549e-09 0)
(-3.06339e-10 5.49014e-10 0)
(1.82909e-09 5.62188e-09 0)
(7.24651e-09 -6.53385e-09 0)
(-7.53589e-09 -2.8875e-11 0)
(2.88427e-09 -5.61818e-09 0)
(-1.89322e-09 -2.43392e-09 0)
(-2.95723e-09 2.00142e-09 0)
(-1.49316e-09 1.22587e-09 0)
(-8.53945e-09 -1.90826e-09 0)
(-1.16844e-08 -6.52317e-09 0)
(-4.67056e-09 -5.59193e-09 0)
(5.01401e-09 -1.21763e-09 0)
(7.18852e-10 -6.49536e-09 0)
(3.04086e-09 -5.18353e-09 0)
(4.19392e-09 2.48729e-09 0)
(-8.38319e-11 4.03544e-09 0)
(-2.20662e-09 -4.92935e-10 0)
(-2.10859e-09 -1.83407e-09 0)
(2.50948e-09 -6.50034e-09 0)
(-1.48238e-09 -2.6005e-09 0)
(9.44754e-09 1.60538e-09 0)
(-6.19905e-09 6.23345e-09 0)
(-3.3671e-09 1.70682e-09 0)
(1.12517e-08 -1.32392e-08 0)
(-9.71535e-09 -1.03653e-09 0)
(-7.13877e-10 6.02041e-11 0)
(4.17629e-10 2.59115e-09 0)
(-3.23881e-09 2.74195e-09 0)
(-7.65299e-09 -1.65851e-09 0)
(-1.11884e-08 -5.63433e-09 0)
(-5.67354e-09 -1.61278e-09 0)
(4.77223e-09 1.9691e-09 0)
(2.3872e-09 -4.38281e-09 0)
(4.50437e-09 -3.47963e-09 0)
(3.19521e-09 1.31846e-09 0)
(-5.01037e-10 2.17397e-09 0)
(-2.00268e-09 5.25967e-10 0)
(7.88161e-10 -3.39375e-09 0)
(2.56363e-10 -6.31711e-09 0)
(5.30392e-09 -2.77661e-09 0)
(-6.02753e-09 1.17826e-08 0)
(2.04433e-08 -1.37506e-08 0)
(-2.22662e-08 3.2398e-08 0)
(3.46951e-09 -2.64499e-09 0)
(1.64689e-08 -1.45824e-08 0)
(-9.85385e-09 2.38133e-09 0)
(-3.68694e-09 5.0537e-09 0)
(2.01596e-09 4.17421e-09 0)
(-2.13528e-09 7.2023e-10 0)
(-8.7306e-09 -1.86527e-09 0)
(-8.82942e-09 2.2521e-09 0)
(2.50405e-10 3.43645e-09 0)
(2.86584e-09 -9.13789e-10 0)
(4.26795e-09 -1.16167e-09 0)
(1.59945e-09 -1.74435e-10 0)
(-1.60955e-09 4.47311e-10 0)
(-1.79614e-10 -1.92466e-10 0)
(1.20734e-09 -4.21119e-09 0)
(2.83355e-09 -4.91826e-09 0)
(2.93337e-09 1.27172e-10 0)
(-3.02911e-09 -3.28092e-09 0)
(6.61178e-09 1.57759e-08 0)
(6.03045e-08 -8.72629e-08 0)
(-6.58039e-08 4.25768e-08 0)
(2.83785e-11 -8.05764e-09 0)
(1.72265e-08 -8.83993e-09 0)
(-5.7384e-10 1.95794e-09 0)
(9.04394e-10 4.51392e-09 0)
(7.41578e-10 2.03584e-09 0)
(-5.71058e-09 -6.47466e-10 0)
(-9.4676e-09 3.08151e-09 0)
(-4.01448e-09 3.98894e-09 0)
(2.12076e-09 2.20754e-09 0)
(2.60377e-09 7.8557e-10 0)
(-9.18739e-10 -1.53797e-09 0)
(-1.99688e-09 -9.96571e-10 0)
(3.74007e-10 3.78354e-11 0)
(3.88206e-09 -2.84704e-09 0)
(1.96721e-09 -4.28104e-09 0)
(-1.40417e-09 -3.7348e-09 0)
(1.43072e-08 -4.65017e-09 0)
(-1.29405e-07 -4.16728e-09 0)
(4.76573e-07 5.08267e-08 0)
(1.04139e-07 -5.71628e-08 0)
(-6.18786e-08 -4.89822e-09 0)
(-3.218e-09 -4.98461e-09 0)
(1.06666e-08 -4.67383e-09 0)
(9.5255e-09 6.68425e-10 0)
(5.87288e-09 1.62036e-09 0)
(-2.73081e-09 -1.10211e-09 0)
(-9.32757e-09 1.58045e-09 0)
(-7.30568e-09 2.79852e-09 0)
(8.54035e-10 3.46823e-09 0)
(-1.12375e-10 1.49685e-09 0)
(-3.35861e-09 -2.53551e-09 0)
(-2.31063e-09 -1.37659e-09 0)
(2.18509e-09 2.49752e-09 0)
(2.95187e-09 -4.32137e-10 0)
(1.34126e-09 -4.87472e-09 0)
(1.23703e-09 -7.58784e-09 0)
(-1.69554e-08 -7.79541e-09 0)
(1.31565e-07 -1.31561e-09 0)
(-4.69815e-07 4.34778e-08 0)
(-1.07567e-07 -4.926e-08 0)
(6.35222e-08 6.25785e-10 0)
(4.93394e-09 -1.20807e-09 0)
(1.6149e-09 -7.91182e-10 0)
(1.26398e-08 -1.59311e-09 0)
(1.90799e-08 -6.68064e-09 0)
(-5.63515e-11 -6.56016e-09 0)
(-6.61304e-09 -1.38719e-09 0)
(-1.13274e-08 5.24909e-10 0)
(-2.78959e-10 2.21712e-09 0)
(-2.78733e-09 1.12283e-09 0)
(-5.1324e-09 -1.93297e-09 0)
(-1.20032e-09 -9.99395e-10 0)
(3.20965e-09 4.28542e-09 0)
(2.84768e-09 1.95979e-09 0)
(-1.90607e-09 -4.63826e-09 0)
(-5.44784e-09 -4.1614e-09 0)
(8.38117e-09 -8.1712e-09 0)
(-9.70592e-09 1.05615e-08 0)
(-5.80219e-08 -5.35031e-08 0)
(7.80426e-08 4.96624e-08 0)
(-8.76766e-09 4.90006e-09 0)
(-1.7115e-08 -4.53101e-10 0)
(1.71552e-09 4.21052e-09 0)
(3.15423e-09 -8.38978e-10 0)
(-2.75681e-09 -8.6718e-09 0)
(7.91041e-09 -7.95557e-09 0)
(1.55106e-09 -3.35662e-09 0)
(4.47825e-10 -9.91635e-10 0)
(-4.75695e-10 -2.66092e-10 0)
(-3.69598e-09 8.75569e-10 0)
(-5.66995e-09 3.94405e-10 0)
(-6.74523e-12 -1.85259e-10 0)
(4.25855e-09 1.50374e-09 0)
(1.49605e-09 3.35464e-09 0)
(-2.81325e-09 1.1205e-09 0)
(-2.88913e-09 1.21858e-10 0)
(-6.96891e-10 9.79265e-09 0)
(1.51404e-08 -1.3572e-08 0)
(4.29391e-08 1.4164e-08 0)
(-3.3116e-08 2.80455e-08 0)
(-8.76068e-09 -6.68299e-09 0)
(-1.2265e-09 6.26438e-09 0)
(-4.35758e-09 2.59519e-09 0)
(-5.44776e-09 -1.62735e-09 0)
(1.91142e-09 -2.07881e-09 0)
(7.3826e-09 -1.3515e-09 0)
(4.46903e-09 -1.41994e-09 0)
(-1.78631e-09 -1.09931e-09 0)
(4.84524e-10 -1.65612e-09 0)
(-2.59019e-09 9.13591e-10 0)
(-4.95512e-09 3.30909e-09 0)
(-2.07467e-10 6.85111e-10 0)
(4.74924e-09 -2.76128e-09 0)
(2.63723e-09 1.6258e-09 0)
(-1.17875e-09 7.48059e-09 0)
(-9.90771e-10 9.58022e-09 0)
(7.08832e-09 1.32907e-09 0)
(-4.88155e-08 2.42691e-09 0)
(-2.40405e-07 1.70307e-09 0)
(9.32084e-09 -3.07803e-08 0)
(-2.42836e-08 7.85384e-09 0)
(8.65544e-10 1.79701e-09 0)
(-5.87571e-09 -1.22063e-09 0)
(-5.60458e-09 1.80327e-09 0)
(4.05828e-09 5.51151e-09 0)
(9.02741e-09 7.25193e-09 0)
(3.59543e-09 2.977e-09 0)
(-4.04465e-09 -1.06716e-09 0)
(1.49429e-09 -5.67486e-10 0)
(-1.92955e-10 1.28684e-09 0)
(-3.4942e-09 3.97837e-09 0)
(-1.35098e-09 2.16121e-09 0)
(3.21671e-09 -4.33707e-09 0)
(5.09581e-09 -1.64647e-09 0)
(2.43738e-09 7.73176e-09 0)
(-2.03814e-10 1.07423e-08 0)
(-1.24935e-08 2.52463e-09 0)
(6.13701e-08 2.45632e-09 0)
(2.05191e-07 -3.30057e-09 0)
(-7.62786e-09 -1.27882e-08 0)
(3.0381e-08 3.73692e-09 0)
(-5.25114e-09 2.72335e-09 0)
(2.83821e-09 2.90568e-09 0)
(5.22617e-09 5.89912e-09 0)
(6.25879e-09 1.08179e-08 0)
(5.31109e-09 1.08783e-08 0)
(-2.37517e-09 2.21603e-09 0)
(-8.726e-09 -3.01238e-09 0)
(1.76483e-09 2.0815e-09 0)
(1.22543e-09 1.99167e-09 0)
(-1.15358e-09 1.84377e-09 0)
(-2.31393e-09 2.36781e-09 0)
(9.8589e-10 -2.10362e-10 0)
(4.52182e-09 -2.92493e-09 0)
(7.14676e-09 3.04907e-09 0)
(-5.96451e-10 2.99648e-09 0)
(8.18503e-09 6.41414e-09 0)
(-3.83869e-08 -1.42915e-11 0)
(2.81896e-08 -1.52827e-08 0)
(2.16522e-08 3.35003e-08 0)
(-9.03575e-09 7.62024e-09 0)
(1.2566e-08 1.00563e-08 0)
(6.60001e-09 6.08816e-09 0)
(5.23113e-09 5.01808e-09 0)
(3.29475e-09 7.21614e-09 0)
(-2.1209e-09 5.59394e-09 0)
(-8.41047e-09 -4.00048e-09 0)
(-9.35717e-09 -6.12854e-09 0)
(9.74437e-10 3.95362e-09 0)
(1.12407e-09 3.01369e-09 0)
(1.2003e-09 -8.46241e-10 0)
(-1.02965e-09 1.84034e-10 0)
(-2.53129e-09 4.91273e-09 0)
(1.72199e-09 3.72138e-09 0)
(5.00803e-09 -9.52545e-10 0)
(7.1339e-09 -2.0712e-09 0)
(-3.21682e-09 -3.61374e-09 0)
(6.0003e-09 -2.52929e-09 0)
(4.5652e-09 2.83332e-08 0)
(-4.64911e-10 4.87072e-09 0)
(1.2754e-08 1.71257e-08 0)
(4.19045e-09 8.95865e-09 0)
(3.14639e-09 4.03701e-09 0)
(1.55367e-09 1.10051e-09 0)
(-6.01931e-09 -8.8205e-10 0)
(-1.1024e-08 -1.7182e-09 0)
(-9.33019e-09 -7.77523e-09 0)
(-3.47001e-09 -7.18614e-09 0)
(-2.12127e-10 4.09126e-09 0)
(4.23526e-10 4.53057e-09 0)
(2.86721e-09 -1.77553e-09 0)
(1.65683e-09 -3.56843e-09 0)
(-2.75946e-09 4.77105e-09 0)
(-3.08191e-09 1.1939e-08 0)
(2.13124e-09 4.87214e-09 0)
(4.45308e-09 -4.21301e-09 0)
(3.80551e-09 -9.96575e-09 0)
(3.7878e-09 -5.48755e-09 0)
(-6.04163e-09 -4.7538e-09 0)
(2.80213e-09 7.04166e-09 0)
(1.1535e-09 4.7463e-09 0)
(1.05958e-09 1.09741e-09 0)
(-1.03145e-09 -2.24848e-09 0)
(-9.98513e-09 -7.65967e-09 0)
(-1.53408e-08 -7.43876e-09 0)
(-1.17665e-08 -1.88771e-09 0)
(-2.65952e-09 -3.57841e-09 0)
(4.88389e-09 -4.58487e-09 0)
(-1.13716e-09 3.25925e-09 0)
(2.90181e-10 5.56865e-09 0)
(3.42504e-09 -3.05377e-10 0)
(3.7567e-09 -6.09516e-09 0)
(-3.11916e-10 -4.94816e-10 0)
(-4.28584e-09 1.16116e-08 0)
(-2.24453e-09 1.34633e-08 0)
(1.37086e-09 2.05581e-09 0)
(3.04859e-09 -4.72989e-09 0)
(-7.17063e-10 -8.60944e-09 0)
(-1.15623e-09 -5.73372e-09 0)
(-1.28758e-09 -1.15724e-09 0)
(-8.96513e-10 -1.70337e-09 0)
(-2.58913e-09 -3.92008e-09 0)
(-1.02469e-08 -9.10582e-09 0)
(-1.49946e-08 -1.07474e-08 0)
(-1.2565e-08 -4.23921e-09 0)
(-4.95413e-09 5.81492e-09 0)
(4.07446e-09 5.68004e-09 0)
(7.90226e-09 1.38645e-10 0)
(-1.59255e-09 2.49982e-09 0)
(8.59573e-10 5.02605e-09 0)
(3.07761e-09 1.54075e-09 0)
(3.99149e-09 -5.64703e-09 0)
(2.22628e-09 -5.89471e-09 0)
(-1.43837e-09 4.24262e-09 0)
(-2.90785e-09 1.26201e-08 0)
(-3.24147e-10 1.02697e-08 0)
(1.03252e-09 3.53679e-09 0)
(1.24957e-09 8.80731e-10 0)
(7.91423e-10 -2.89497e-10 0)
(-2.05965e-09 5.86238e-11 0)
(-2.27754e-09 9.50679e-10 0)
(-4.7749e-09 -2.00813e-09 0)
(-8.19513e-09 -4.91683e-09 0)
(-8.41365e-09 -2.34727e-09 0)
(-3.88388e-09 5.91193e-09 0)
(2.62973e-09 1.4174e-08 0)
(6.16155e-09 1.2661e-08 0)
(2.78158e-09 3.67335e-09 0)
(-1.81964e-09 1.80038e-09 0)
(1.13715e-09 3.04098e-09 0)
(2.41436e-09 2.24842e-09 0)
(2.90009e-09 -2.96071e-09 0)
(3.43665e-09 -6.13251e-09 0)
(1.64687e-09 -2.25268e-09 0)
(-8.07731e-10 5.70764e-09 0)
(-1.34381e-09 8.82889e-09 0)
(-5.45614e-10 7.45208e-09 0)
(-1.46085e-09 6.1574e-09 0)
(-1.66198e-09 5.00553e-09 0)
(1.05887e-09 4.79589e-09 0)
(2.09418e-09 5.73144e-09 0)
(8.51947e-10 5.0865e-09 0)
(-7.04957e-10 3.69336e-09 0)
(-1.90713e-10 6.03069e-09 0)
(2.17036e-09 1.16346e-08 0)
(3.87745e-09 1.50197e-08 0)
(6.96172e-10 1.16297e-08 0)
(-7.74877e-09 3.65595e-09 0)
(-2.4853e-09 6.78523e-10 0)
(1.02406e-09 9.02821e-10 0)
(2.19928e-09 1.16252e-09 0)
(2.32814e-09 -5.78618e-10 0)
(3.6218e-09 -2.27182e-09 0)
(3.40674e-09 -1.93406e-09 0)
(7.0088e-10 1.06346e-09 0)
(-1.31036e-09 3.01693e-09 0)
(-1.57618e-09 3.68733e-09 0)
(-1.71059e-09 3.39525e-09 0)
(-1.88592e-09 4.73899e-09 0)
(-1.70016e-10 4.19652e-09 0)
(3.2486e-09 3.94853e-09 0)
(3.80692e-09 3.77631e-09 0)
(3.24034e-09 3.12265e-09 0)
(3.74247e-09 3.9195e-09 0)
(2.82005e-09 5.60996e-09 0)
(4.41666e-10 6.02735e-09 0)
(-5.67986e-09 4.25341e-09 0)
(-1.51596e-08 1.35643e-09 0)
)
;

boundaryField
{
    sides
    {
        type            calculated;
        value           nonuniform List<vector> 
40
(
(-2.4853e-09 0 0)
(1.02406e-09 0 0)
(2.19928e-09 0 0)
(2.32814e-09 0 0)
(3.6218e-09 0 0)
(3.40674e-09 0 0)
(7.0088e-10 0 0)
(-1.31036e-09 0 0)
(-1.57618e-09 0 0)
(-1.71059e-09 0 0)
(-1.88592e-09 0 0)
(-1.70016e-10 0 0)
(3.2486e-09 0 0)
(3.80692e-09 0 0)
(3.24034e-09 0 0)
(3.74247e-09 0 0)
(2.82005e-09 0 0)
(4.41666e-10 0 0)
(-5.67986e-09 0 0)
(-1.51596e-08 0 0)
(6.60814e-11 0 0)
(1.36637e-09 0 0)
(1.27148e-09 0 0)
(5.73817e-10 0 0)
(1.44693e-09 0 0)
(1.23503e-09 0 0)
(-3.56494e-10 0 0)
(-5.85846e-10 0 0)
(-2.24443e-10 0 0)
(-1.89166e-09 0 0)
(7.75396e-10 0 0)
(7.9151e-10 0 0)
(5.02979e-09 0 0)
(4.96076e-09 0 0)
(8.64952e-10 0 0)
(-9.29887e-11 0 0)
(8.94808e-10 0 0)
(2.75785e-09 0 0)
(8.58919e-10 0 0)
(-8.23056e-09 0 0)
)
;
    }
    inlet
    {
        type            calculated;
        value           uniform (0 0 0);
    }
    outlet
    {
        type            calculated;
        value           nonuniform List<vector> 
20
(
(-8.23056e-09 -2.17502e-09 0)
(-3.02431e-09 -3.86949e-09 0)
(4.61243e-09 -3.50117e-09 0)
(5.01401e-09 -1.21763e-09 0)
(4.77223e-09 1.9691e-09 0)
(2.50405e-10 3.43645e-09 0)
(-4.01448e-09 3.98894e-09 0)
(-7.30568e-09 2.79852e-09 0)
(-1.13274e-08 5.24909e-10 0)
(4.47825e-10 -9.91635e-10 0)
(-1.78631e-09 -1.09931e-09 0)
(-4.04465e-09 -1.06716e-09 0)
(-8.726e-09 -3.01238e-09 0)
(-9.35717e-09 -6.12854e-09 0)
(-3.47001e-09 -7.18614e-09 0)
(4.88389e-09 -4.58487e-09 0)
(7.90226e-09 1.38645e-10 0)
(2.78158e-09 3.67335e-09 0)
(-7.74877e-09 3.65595e-09 0)
(-1.51596e-08 1.35643e-09 0)
)
;
    }
    frontAndBack
    {
        type            empty;
    }
}


// ************************************************************************* //
