/*--------------------------------*- C++ -*----------------------------------*\
  =========                 |
  \\      /  F ield         | OpenFOAM: The Open Source CFD Toolbox
   \\    /   O peration     | Website:  https://openfoam.org
    \\  /    A nd           | Version:  9
     \\/     M anipulation  |
\*---------------------------------------------------------------------------*/
FoamFile
{
    format      ascii;
    class       volVectorField;
    location    "62";
    object      hU;
}
// * * * * * * * * * * * * * * * * * * * * * * * * * * * * * * * * * * * * * //

dimensions      [0 2 -1 0 0 0 0];

internalField   nonuniform List<vector> 
400
(
(0.001 -2.41947e-08 0)
(0.00100004 -7.00277e-08 0)
(0.00100012 -1.12537e-07 0)
(0.00100024 -1.51893e-07 0)
(0.00100039 -1.87111e-07 0)
(0.00100058 -2.16728e-07 0)
(0.00100078 -2.36764e-07 0)
(0.00100099 -2.44818e-07 0)
(0.00100118 -2.36e-07 0)
(0.00100133 -2.11527e-07 0)
(0.0010014 -1.69577e-07 0)
(0.0010014 -1.29064e-07 0)
(0.00100129 -9.915e-08 0)
(0.00100111 -9.30669e-08 0)
(0.00100087 -9.98104e-08 0)
(0.00100065 -1.36238e-07 0)
(0.00100044 -1.57493e-07 0)
(0.00100034 -2.01942e-07 0)
(0.00100026 -1.89302e-07 0)
(0.00100034 -2.68649e-07 0)
(0.001 -2.65647e-08 0)
(0.00100005 -7.77017e-08 0)
(0.00100013 -1.26573e-07 0)
(0.00100026 -1.72628e-07 0)
(0.00100042 -2.12804e-07 0)
(0.00100062 -2.40602e-07 0)
(0.00100084 -2.45803e-07 0)
(0.00100108 -2.19245e-07 0)
(0.0010013 -1.53826e-07 0)
(0.00100147 -4.81689e-08 0)
(0.00100157 9.22366e-08 0)
(0.00100154 2.46302e-07 0)
(0.00100141 3.89702e-07 0)
(0.00100119 4.77215e-07 0)
(0.00100093 5.05111e-07 0)
(0.00100067 4.5067e-07 0)
(0.00100049 3.75971e-07 0)
(0.00100037 2.55469e-07 0)
(0.00100033 2.05327e-07 0)
(0.00100029 8.12267e-08 0)
(0.001 -5.24709e-08 0)
(0.00100004 -1.57574e-07 0)
(0.00100013 -2.64255e-07 0)
(0.00100026 -3.71462e-07 0)
(0.00100043 -4.73299e-07 0)
(0.00100065 -5.56672e-07 0)
(0.0010009 -6.03487e-07 0)
(0.00100117 -5.96012e-07 0)
(0.00100143 -5.1635e-07 0)
(0.00100164 -3.51938e-07 0)
(0.00100176 -1.10826e-07 0)
(0.00100176 1.61554e-07 0)
(0.0010016 4.02635e-07 0)
(0.00100131 5.21786e-07 0)
(0.00100095 5.00322e-07 0)
(0.00100062 3.52917e-07 0)
(0.00100037 2.00587e-07 0)
(0.00100027 4.42648e-08 0)
(0.00100022 -3.19222e-09 0)
(0.0010003 -1.16948e-07 0)
(0.001 -7.35504e-08 0)
(0.00100004 -2.20396e-07 0)
(0.00100013 -3.71306e-07 0)
(0.00100026 -5.27762e-07 0)
(0.00100045 -6.81067e-07 0)
(0.00100069 -8.11685e-07 0)
(0.001001 -8.88853e-07 0)
(0.00100134 -8.8343e-07 0)
(0.00100171 -7.53119e-07 0)
(0.00100203 -4.74395e-07 0)
(0.00100222 -2.45189e-08 0)
(0.00100219 4.92577e-07 0)
(0.00100193 9.38431e-07 0)
(0.00100147 1.14238e-06 0)
(0.00100097 1.05648e-06 0)
(0.00100059 7.42384e-07 0)
(0.00100041 4.2108e-07 0)
(0.00100036 1.68365e-07 0)
(0.00100041 1.02532e-07 0)
(0.00100035 9.0691e-10 0)
(0.001 -9.08935e-08 0)
(0.00100004 -2.75685e-07 0)
(0.00100012 -4.72916e-07 0)
(0.00100025 -6.91259e-07 0)
(0.00100044 -9.21531e-07 0)
(0.00100072 -1.14116e-06 0)
(0.0010011 -1.29898e-06 0)
(0.00100155 -1.33482e-06 0)
(0.00100207 -1.17252e-06 0)
(0.00100257 -7.77313e-07 0)
(0.0010029 -1.71101e-07 0)
(0.00100288 5.78066e-07 0)
(0.00100244 1.23292e-06 0)
(0.00100167 1.515e-06 0)
(0.00100086 1.37772e-06 0)
(0.00100031 9.64507e-07 0)
(0.00100014 5.78822e-07 0)
(0.00100022 3.13137e-07 0)
(0.00100037 2.63829e-07 0)
(0.00100044 1.69045e-07 0)
(0.001 -1.02989e-07 0)
(0.00100003 -3.15871e-07 0)
(0.00100009 -5.57971e-07 0)
(0.00100019 -8.42243e-07 0)
(0.00100038 -1.17383e-06 0)
(0.00100068 -1.52744e-06 0)
(0.00100115 -1.85976e-06 0)
(0.00100179 -2.05192e-06 0)
(0.00100254 -1.90843e-06 0)
(0.00100326 -1.19944e-06 0)
(0.00100377 8.588e-08 0)
(0.00100378 1.54342e-06 0)
(0.0010031 2.43629e-06 0)
(0.00100192 2.30911e-06 0)
(0.00100082 1.43305e-06 0)
(0.00100019 4.92482e-07 0)
(0.00100018 1.08645e-08 0)
(0.00100037 -8.65836e-08 0)
(0.00100064 6.16336e-08 0)
(0.00100055 5.10902e-08 0)
(0.001 -1.01953e-07 0)
(0.001 -3.3075e-07 0)
(0.00100002 -5.98112e-07 0)
(0.00100008 -9.60123e-07 0)
(0.00100021 -1.39384e-06 0)
(0.00100048 -1.94902e-06 0)
(0.001001 -2.49012e-06 0)
(0.00100188 -3.08222e-06 0)
(0.00100321 -3.23184e-06 0)
(0.00100473 -2.87809e-06 0)
(0.00100574 -6.7057e-07 0)
(0.00100535 2.55751e-06 0)
(0.0010035 4.82898e-06 0)
(0.00100113 4.73908e-06 0)
(0.000999612 3.03051e-06 0)
(0.000999376 1.26354e-06 0)
(0.00100001 4.28621e-07 0)
(0.00100057 3.25777e-07 0)
(0.00100093 5.63908e-07 0)
(0.00100066 5.35302e-07 0)
(0.000999996 -9.1689e-08 0)
(0.000999968 -2.86279e-07 0)
(0.000999907 -5.74074e-07 0)
(0.000999876 -9.55728e-07 0)
(0.000999879 -1.57907e-06 0)
(0.0010001 -2.34736e-06 0)
(0.0010005 -3.40321e-06 0)
(0.00100152 -4.12324e-06 0)
(0.00100309 -4.37121e-06 0)
(0.00100602 -2.55069e-06 0)
(0.00100911 7.49369e-07 0)
(0.00100915 4.26186e-06 0)
(0.0010055 4.71905e-06 0)
(0.00100074 2.78344e-06 0)
(0.000998156 7.35932e-07 0)
(0.00099828 -2.75662e-07 0)
(0.000999803 -2.8804e-07 0)
(0.00100088 -1.06578e-08 0)
(0.00100134 2.13302e-07 0)
(0.00100086 1.03867e-07 0)
(0.000999995 -4.83325e-08 0)
(0.000999914 -2.02011e-07 0)
(0.000999756 -3.84894e-07 0)
(0.000999532 -7.34845e-07 0)
(0.000999288 -1.33985e-06 0)
(0.000999211 -2.48306e-06 0)
(0.000999707 -4.68817e-06 0)
(0.00100139 -8.06803e-06 0)
(0.00100491 -1.32851e-05 0)
(0.00100958 -1.49145e-05 0)
(0.00101189 3.83682e-06 0)
(0.00100893 1.87246e-05 0)
(0.00100222 1.57815e-05 0)
(0.000997571 5.74197e-06 0)
(0.000996891 -3.16607e-07 0)
(0.000998467 -1.2652e-06 0)
(0.00100028 -9.75526e-08 0)
(0.00100101 6.32842e-07 0)
(0.00100108 6.52217e-07 0)
(0.00100055 2.44653e-07 0)
(0.000999804 -1.92293e-08 0)
(0.00100017 -6.59296e-08 0)
(0.000999215 -1.51194e-07 0)
(0.000999905 -2.49382e-07 0)
(0.000997522 -5.93264e-07 0)
(0.000998843 -1.13232e-06 0)
(0.000993346 -2.88456e-06 0)
(0.000997531 -5.59343e-06 0)
(0.000991669 -1.15434e-05 0)
(0.000915834 -1.27052e-05 0)
(0.000951465 2.75318e-07 0)
(0.00101023 1.46425e-05 0)
(0.000990953 1.30849e-05 0)
(0.000983978 5.14097e-06 0)
(0.000989592 1.9363e-07 0)
(0.000996287 -7.83323e-07 0)
(0.000999242 -1.14436e-07 0)
(0.000999417 2.46228e-07 0)
(0.000998652 1.73437e-07 0)
(0.00099851 -1.8455e-07 0)
(0.000999804 1.30251e-08 0)
(0.00100017 4.53372e-08 0)
(0.000999215 1.16309e-07 0)
(0.000999904 1.98712e-07 0)
(0.00099752 5.28481e-07 0)
(0.000998838 1.0508e-06 0)
(0.000993338 2.78558e-06 0)
(0.00099752 5.47265e-06 0)
(0.000991652 1.13972e-05 0)
(0.000915813 1.25483e-05 0)
(0.000951434 -4.6668e-07 0)
(0.0010102 -1.49038e-05 0)
(0.000990947 -1.34073e-05 0)
(0.00098397 -5.53462e-06 0)
(0.000989572 -6.48173e-07 0)
(0.000996249 2.4733e-07 0)
(0.000999201 -4.73235e-07 0)
(0.000999372 -1.00365e-06 0)
(0.000998639 -9.9048e-07 0)
(0.00099846 -8.89166e-07 0)
(0.000999995 4.20694e-08 0)
(0.000999914 1.82069e-07 0)
(0.000999755 3.5109e-07 0)
(0.000999531 6.85667e-07 0)
(0.000999287 1.27572e-06 0)
(0.000999211 2.40087e-06 0)
(0.000999702 4.58786e-06 0)
(0.00100139 7.94138e-06 0)
(0.0010049 1.31311e-05 0)
(0.00100958 1.4719e-05 0)
(0.00101189 -4.06868e-06 0)
(0.0010089 -1.9006e-05 0)
(0.00100214 -1.60949e-05 0)
(0.000997481 -6.12255e-06 0)
(0.000996819 -8.40853e-08 0)
(0.000998407 7.75925e-07 0)
(0.00100017 -4.26555e-07 0)
(0.00100086 -1.30552e-06 0)
(0.00100088 -1.38164e-06 0)
(0.00100037 -1.25167e-06 0)
(0.000999996 8.54817e-08 0)
(0.000999967 2.67273e-07 0)
(0.000999905 5.41327e-07 0)
(0.000999872 9.08158e-07 0)
(0.000999871 1.51312e-06 0)
(0.00100008 2.2609e-06 0)
(0.00100048 3.29205e-06 0)
(0.00100149 3.98878e-06 0)
(0.00100303 4.20992e-06 0)
(0.00100594 2.36518e-06 0)
(0.00100901 -9.82182e-07 0)
(0.00100907 -4.53865e-06 0)
(0.00100543 -5.01887e-06 0)
(0.00100067 -3.12967e-06 0)
(0.000998063 -1.13148e-06 0)
(0.00099814 -2.50637e-07 0)
(0.000999627 -3.21378e-07 0)
(0.00100064 -7.4199e-07 0)
(0.00100107 -9.70402e-07 0)
(0.00100056 -1.07527e-06 0)
(0.001 9.60121e-08 0)
(0.001 3.1236e-07 0)
(0.00100002 5.66984e-07 0)
(0.00100007 9.14764e-07 0)
(0.0010002 1.33352e-06 0)
(0.00100046 1.87093e-06 0)
(0.00100097 2.39715e-06 0)
(0.00100185 2.97203e-06 0)
(0.00100318 3.10944e-06 0)
(0.00100469 2.73223e-06 0)
(0.00100568 5.1376e-07 0)
(0.00100528 -2.74867e-06 0)
(0.00100339 -5.0764e-06 0)
(0.00100097 -5.07147e-06 0)
(0.000999414 -3.45055e-06 0)
(0.000999127 -1.79415e-06 0)
(0.000999749 -1.01976e-06 0)
(0.00100026 -1.05991e-06 0)
(0.00100062 -1.31098e-06 0)
(0.00100024 -1.5172e-06 0)
(0.001 9.75299e-08 0)
(0.00100003 2.99345e-07 0)
(0.00100008 5.30223e-07 0)
(0.00100019 8.02076e-07 0)
(0.00100037 1.12135e-06 0)
(0.00100066 1.46015e-06 0)
(0.00100112 1.77675e-06 0)
(0.00100174 1.94722e-06 0)
(0.00100248 1.77912e-06 0)
(0.00100317 1.03422e-06 0)
(0.00100366 -2.75704e-07 0)
(0.00100364 -1.77963e-06 0)
(0.00100293 -2.71035e-06 0)
(0.00100171 -2.63404e-06 0)
(0.00100058 -1.7812e-06 0)
(0.000999909 -8.96053e-07 0)
(0.000999862 -4.26316e-07 0)
(0.000999986 -4.48713e-07 0)
(0.00100022 -6.20166e-07 0)
(0.00100001 -8.50184e-07 0)
(0.001 8.58355e-08 0)
(0.00100004 2.61339e-07 0)
(0.00100011 4.49126e-07 0)
(0.00100024 6.57398e-07 0)
(0.00100043 8.76963e-07 0)
(0.0010007 1.08542e-06 0)
(0.00100106 1.22912e-06 0)
(0.0010015 1.24947e-06 0)
(0.001002 1.07005e-06 0)
(0.00100248 6.55693e-07 0)
(0.0010028 1.85158e-08 0)
(0.00100275 -7.69327e-07 0)
(0.00100228 -1.45135e-06 0)
(0.00100147 -1.77767e-06 0)
(0.00100063 -1.67102e-06 0)
(0.00100001 -1.34916e-06 0)
(0.000999798 -1.02835e-06 0)
(0.000999771 -9.37241e-07 0)
(0.000999891 -9.48384e-07 0)
(0.000999774 -1.10967e-06 0)
(0.001 6.90098e-08 0)
(0.00100004 2.07501e-07 0)
(0.00100012 3.50009e-07 0)
(0.00100025 4.97648e-07 0)
(0.00100043 6.42658e-07 0)
(0.00100066 7.65975e-07 0)
(0.00100096 8.36975e-07 0)
(0.00100129 8.23363e-07 0)
(0.00100163 6.88801e-07 0)
(0.00100191 4.05761e-07 0)
(0.00100206 -4.54737e-08 0)
(0.001002 -5.7514e-07 0)
(0.00100171 -1.03707e-06 0)
(0.0010012 -1.28445e-06 0)
(0.00100065 -1.23204e-06 0)
(0.00100017 -9.94538e-07 0)
(0.00099992 -7.00187e-07 0)
(0.000999747 -5.56233e-07 0)
(0.000999759 -4.89265e-07 0)
(0.000999567 -5.99069e-07 0)
(0.001 5.00942e-08 0)
(0.00100004 1.48069e-07 0)
(0.00100012 2.43913e-07 0)
(0.00100025 3.36162e-07 0)
(0.00100041 4.20091e-07 0)
(0.00100062 4.82458e-07 0)
(0.00100086 5.07259e-07 0)
(0.00100112 4.71198e-07 0)
(0.00100137 3.59955e-07 0)
(0.00100157 1.56536e-07 0)
(0.00100167 -1.14349e-07 0)
(0.00100161 -4.19433e-07 0)
(0.0010014 -6.81715e-07 0)
(0.00100104 -8.43488e-07 0)
(0.00100064 -8.50658e-07 0)
(0.00100023 -7.69533e-07 0)
(0.000999956 -6.35428e-07 0)
(0.000999697 -5.9554e-07 0)
(0.000999635 -5.62571e-07 0)
(0.000999393 -6.85157e-07 0)
(0.001 3.43547e-08 0)
(0.00100004 1.03599e-07 0)
(0.00100011 1.7299e-07 0)
(0.00100023 2.40418e-07 0)
(0.00100038 3.01172e-07 0)
(0.00100056 3.48501e-07 0)
(0.00100077 3.73594e-07 0)
(0.00100097 3.67003e-07 0)
(0.00100116 3.18976e-07 0)
(0.0010013 2.24859e-07 0)
(0.00100136 8.78312e-08 0)
(0.00100132 -6.88625e-08 0)
(0.00100115 -2.05237e-07 0)
(0.00100087 -2.96754e-07 0)
(0.00100054 -3.11357e-07 0)
(0.00100017 -2.79997e-07 0)
(0.000999907 -2.0051e-07 0)
(0.00099962 -1.6798e-07 0)
(0.000999522 -1.19561e-07 0)
(0.000999253 -1.98747e-07 0)
(0.001 -4.16194e-09 0)
(0.00100004 -1.01983e-08 0)
(0.00100012 -1.33021e-08 0)
(0.00100024 -1.51022e-08 0)
(0.00100038 -1.74963e-08 0)
(0.00100056 -2.34693e-08 0)
(0.00100075 -3.45183e-08 0)
(0.00100094 -5.41143e-08 0)
(0.00100112 -8.21077e-08 0)
(0.00100123 -1.21994e-07 0)
(0.00100128 -1.69193e-07 0)
(0.00100122 -2.30775e-07 0)
(0.00100107 -2.9019e-07 0)
(0.00100081 -3.40871e-07 0)
(0.00100054 -3.59033e-07 0)
(0.00100019 -3.67149e-07 0)
(0.000999951 -3.41595e-07 0)
(0.000999615 -3.52705e-07 0)
(0.000999527 -3.28386e-07 0)
(0.000999134 -4.10768e-07 0)
)
;

boundaryField
{
    sides
    {
        type            slip;
    }
    inlet
    {
        type            fixedValue;
        value           uniform (0.001 0 0);
    }
    outlet
    {
        type            zeroGradient;
    }
    frontAndBack
    {
        type            empty;
    }
}


// ************************************************************************* //
