/*--------------------------------*- C++ -*----------------------------------*\
  =========                 |
  \\      /  F ield         | OpenFOAM: The Open Source CFD Toolbox
   \\    /   O peration     | Website:  https://openfoam.org
    \\  /    A nd           | Version:  9
     \\/     M anipulation  |
\*---------------------------------------------------------------------------*/
FoamFile
{
    format      ascii;
    class       volVectorField;
    location    "62";
    object      hU_0;
}
// * * * * * * * * * * * * * * * * * * * * * * * * * * * * * * * * * * * * * //

dimensions      [0 2 -1 0 0 0 0];

internalField   nonuniform List<vector> 
400
(
(0.001 -2.41913e-08 0)
(0.00100004 -6.98578e-08 0)
(0.00100012 -1.12459e-07 0)
(0.00100024 -1.5206e-07 0)
(0.00100039 -1.87279e-07 0)
(0.00100058 -2.16563e-07 0)
(0.00100078 -2.36334e-07 0)
(0.00100099 -2.44525e-07 0)
(0.00100118 -2.35714e-07 0)
(0.00100133 -2.11437e-07 0)
(0.0010014 -1.69473e-07 0)
(0.0010014 -1.29001e-07 0)
(0.00100129 -9.92142e-08 0)
(0.00100111 -9.30447e-08 0)
(0.00100087 -9.99715e-08 0)
(0.00100065 -1.36489e-07 0)
(0.00100044 -1.57573e-07 0)
(0.00100034 -2.01756e-07 0)
(0.00100026 -1.88953e-07 0)
(0.00100034 -2.68443e-07 0)
(0.001 -2.6463e-08 0)
(0.00100005 -7.72496e-08 0)
(0.00100013 -1.26432e-07 0)
(0.00100026 -1.7305e-07 0)
(0.00100042 -2.13092e-07 0)
(0.00100062 -2.40046e-07 0)
(0.00100084 -2.44913e-07 0)
(0.00100108 -2.1855e-07 0)
(0.0010013 -1.53405e-07 0)
(0.00100147 -4.80274e-08 0)
(0.00100157 9.19427e-08 0)
(0.00100154 2.46378e-07 0)
(0.00100141 3.89664e-07 0)
(0.00100119 4.77201e-07 0)
(0.00100093 5.04875e-07 0)
(0.00100067 4.50172e-07 0)
(0.00100049 3.75853e-07 0)
(0.00100037 2.56175e-07 0)
(0.00100033 2.06277e-07 0)
(0.00100029 8.15891e-08 0)
(0.001 -5.21236e-08 0)
(0.00100004 -1.56982e-07 0)
(0.00100013 -2.64237e-07 0)
(0.00100026 -3.71983e-07 0)
(0.00100043 -4.73384e-07 0)
(0.00100065 -5.55989e-07 0)
(0.0010009 -6.02814e-07 0)
(0.00100117 -5.95188e-07 0)
(0.00100143 -5.16277e-07 0)
(0.00100164 -3.51923e-07 0)
(0.00100176 -1.11131e-07 0)
(0.00100176 1.61484e-07 0)
(0.0010016 4.03082e-07 0)
(0.00100131 5.21806e-07 0)
(0.00100095 5.00192e-07 0)
(0.00100062 3.52697e-07 0)
(0.00100037 2.00602e-07 0)
(0.00100027 4.48999e-08 0)
(0.00100023 -2.42804e-09 0)
(0.0010003 -1.16687e-07 0)
(0.001 -7.29707e-08 0)
(0.00100004 -2.19818e-07 0)
(0.00100013 -3.71429e-07 0)
(0.00100026 -5.28177e-07 0)
(0.00100045 -6.80973e-07 0)
(0.00100069 -8.11408e-07 0)
(0.001001 -8.8821e-07 0)
(0.00100134 -8.8289e-07 0)
(0.00100171 -7.52966e-07 0)
(0.00100203 -4.74974e-07 0)
(0.00100222 -2.42823e-08 0)
(0.00100219 4.92852e-07 0)
(0.00100193 9.38832e-07 0)
(0.00100147 1.14265e-06 0)
(0.00100097 1.05629e-06 0)
(0.00100059 7.42255e-07 0)
(0.00100041 4.21309e-07 0)
(0.00100036 1.68939e-07 0)
(0.00100041 1.02877e-07 0)
(0.00100035 9.07188e-10 0)
(0.001 -9.02886e-08 0)
(0.00100004 -2.75198e-07 0)
(0.00100012 -4.73028e-07 0)
(0.00100025 -6.91475e-07 0)
(0.00100044 -9.21572e-07 0)
(0.00100072 -1.14099e-06 0)
(0.0010011 -1.29829e-06 0)
(0.00100155 -1.33446e-06 0)
(0.00100207 -1.1729e-06 0)
(0.00100257 -7.7732e-07 0)
(0.0010029 -1.718e-07 0)
(0.00100288 5.79162e-07 0)
(0.00100244 1.23344e-06 0)
(0.00100167 1.51504e-06 0)
(0.00100086 1.37755e-06 0)
(0.00100031 9.64327e-07 0)
(0.00100014 5.79064e-07 0)
(0.00100022 3.13725e-07 0)
(0.00100037 2.63929e-07 0)
(0.00100044 1.68786e-07 0)
(0.001 -1.02601e-07 0)
(0.00100003 -3.15517e-07 0)
(0.00100009 -5.57946e-07 0)
(0.00100019 -8.42349e-07 0)
(0.00100038 -1.17391e-06 0)
(0.00100068 -1.52713e-06 0)
(0.00100115 -1.85918e-06 0)
(0.00100179 -2.05182e-06 0)
(0.00100254 -1.90906e-06 0)
(0.00100326 -1.19925e-06 0)
(0.00100377 8.57131e-08 0)
(0.00100378 1.54267e-06 0)
(0.0010031 2.4376e-06 0)
(0.00100192 2.30936e-06 0)
(0.00100082 1.43277e-06 0)
(0.00100019 4.92211e-07 0)
(0.00100018 1.08941e-08 0)
(0.00100037 -8.63148e-08 0)
(0.00100064 6.14556e-08 0)
(0.00100055 5.07427e-08 0)
(0.001 -1.01893e-07 0)
(0.001 -3.30563e-07 0)
(0.00100002 -5.97934e-07 0)
(0.00100008 -9.60109e-07 0)
(0.00100021 -1.39386e-06 0)
(0.00100048 -1.94869e-06 0)
(0.001001 -2.48974e-06 0)
(0.00100188 -3.08215e-06 0)
(0.00100321 -3.23134e-06 0)
(0.00100473 -2.88084e-06 0)
(0.00100573 -6.63191e-07 0)
(0.00100535 2.55578e-06 0)
(0.0010035 4.82895e-06 0)
(0.00100113 4.73991e-06 0)
(0.000999612 3.03061e-06 0)
(0.000999376 1.26326e-06 0)
(0.00100001 4.28548e-07 0)
(0.00100057 3.25987e-07 0)
(0.00100093 5.63753e-07 0)
(0.00100066 5.34955e-07 0)
(0.000999996 -9.18959e-08 0)
(0.000999967 -2.86229e-07 0)
(0.000999907 -5.73784e-07 0)
(0.000999877 -9.55642e-07 0)
(0.000999879 -1.57916e-06 0)
(0.00100009 -2.34715e-06 0)
(0.0010005 -3.40281e-06 0)
(0.00100153 -4.12268e-06 0)
(0.00100308 -4.37101e-06 0)
(0.00100602 -2.54836e-06 0)
(0.00100911 7.43592e-07 0)
(0.00100914 4.266e-06 0)
(0.00100551 4.72032e-06 0)
(0.00100074 2.78381e-06 0)
(0.000998156 7.36306e-07 0)
(0.000998279 -2.75674e-07 0)
(0.000999802 -2.8804e-07 0)
(0.00100088 -1.03837e-08 0)
(0.00100134 2.13365e-07 0)
(0.00100086 1.03664e-07 0)
(0.000999995 -4.86227e-08 0)
(0.000999914 -2.02019e-07 0)
(0.000999756 -3.84572e-07 0)
(0.000999532 -7.3483e-07 0)
(0.000999288 -1.34015e-06 0)
(0.00099921 -2.48298e-06 0)
(0.000999707 -4.6876e-06 0)
(0.00100139 -8.06724e-06 0)
(0.00100492 -1.32847e-05 0)
(0.00100958 -1.49125e-05 0)
(0.00101188 3.83102e-06 0)
(0.00100895 1.87284e-05 0)
(0.00100222 1.57821e-05 0)
(0.00099757 5.74188e-06 0)
(0.000996891 -3.16804e-07 0)
(0.000998466 -1.26524e-06 0)
(0.00100028 -9.70958e-08 0)
(0.00100101 6.33565e-07 0)
(0.00100108 6.52626e-07 0)
(0.00100055 2.44803e-07 0)
(0.000999804 -1.9401e-08 0)
(0.00100017 -6.59572e-08 0)
(0.000999215 -1.51e-07 0)
(0.000999905 -2.49439e-07 0)
(0.000997522 -5.93716e-07 0)
(0.000998843 -1.13232e-06 0)
(0.000993347 -2.8841e-06 0)
(0.000997531 -5.59301e-06 0)
(0.000991669 -1.15428e-05 0)
(0.000915832 -1.27074e-05 0)
(0.000951473 2.80413e-07 0)
(0.00101023 1.46396e-05 0)
(0.000990952 1.30837e-05 0)
(0.00098398 5.14074e-06 0)
(0.000989592 1.9307e-07 0)
(0.000996287 -7.83561e-07 0)
(0.000999242 -1.13945e-07 0)
(0.000999417 2.46932e-07 0)
(0.000998652 1.73916e-07 0)
(0.00099851 -1.84294e-07 0)
(0.000999804 1.30458e-08 0)
(0.00100017 4.52286e-08 0)
(0.000999215 1.1624e-07 0)
(0.000999904 1.98676e-07 0)
(0.000997519 5.28307e-07 0)
(0.000998838 1.05057e-06 0)
(0.000993338 2.78554e-06 0)
(0.00099752 5.47242e-06 0)
(0.000991652 1.13969e-05 0)
(0.000915813 1.25479e-05 0)
(0.00095143 -4.67836e-07 0)
(0.0010102 -1.49075e-05 0)
(0.000990949 -1.34071e-05 0)
(0.00098397 -5.53487e-06 0)
(0.000989572 -6.48392e-07 0)
(0.000996249 2.47292e-07 0)
(0.000999201 -4.73106e-07 0)
(0.000999372 -1.00359e-06 0)
(0.000998638 -9.90376e-07 0)
(0.00099846 -8.89094e-07 0)
(0.000999995 4.21822e-08 0)
(0.000999914 1.81847e-07 0)
(0.000999755 3.5071e-07 0)
(0.000999531 6.85686e-07 0)
(0.000999286 1.27599e-06 0)
(0.00099921 2.40064e-06 0)
(0.000999702 4.58706e-06 0)
(0.00100139 7.94062e-06 0)
(0.0010049 1.31307e-05 0)
(0.00100958 1.47202e-05 0)
(0.0010119 -4.06821e-06 0)
(0.0010089 -1.9003e-05 0)
(0.00100214 -1.60949e-05 0)
(0.000997481 -6.12259e-06 0)
(0.00099682 -8.3794e-08 0)
(0.000998407 7.75997e-07 0)
(0.00100017 -4.26911e-07 0)
(0.00100085 -1.3062e-06 0)
(0.00100088 -1.38205e-06 0)
(0.00100037 -1.25166e-06 0)
(0.000999996 8.55015e-08 0)
(0.000999967 2.66979e-07 0)
(0.000999906 5.40802e-07 0)
(0.000999872 9.08087e-07 0)
(0.000999871 1.51366e-06 0)
(0.00100008 2.26089e-06 0)
(0.00100048 3.29118e-06 0)
(0.00100149 3.98776e-06 0)
(0.00100303 4.20978e-06 0)
(0.00100594 2.36564e-06 0)
(0.00100901 -9.79456e-07 0)
(0.00100907 -4.53684e-06 0)
(0.00100543 -5.01905e-06 0)
(0.00100067 -3.12969e-06 0)
(0.000998063 -1.13149e-06 0)
(0.000998139 -2.50902e-07 0)
(0.000999627 -3.22267e-07 0)
(0.00100064 -7.43114e-07 0)
(0.00100107 -9.70874e-07 0)
(0.00100056 -1.07512e-06 0)
(0.001 9.58324e-08 0)
(0.001 3.12047e-07 0)
(0.00100002 5.66592e-07 0)
(0.00100007 9.14525e-07 0)
(0.0010002 1.33376e-06 0)
(0.00100046 1.87118e-06 0)
(0.00100097 2.39671e-06 0)
(0.00100185 2.97154e-06 0)
(0.00100318 3.10906e-06 0)
(0.00100469 2.73135e-06 0)
(0.00100569 5.13504e-07 0)
(0.00100528 -2.75164e-06 0)
(0.00100339 -5.07733e-06 0)
(0.00100097 -5.07228e-06 0)
(0.000999413 -3.45108e-06 0)
(0.000999126 -1.79463e-06 0)
(0.000999748 -1.02055e-06 0)
(0.00100026 -1.0607e-06 0)
(0.00100062 -1.31089e-06 0)
(0.00100024 -1.51672e-06 0)
(0.001 9.71933e-08 0)
(0.00100003 2.99025e-07 0)
(0.00100008 5.30099e-07 0)
(0.00100019 8.01849e-07 0)
(0.00100037 1.12096e-06 0)
(0.00100066 1.46003e-06 0)
(0.00100112 1.77673e-06 0)
(0.00100174 1.94729e-06 0)
(0.00100248 1.77907e-06 0)
(0.00100317 1.03463e-06 0)
(0.00100366 -2.78272e-07 0)
(0.00100364 -1.78067e-06 0)
(0.00100293 -2.71181e-06 0)
(0.00100171 -2.63518e-06 0)
(0.00100058 -1.78181e-06 0)
(0.000999908 -8.96396e-07 0)
(0.000999863 -4.26504e-07 0)
(0.000999987 -4.48778e-07 0)
(0.00100022 -6.19515e-07 0)
(0.00100001 -8.49484e-07 0)
(0.001 8.54378e-08 0)
(0.00100004 2.60934e-07 0)
(0.00100011 4.49212e-07 0)
(0.00100024 6.57495e-07 0)
(0.00100043 8.76366e-07 0)
(0.0010007 1.08448e-06 0)
(0.00100106 1.22887e-06 0)
(0.0010015 1.24977e-06 0)
(0.001002 1.07085e-06 0)
(0.00100248 6.56005e-07 0)
(0.0010028 1.85253e-08 0)
(0.00100275 -7.70055e-07 0)
(0.00100228 -1.45228e-06 0)
(0.00100146 -1.77823e-06 0)
(0.00100063 -1.67123e-06 0)
(0.00100001 -1.34879e-06 0)
(0.0009998 -1.02782e-06 0)
(0.000999772 -9.37041e-07 0)
(0.000999892 -9.47872e-07 0)
(0.000999774 -1.1091e-06 0)
(0.001 6.86233e-08 0)
(0.00100004 2.06976e-07 0)
(0.00100012 3.50084e-07 0)
(0.00100025 4.98143e-07 0)
(0.00100043 6.42503e-07 0)
(0.00100067 7.64808e-07 0)
(0.00100096 8.3588e-07 0)
(0.00100129 8.23234e-07 0)
(0.00100163 6.89252e-07 0)
(0.00100191 4.06518e-07 0)
(0.00100206 -4.48262e-08 0)
(0.001002 -5.75178e-07 0)
(0.00100171 -1.03718e-06 0)
(0.0010012 -1.28439e-06 0)
(0.00100065 -1.23146e-06 0)
(0.00100017 -9.93578e-07 0)
(0.000999921 -6.99628e-07 0)
(0.000999748 -5.56551e-07 0)
(0.000999759 -4.89575e-07 0)
(0.000999566 -5.98961e-07 0)
(0.001 4.97569e-08 0)
(0.00100004 1.47511e-07 0)
(0.00100012 2.43833e-07 0)
(0.00100025 3.3682e-07 0)
(0.00100041 4.20604e-07 0)
(0.00100062 4.81856e-07 0)
(0.00100086 5.05908e-07 0)
(0.00100112 4.70194e-07 0)
(0.00100137 3.59602e-07 0)
(0.00100157 1.56649e-07 0)
(0.00100167 -1.14e-07 0)
(0.00100161 -4.19253e-07 0)
(0.0010014 -6.81719e-07 0)
(0.00100104 -8.43217e-07 0)
(0.00100064 -8.49965e-07 0)
(0.00100023 -7.68957e-07 0)
(0.000999957 -6.35632e-07 0)
(0.000999697 -5.96689e-07 0)
(0.000999634 -5.63738e-07 0)
(0.000999392 -6.85511e-07 0)
(0.001 3.41023e-08 0)
(0.00100004 1.0318e-07 0)
(0.00100011 1.728e-07 0)
(0.00100023 2.40886e-07 0)
(0.00100038 3.01882e-07 0)
(0.00100056 3.48572e-07 0)
(0.00100077 3.72756e-07 0)
(0.00100097 3.65902e-07 0)
(0.00100116 3.18145e-07 0)
(0.0010013 2.2433e-07 0)
(0.00100136 8.75002e-08 0)
(0.00100132 -6.91352e-08 0)
(0.00100115 -2.0559e-07 0)
(0.00100087 -2.96919e-07 0)
(0.00100054 -3.11301e-07 0)
(0.00100017 -2.80182e-07 0)
(0.000999907 -2.0136e-07 0)
(0.00099962 -1.69407e-07 0)
(0.000999522 -1.20848e-07 0)
(0.000999254 -1.99201e-07 0)
(0.001 -4.26058e-09 0)
(0.00100004 -1.03473e-08 0)
(0.00100012 -1.34109e-08 0)
(0.00100024 -1.49621e-08 0)
(0.00100038 -1.7196e-08 0)
(0.00100056 -2.33213e-08 0)
(0.00100075 -3.47544e-08 0)
(0.00100094 -5.4552e-08 0)
(0.00100112 -8.25478e-08 0)
(0.00100123 -1.22343e-07 0)
(0.00100128 -1.69619e-07 0)
(0.00100122 -2.3114e-07 0)
(0.00100107 -2.90494e-07 0)
(0.00100081 -3.41083e-07 0)
(0.00100054 -3.59162e-07 0)
(0.00100019 -3.6738e-07 0)
(0.00099995 -3.42065e-07 0)
(0.000999615 -3.53331e-07 0)
(0.000999527 -3.28913e-07 0)
(0.000999136 -4.1096e-07 0)
)
;

boundaryField
{
    sides
    {
        type            slip;
    }
    inlet
    {
        type            fixedValue;
        value           uniform (0.001 0 0);
    }
    outlet
    {
        type            zeroGradient;
    }
    frontAndBack
    {
        type            empty;
    }
}


// ************************************************************************* //
