/*--------------------------------*- C++ -*----------------------------------*\
  =========                 |
  \\      /  F ield         | OpenFOAM: The Open Source CFD Toolbox
   \\    /   O peration     | Website:  https://openfoam.org
    \\  /    A nd           | Version:  9
     \\/     M anipulation  |
\*---------------------------------------------------------------------------*/
FoamFile
{
    format      ascii;
    class       surfaceScalarField;
    location    "62";
    object      phi_0;
}
// * * * * * * * * * * * * * * * * * * * * * * * * * * * * * * * * * * * * * //

dimensions      [0 4 -1 0 0 0 0];

internalField   nonuniform List<scalar> 
760
(
5.0001e-06
-9.24277e-11
5.0004e-06
-3.00936e-10
5.00091e-06
-5.06835e-10
5.00161e-06
-7.02554e-10
5.00249e-06
-8.73716e-10
5.0035e-06
-1.00116e-09
5.00456e-06
-1.05508e-09
5.00557e-06
-1.00804e-09
5.00641e-06
-8.28726e-10
5.00693e-06
-5.26625e-10
5.00706e-06
-1.31325e-10
5.00666e-06
3.91107e-10
5.00581e-06
8.51752e-10
5.00471e-06
1.10286e-09
5.00354e-06
1.16858e-09
5.00259e-06
9.43438e-10
5.00189e-06
7.03296e-10
5.00164e-06
2.38814e-10
5.00153e-06
1.08432e-10
-3.91188e-10
5.00012e-06
-2.11961e-10
5.00045e-06
-6.24133e-10
5.00098e-06
-1.0346e-09
5.00172e-06
-1.43726e-09
5.00266e-06
-1.80488e-09
5.00375e-06
-2.09316e-09
5.00494e-06
-2.24225e-09
5.00611e-06
-2.18137e-09
5.00713e-06
-1.84743e-09
5.00778e-06
-1.17054e-09
5.00776e-06
-1.06136e-10
5.00727e-06
8.80028e-10
5.00628e-06
1.84429e-09
5.00497e-06
2.41717e-09
5.0037e-06
2.44387e-09
5.0028e-06
1.84888e-09
5.00228e-06
1.22993e-09
5.00194e-06
5.71492e-10
5.00168e-06
3.68382e-10
-1.45689e-10
5.00011e-06
-3.19392e-10
5.00043e-06
-9.41028e-10
5.00096e-06
-1.56142e-09
5.00172e-06
-2.19542e-09
5.00273e-06
-2.8053e-09
5.00395e-06
-3.32077e-09
5.00533e-06
-3.61958e-09
5.00673e-06
-3.5788e-09
5.00793e-06
-3.04857e-09
5.00873e-06
-1.96268e-09
5.00895e-06
-3.13089e-10
5.00827e-06
1.56144e-09
5.00688e-06
3.23199e-09
5.00517e-06
4.14207e-09
5.00352e-06
4.09466e-09
5.00233e-06
3.04849e-09
5.0017e-06
1.87317e-09
5.00151e-06
7.60298e-10
5.00147e-06
4.00435e-10
-2.20445e-10
5.0001e-06
-4.18386e-10
5.00041e-06
-1.24856e-09
5.00094e-06
-2.09371e-09
5.00175e-06
-2.99595e-09
5.00286e-06
-3.91501e-09
5.00429e-06
-4.7564e-09
5.00602e-06
-5.34531e-09
5.00795e-06
-5.51448e-09
5.00984e-06
-4.93541e-09
5.01108e-06
-3.19374e-09
5.0112e-06
-4.40676e-10
5.01001e-06
2.77408e-09
5.00766e-06
5.57677e-09
5.00516e-06
6.65259e-09
5.00349e-06
5.77124e-09
5.00272e-06
3.82469e-09
5.00251e-06
2.09778e-09
5.00234e-06
9.31179e-10
5.00203e-06
7.14055e-10
3.42161e-10
5.00008e-06
-4.9939e-10
5.00034e-06
-1.50632e-09
5.00084e-06
-2.5857e-09
5.00164e-06
-3.7985e-09
5.00286e-06
-5.13851e-09
5.00458e-06
-6.47305e-09
5.0068e-06
-7.57345e-09
5.00942e-06
-8.13319e-09
5.01239e-06
-7.90938e-09
5.01479e-06
-5.57998e-09
5.01484e-06
-4.75033e-10
5.01286e-06
4.74939e-09
5.00869e-06
9.76371e-09
5.00461e-06
1.0732e-08
5.00226e-06
8.13021e-09
5.00176e-06
4.32283e-09
5.00207e-06
1.79424e-09
5.00229e-06
7.22958e-10
5.00205e-06
9.62214e-10
6.32613e-10
5.00004e-06
-5.40808e-10
5.0002e-06
-1.66217e-09
5.00054e-06
-2.92629e-09
5.00121e-06
-4.47202e-09
5.00241e-06
-6.33839e-09
5.00452e-06
-8.58803e-09
5.0076e-06
-1.06526e-08
5.01167e-06
-1.22104e-08
5.01554e-06
-1.17552e-08
5.019e-06
-9.07884e-09
5.02022e-06
-1.65115e-09
5.01603e-06
8.93339e-09
5.00952e-06
1.62674e-08
5.00423e-06
1.60302e-08
5.00219e-06
1.01742e-08
5.00252e-06
4.00011e-09
5.00329e-06
1.02179e-09
5.00342e-06
5.98697e-10
5.00283e-06
1.55884e-09
1.42894e-09
4.99998e-06
-5.20998e-10
4.99994e-06
-1.6212e-09
5.00003e-06
-3.02081e-09
5.00036e-06
-4.80441e-09
5.00122e-06
-7.19999e-09
5.00292e-06
-1.02881e-08
5.0068e-06
-1.4537e-08
5.01393e-06
-1.93243e-08
5.02375e-06
-2.15992e-08
5.03095e-06
-1.62437e-08
5.02871e-06
5.03029e-10
5.01676e-06
2.09658e-08
5.0042e-06
2.8818e-08
4.99875e-06
2.14687e-08
5.0006e-06
8.3239e-09
5.00287e-06
1.72647e-09
5.00373e-06
1.52708e-10
5.00368e-06
6.52812e-10
5.00308e-06
2.1749e-09
1.68782e-09
4.99986e-06
-3.86808e-10
4.99955e-06
-1.30958e-09
4.99913e-06
-2.59875e-09
4.99885e-06
-4.53929e-09
4.99933e-06
-7.67523e-09
5.00036e-06
-1.1315e-08
5.00365e-06
-1.78235e-08
5.00983e-06
-2.55084e-08
5.02488e-06
-3.66537e-08
5.05624e-06
-4.74659e-08
5.04999e-06
5.63168e-09
5.02317e-06
4.7756e-08
4.9982e-06
5.38213e-08
4.99352e-06
2.61473e-08
4.99949e-06
2.34642e-09
5.0041e-06
-2.88376e-09
5.00492e-06
-6.78706e-10
5.00374e-06
1.83348e-09
5.00354e-06
2.38881e-09
9.75209e-10
4.99977e-06
-1.55471e-10
4.99915e-06
-6.98642e-10
4.99792e-06
-1.37342e-09
4.99611e-06
-2.73425e-09
4.99402e-06
-5.58471e-09
4.99374e-06
-1.10331e-08
4.99945e-06
-2.35357e-08
5.01714e-06
-4.3194e-08
5.05573e-06
-7.52384e-08
5.06673e-06
-5.86067e-08
5.04979e-06
2.36806e-08
4.99653e-06
1.01055e-07
4.98932e-06
6.10023e-08
4.99593e-06
1.9535e-08
5.00022e-06
-1.94374e-09
5.00296e-06
-5.62811e-09
5.00254e-06
-2.90575e-10
5.00186e-06
2.51043e-09
5.00257e-06
1.68013e-09
8.75221e-11
4.99986e-06
-1.53339e-11
4.9992e-06
-5.16101e-11
4.99791e-06
-8.86881e-11
4.99531e-06
-1.3317e-10
4.9899e-06
-1.74774e-10
4.97909e-06
-2.21849e-10
4.95582e-06
-2.72261e-10
4.91296e-06
-3.39486e-10
4.83815e-06
-4.07492e-10
4.77998e-06
-4.61657e-10
4.80433e-06
-5.70113e-10
4.90603e-06
-7.3502e-10
4.9678e-06
-7.39176e-10
4.98825e-06
-8.97116e-10
4.98748e-06
-1.16555e-09
4.98329e-06
-1.43565e-09
4.98458e-06
-1.56602e-09
4.98892e-06
-1.83517e-09
4.9925e-06
-1.90172e-09
-2.58565e-09
4.99986e-06
1.24225e-10
4.9992e-06
5.93952e-10
4.9979e-06
1.20149e-09
4.9953e-06
2.47535e-09
4.98988e-06
5.24658e-09
4.97906e-06
1.05972e-08
4.95577e-06
2.30055e-08
4.9129e-06
4.25344e-08
4.83804e-06
7.44529e-08
4.77976e-06
5.78386e-08
4.80424e-06
-2.51256e-08
4.906e-06
-1.02462e-07
4.96778e-06
-6.25113e-08
4.98809e-06
-2.11975e-08
4.98739e-06
-4.52555e-10
4.98297e-06
2.99482e-09
4.98446e-06
-3.05476e-09
4.98891e-06
-6.29307e-09
4.99237e-06
-5.37044e-09
-4.98796e-09
4.99977e-06
3.538e-10
4.99915e-06
1.20845e-09
4.99791e-06
2.42594e-09
4.9961e-06
4.28801e-09
4.99402e-06
7.33221e-09
4.99373e-06
1.08823e-08
4.99943e-06
1.73042e-08
5.01708e-06
2.48866e-08
5.05562e-06
3.59045e-08
5.06714e-06
4.63951e-08
5.04946e-06
-6.79905e-09
4.99611e-06
-4.90856e-08
4.98886e-06
-5.52553e-08
4.99571e-06
-2.80456e-08
5.00013e-06
-4.86417e-09
5.00235e-06
7.92072e-10
5.00168e-06
-2.38863e-09
5.00093e-06
-5.54255e-09
5.00171e-06
-6.1557e-09
-5.95793e-09
4.99986e-06
4.883e-10
4.99955e-06
1.52349e-09
4.99911e-06
2.85619e-09
4.99883e-06
4.56643e-09
4.99927e-06
6.88994e-09
5.00027e-06
9.89205e-09
5.00348e-06
1.40937e-08
5.00961e-06
1.87502e-08
5.02462e-06
2.091e-08
5.05552e-06
1.53985e-08
5.04979e-06
-1.62476e-09
5.02284e-06
-2.21596e-08
4.99789e-06
-3.03101e-08
4.99318e-06
-2.33386e-08
4.99866e-06
-1.0349e-08
5.00347e-06
-4.02114e-09
5.00375e-06
-2.66987e-09
5.00238e-06
-4.17175e-09
5.00219e-06
-5.96655e-09
-6.5432e-09
4.99998e-06
5.11281e-10
4.99993e-06
1.5728e-09
5.00001e-06
2.77619e-09
5.00031e-06
4.25804e-09
5.00113e-06
6.06401e-09
5.00279e-06
8.2365e-09
5.00668e-06
1.02083e-08
5.01379e-06
1.16471e-08
5.02357e-06
1.11063e-08
5.03072e-06
8.28147e-09
5.0284e-06
6.34856e-10
5.01627e-06
-1.00236e-08
5.00352e-06
-1.75573e-08
4.99779e-06
-1.76228e-08
4.99943e-06
-1.19969e-08
5.00163e-06
-6.222e-09
5.00242e-06
-3.46482e-09
5.00215e-06
-3.89922e-09
5.00122e-06
-5.029e-09
-5.98417e-09
5.00004e-06
4.7406e-10
5.00018e-06
1.42939e-09
5.00051e-06
2.4555e-09
5.00116e-06
3.60903e-09
5.00232e-06
4.8895e-09
5.00439e-06
6.16303e-09
5.00742e-06
7.19294e-09
5.0114e-06
7.66967e-09
5.01514e-06
7.36997e-09
5.01854e-06
4.87277e-09
5.01957e-06
-4.05237e-10
5.01524e-06
-5.69939e-09
5.00856e-06
-1.08831e-08
5.00312e-06
-1.21992e-08
5.00089e-06
-9.77066e-09
5.00103e-06
-6.35552e-09
5.00157e-06
-4.00733e-09
5.00134e-06
-3.6571e-09
5.00038e-06
-4.06204e-09
-4.98213e-09
5.00008e-06
3.95576e-10
5.00032e-06
1.18523e-09
5.0008e-06
1.98911e-09
5.00157e-06
2.8393e-09
5.00275e-06
3.70457e-09
5.00441e-06
4.4977e-09
5.00656e-06
5.0462e-09
5.0091e-06
5.13892e-09
5.01203e-06
4.43935e-09
5.01441e-06
2.50442e-09
5.01415e-06
-1.32799e-10
5.0121e-06
-3.64132e-09
5.00777e-06
-6.55242e-09
5.0035e-06
-7.93393e-09
5.00094e-06
-7.20766e-09
5.00015e-06
-5.55403e-09
5.00013e-06
-3.97634e-09
4.99991e-06
-3.42175e-09
4.9992e-06
-3.3534e-09
-4.17593e-09
5.0001e-06
2.96352e-10
5.0004e-06
8.89334e-10
5.00091e-06
1.48361e-09
5.00168e-06
2.07926e-09
5.00274e-06
2.64412e-09
5.00413e-06
3.10775e-09
5.00579e-06
3.37205e-09
5.00763e-06
3.29827e-09
5.00933e-06
2.74594e-09
5.01027e-06
1.57627e-09
5.01044e-06
-2.93159e-10
5.00904e-06
-2.22871e-09
5.00652e-06
-4.01462e-09
5.00369e-06
-5.09223e-09
5.00156e-06
-5.06494e-09
5.00037e-06
-4.3468e-09
4.99974e-06
-3.33027e-09
4.9992e-06
-2.88442e-09
4.99848e-06
-2.63577e-09
-3.21948e-09
5.00011e-06
1.93734e-10
5.00041e-06
5.83551e-10
5.00093e-06
9.73195e-10
5.00166e-06
1.35239e-09
5.00262e-06
1.69297e-09
5.00379e-06
1.94453e-09
5.0051e-06
2.05242e-09
5.00645e-06
1.94036e-09
5.00765e-06
1.54854e-09
5.0084e-06
8.33325e-10
5.00822e-06
-1.16716e-10
5.00735e-06
-1.34874e-09
5.00572e-06
-2.37335e-09
5.0037e-06
-3.06327e-09
5.00182e-06
-3.16277e-09
5.00036e-06
-2.88558e-09
4.99935e-06
-2.31244e-09
4.99855e-06
-2.09249e-09
4.99775e-06
-1.84256e-09
-2.28256e-09
5.00009e-06
1.1113e-10
5.00038e-06
2.98059e-10
5.00087e-06
4.8728e-10
5.00155e-06
6.72798e-10
5.00241e-06
8.34086e-10
5.00342e-06
9.45394e-10
5.00449e-06
9.84419e-10
5.00551e-06
9.2212e-10
5.00633e-06
7.28304e-10
5.0068e-06
3.61744e-10
5.00682e-06
-1.36428e-10
5.00609e-06
-6.21687e-10
5.00481e-06
-1.08666e-09
5.00317e-06
-1.42349e-09
5.00151e-06
-1.49377e-09
5.00005e-06
-1.42932e-09
4.99891e-06
-1.17997e-09
4.99795e-06
-1.13471e-09
4.99709e-06
-9.82884e-10
-1.42815e-09
5.00012e-06
5.00043e-06
5.00091e-06
5.00158e-06
5.00242e-06
5.00337e-06
5.00437e-06
5.0053e-06
5.00604e-06
5.0064e-06
5.00626e-06
5.00564e-06
5.00455e-06
5.00313e-06
5.00162e-06
5.00019e-06
4.99901e-06
4.99787e-06
4.99689e-06
)
;

boundaryField
{
    sides
    {
        type            calculated;
        value           uniform 0;
    }
    inlet
    {
        type            calculated;
        value           nonuniform List<scalar> 
20
(
-5e-06
-5e-06
-5e-06
-5e-06
-5e-06
-5e-06
-5e-06
-5e-06
-5e-06
-5e-06
-5e-06
-5e-06
-5e-06
-5e-06
-5e-06
-5e-06
-5e-06
-5e-06
-5e-06
-5e-06
)
;
    }
    outlet
    {
        type            calculated;
        value           nonuniform List<scalar> 
20
(
5.00192e-06
5.00143e-06
5.00154e-06
5.00147e-06
5.00176e-06
5.00204e-06
5.00283e-06
5.00425e-06
5.00347e-06
4.99516e-06
4.99477e-06
5.00268e-06
5.00277e-06
5.00067e-06
4.99939e-06
4.9984e-06
4.99752e-06
4.99681e-06
4.99623e-06
4.99547e-06
)
;
    }
    frontAndBack
    {
        type            empty;
        value           nonuniform List<scalar> 0();
    }
}


// ************************************************************************* //
