/*--------------------------------*- C++ -*----------------------------------*\
  =========                 |
  \\      /  F ield         | OpenFOAM: The Open Source CFD Toolbox
   \\    /   O peration     | Website:  https://openfoam.org
    \\  /    A nd           | Version:  9
     \\/     M anipulation  |
\*---------------------------------------------------------------------------*/
FoamFile
{
    format      ascii;
    class       volScalarField;
    location    "77";
    object      ddt0(h);
}
// * * * * * * * * * * * * * * * * * * * * * * * * * * * * * * * * * * * * * //

dimensions      [0 1 -1 0 0 0 0];

internalField   nonuniform List<scalar> 
400
(
1.28793e-08
-8.83443e-10
-7.75361e-09
-2.14291e-08
2.26029e-09
1.81982e-08
3.05967e-08
1.10326e-08
-1.07648e-08
-1.52952e-08
-1.67484e-08
-2.87626e-08
-2.54729e-08
-2.8317e-08
-4.25479e-08
-3.20673e-08
-8.56883e-09
-4.70462e-09
-5.37049e-09
-1.82025e-10
-1.80043e-09
-5.75323e-10
-4.32246e-09
1.83366e-10
1.01533e-08
1.65104e-08
8.03242e-09
-1.24206e-08
-1.57832e-08
-2.77332e-08
9.10033e-11
-2.98637e-08
-4.48679e-09
-6.44404e-10
-1.23116e-08
-1.59114e-08
-1.4534e-08
-1.04485e-08
-2.97265e-09
-1.07656e-09
-1.90422e-08
-2.7985e-10
8.47389e-09
2.18109e-08
1.37528e-08
-3.61023e-09
-2.41222e-08
-3.68959e-08
1.30091e-08
-1.35623e-08
1.32126e-08
2.08569e-08
-3.51657e-09
4.53306e-08
4.38839e-08
1.39925e-08
-1.11199e-08
-2.14098e-08
-1.39139e-08
-1.96609e-09
-2.63608e-08
5.17704e-09
1.8657e-08
2.47437e-08
-8.07684e-10
-2.44789e-08
-5.6091e-08
2.38981e-08
-3.96509e-09
7.41687e-08
-5.76684e-08
7.1619e-08
1.09049e-08
5.81107e-09
6.8301e-08
5.52052e-08
1.13843e-08
-6.79114e-09
1.57002e-09
4.0794e-09
-1.20505e-08
8.01807e-09
1.55611e-08
5.99904e-09
-1.73427e-08
-4.83516e-08
-5.3226e-09
5.32447e-08
-1.92852e-08
2.9247e-08
9.82724e-08
-7.92845e-08
5.32152e-08
-1.58166e-08
-1.22098e-08
3.89312e-08
3.1944e-08
1.83973e-08
2.10431e-08
1.13658e-08
1.06377e-08
1.01649e-08
-2.74001e-09
-1.2097e-08
-3.13778e-08
-2.69201e-08
5.4363e-08
-3.75733e-08
7.27612e-08
-1.42307e-07
1.05818e-07
2.33993e-08
-8.86741e-08
-4.85909e-09
-1.88225e-08
-1.01623e-08
1.66377e-08
3.04339e-08
2.46837e-08
9.00091e-09
2.18855e-08
3.72696e-09
-1.49681e-08
-1.74332e-08
-1.93923e-08
8.32317e-09
1.23258e-08
2.54123e-08
-1.38812e-07
2.75661e-07
-7.19247e-07
2.31033e-07
5.47495e-08
-6.98586e-08
-4.11844e-08
-2.33413e-08
-1.92613e-09
1.34623e-08
4.04016e-09
-3.13781e-09
1.40771e-08
-7.54873e-09
-1.91662e-08
-1.75219e-09
2.19291e-10
2.4886e-09
2.77855e-08
-6.20989e-08
3.07278e-08
2.4937e-07
1.09502e-06
-4.21203e-07
1.22655e-07
4.05239e-08
-2.82168e-08
-2.79094e-08
-9.64979e-09
-6.67637e-09
-1.73747e-08
-1.5825e-08
-5.0028e-10
-1.97994e-08
-1.36709e-08
7.7937e-09
1.55929e-08
-2.26377e-09
-2.60192e-08
3.03025e-08
-5.20242e-08
-2.4114e-07
-1.03186e-06
4.50484e-07
-9.2157e-08
-5.10045e-09
1.68185e-08
4.70704e-09
-7.46707e-08
-1.68328e-08
-2.85235e-08
-5.11872e-08
-9.49189e-09
-2.02566e-08
-1.11117e-08
9.7673e-09
1.44369e-08
-1.90791e-09
-3.04561e-08
-2.67514e-08
1.55866e-07
-2.72754e-07
7.34405e-07
-2.47169e-07
-2.49545e-08
8.10287e-08
4.56644e-08
1.549e-08
6.08972e-08
-1.76293e-08
-2.16756e-08
2.49867e-08
-7.74136e-09
-1.40625e-08
-8.11499e-09
-4.8507e-09
1.32773e-08
7.85677e-09
-4.27012e-08
3.78312e-08
-3.49562e-08
2.68354e-07
-8.13996e-07
2.19116e-08
9.25112e-08
3.20464e-08
5.02779e-08
1.2843e-08
-1.1128e-08
-1.54699e-08
-1.13904e-08
-1.0508e-09
-1.90302e-09
-6.21603e-09
-7.02455e-09
-1.2325e-08
-2.62068e-09
2.4205e-08
-1.16167e-08
-1.47219e-08
8.13329e-08
-3.51874e-07
5.79893e-06
-5.27205e-07
-4.44583e-08
2.6302e-08
1.46306e-08
-2.27549e-08
-1.55026e-08
-1.41465e-09
4.68632e-09
2.44518e-09
3.678e-09
-1.28854e-09
-6.83538e-09
-1.27931e-08
-4.55957e-09
1.25966e-08
3.42801e-08
-4.68412e-08
-5.67907e-08
3.001e-07
-5.90954e-06
6.03155e-07
-1.2775e-08
-1.375e-08
-4.07634e-08
-3.33664e-08
-7.60598e-09
1.16891e-08
1.27153e-08
4.17132e-09
5.24868e-09
1.14013e-09
-6.08075e-09
-9.81445e-09
1.878e-09
9.04958e-09
2.22355e-08
-1.63619e-08
-4.45949e-08
-1.67181e-07
7.90064e-07
-1.14356e-07
5.34474e-09
-3.87407e-08
-4.89275e-08
-2.1668e-08
-1.48289e-10
1.48295e-08
1.5814e-08
6.34221e-09
2.29011e-10
6.83816e-09
-3.45483e-09
-7.0476e-09
3.12735e-09
6.72744e-09
5.94842e-09
3.36649e-09
-5.90828e-08
2.7748e-08
-9.69396e-08
5.24821e-10
-3.46855e-08
-4.70834e-08
-1.03894e-08
7.0339e-10
1.6558e-09
1.50444e-08
2.32196e-08
1.11348e-08
-9.86566e-09
1.59387e-08
7.69992e-09
-9.69229e-09
-3.79822e-09
-1.5094e-09
-6.93092e-09
7.39216e-09
-4.35537e-09
-1.33338e-08
-4.14408e-08
-1.01193e-08
-2.54121e-08
-1.42686e-08
1.16646e-08
1.61997e-08
3.48014e-09
1.5891e-08
3.45148e-08
1.92686e-08
-1.88793e-08
2.29762e-08
2.23273e-08
-7.48085e-09
-2.3263e-08
-7.70197e-09
-1.54692e-08
1.00904e-08
1.38114e-08
1.58025e-08
9.64789e-09
7.69111e-09
-3.17288e-09
1.34904e-09
2.54126e-08
2.0803e-08
4.78242e-09
1.7162e-08
4.05126e-08
2.41142e-08
-1.44937e-08
1.3072e-08
2.73934e-08
1.87648e-10
-2.74599e-08
-2.24409e-08
-3.88605e-09
4.33665e-09
2.04747e-08
1.20557e-08
1.16154e-08
1.61168e-08
6.25964e-09
8.90575e-09
1.0377e-08
1.45197e-08
1.33021e-08
1.17114e-08
2.07917e-08
1.38061e-08
5.21143e-09
-6.4309e-09
6.35752e-09
9.39266e-09
-4.56491e-09
-1.43191e-08
-1.74427e-09
4.84851e-09
4.44245e-09
-6.78033e-09
2.74681e-09
5.39653e-09
6.41654e-09
-2.31646e-09
-1.08088e-08
5.79234e-09
1.39978e-08
-9.62663e-09
-2.67997e-08
-1.33755e-08
2.15272e-08
-1.90054e-08
-1.89814e-08
1.03349e-08
2.12364e-08
6.06843e-09
3.47007e-09
4.04089e-09
-1.00724e-08
-2.34125e-08
-2.0978e-08
-1.437e-08
-6.8436e-09
-1.59997e-08
-2.58619e-08
-9.49151e-09
3.36487e-09
-2.90368e-08
-6.50654e-08
-3.72795e-08
)
;

boundaryField
{
    sides
    {
        type            calculated;
        value           nonuniform List<scalar> 
40
(
2.15272e-08
-1.90054e-08
-1.89814e-08
1.03349e-08
2.12364e-08
6.06843e-09
3.47007e-09
4.04089e-09
-1.00724e-08
-2.34125e-08
-2.0978e-08
-1.437e-08
-6.8436e-09
-1.59997e-08
-2.58619e-08
-9.49151e-09
3.36487e-09
-2.90368e-08
-6.50654e-08
-3.72795e-08
1.28793e-08
-8.83443e-10
-7.75361e-09
-2.14291e-08
2.26029e-09
1.81982e-08
3.05967e-08
1.10326e-08
-1.07648e-08
-1.52952e-08
-1.67484e-08
-2.87626e-08
-2.54729e-08
-2.8317e-08
-4.25479e-08
-3.20673e-08
-8.56883e-09
-4.70462e-09
-5.37049e-09
-1.82025e-10
)
;
    }
    inlet
    {
        type            calculated;
        value           nonuniform List<scalar> 
20
(
1.28793e-08
-1.80043e-09
-1.90422e-08
-2.63608e-08
-1.20505e-08
1.06377e-08
2.18855e-08
1.40771e-08
-5.0028e-10
-9.49189e-09
-7.74136e-09
-1.90302e-09
3.678e-09
5.24868e-09
2.29011e-10
-9.86566e-09
-1.88793e-08
-1.44937e-08
5.21143e-09
2.15272e-08
)
;
    }
    outlet
    {
        type            calculated;
        value           uniform 0;
    }
    frontAndBack
    {
        type            empty;
    }
}


// ************************************************************************* //
