/*--------------------------------*- C++ -*----------------------------------*\
  =========                 |
  \\      /  F ield         | OpenFOAM: The Open Source CFD Toolbox
   \\    /   O peration     | Website:  https://openfoam.org
    \\  /    A nd           | Version:  9
     \\/     M anipulation  |
\*---------------------------------------------------------------------------*/
FoamFile
{
    format      ascii;
    class       volVectorField;
    location    "77";
    object      ddtCorrDdt0(hU);
}
// * * * * * * * * * * * * * * * * * * * * * * * * * * * * * * * * * * * * * //

dimensions      [0 2 -2 0 0 0 0];

internalField   nonuniform List<vector> 
400
(
(1.93836e-09 -3.07163e-10 0)
(3.66351e-10 -2.30747e-11 0)
(-9.63305e-10 6.56619e-10 0)
(-1.4027e-09 1.77635e-10 0)
(3.24695e-10 -1.11934e-09 0)
(5.65135e-10 -1.10385e-09 0)
(7.15237e-10 -9.79859e-11 0)
(-3.52497e-10 1.9568e-09 0)
(-6.69614e-12 3.53543e-09 0)
(1.39533e-09 2.71716e-09 0)
(2.08923e-09 2.70798e-09 0)
(2.36375e-10 2.52303e-09 0)
(-1.71392e-09 1.03802e-09 0)
(-5.31179e-09 2.24904e-09 0)
(-7.07951e-09 2.78368e-09 0)
(-5.22485e-09 2.22077e-09 0)
(-4.05523e-09 2.25025e-09 0)
(-2.16983e-09 4.09083e-09 0)
(2.06449e-09 3.82577e-09 0)
(4.67724e-09 1.58219e-09 0)
(5.861e-10 1.33787e-09 0)
(1.79804e-09 9.30285e-10 0)
(7.70523e-12 9.75638e-10 0)
(-7.29865e-10 -8.06857e-10 0)
(-3.63508e-10 -3.06134e-09 0)
(9.9901e-10 -1.73173e-09 0)
(1.28937e-09 1.53375e-09 0)
(1.14839e-09 7.64797e-09 0)
(6.66125e-10 6.68874e-09 0)
(-5.66065e-10 6.87228e-09 0)
(3.35126e-09 1.12406e-09 0)
(-1.89546e-09 3.73142e-09 0)
(2.90397e-12 1.04614e-09 0)
(-4.16561e-10 6.85946e-10 0)
(-3.69482e-09 3.89708e-09 0)
(-4.16779e-09 4.13082e-09 0)
(-3.2662e-09 4.81213e-09 0)
(-1.43193e-09 8.59133e-09 0)
(1.36262e-10 8.03796e-09 0)
(5.47171e-11 2.68225e-09 0)
(-1.8183e-09 3.55236e-09 0)
(8.12582e-10 2.43146e-09 0)
(5.73327e-11 1.44e-11 0)
(-3.80183e-10 -2.39114e-09 0)
(1.28059e-10 -2.86953e-09 0)
(1.9556e-09 5.90209e-10 0)
(4.00818e-09 5.89948e-09 0)
(5.72015e-10 9.79632e-09 0)
(2.45902e-09 2.18025e-09 0)
(-3.47366e-09 3.22668e-09 0)
(1.19418e-09 -1.79644e-09 0)
(4.39075e-09 -6.48977e-09 0)
(-2.84184e-09 -3.87934e-10 0)
(5.67228e-09 -5.97678e-09 0)
(6.06841e-09 -4.20903e-09 0)
(3.48849e-10 6.87984e-11 0)
(-1.06258e-09 3.55556e-09 0)
(-1.38653e-09 6.7419e-09 0)
(-3.85076e-09 5.95354e-09 0)
(-4.83597e-09 1.86871e-09 0)
(-3.27398e-09 3.05781e-09 0)
(-1.00871e-09 2.26308e-09 0)
(-8.03924e-10 -6.23498e-10 0)
(-6.96561e-11 -2.07228e-09 0)
(9.93174e-10 5.06849e-11 0)
(4.19611e-09 3.71424e-09 0)
(3.2469e-09 8.55941e-09 0)
(1.79768e-09 -2.52001e-09 0)
(-3.61887e-09 1.69924e-09 0)
(6.53087e-09 -1.07554e-08 0)
(-1.3038e-08 9.42034e-10 0)
(8.2186e-09 -8.98199e-09 0)
(2.08511e-09 -6.6037e-09 0)
(-2.75418e-09 -1.83809e-09 0)
(1.18587e-08 -7.93795e-09 0)
(1.09382e-08 -6.96545e-09 0)
(4.34328e-09 -6.60267e-10 0)
(2.18161e-11 3.15929e-09 0)
(-3.07464e-09 2.19935e-09 0)
(-5.10759e-09 4.38735e-10 0)
(-2.80723e-09 1.48855e-09 0)
(-2.97927e-09 9.91524e-10 0)
(-1.39428e-09 -1.56453e-10 0)
(1.26046e-10 2.93647e-10 0)
(2.16916e-09 2.24345e-09 0)
(4.10419e-09 5.46733e-09 0)
(-1.22689e-09 -4.91096e-10 0)
(3.09862e-09 -7.14888e-09 0)
(-6.90122e-09 -2.7522e-09 0)
(3.73794e-10 -1.87765e-09 0)
(1.11293e-08 -9.69581e-09 0)
(-1.53413e-08 9.74526e-09 0)
(9.7862e-09 -3.06488e-09 0)
(-1.68702e-10 3.66105e-10 0)
(-3.18788e-09 -2.87501e-10 0)
(1.03157e-08 -5.34958e-09 0)
(1.13943e-08 -4.29046e-09 0)
(3.71981e-09 -2.27825e-09 0)
(-1.65006e-09 -2.47002e-09 0)
(-3.20234e-09 -1.77353e-09 0)
(-1.30787e-09 -1.46496e-10 0)
(-3.83113e-09 5.22139e-10 0)
(-1.31796e-09 1.61049e-09 0)
(2.7662e-10 2.19133e-09 0)
(2.39614e-09 2.28887e-09 0)
(-7.37936e-10 4.89062e-10 0)
(3.15382e-10 -6.78238e-09 0)
(-5.97517e-09 -2.22856e-09 0)
(1.14651e-08 -5.8191e-09 0)
(-2.11721e-08 1.15349e-08 0)
(1.35038e-08 -1.05493e-08 0)
(8.99193e-09 -9.80853e-09 0)
(-1.83323e-08 1.46005e-08 0)
(7.94042e-10 4.61033e-09 0)
(-6.09005e-10 3.15756e-09 0)
(4.49614e-10 8.71285e-10 0)
(5.66485e-09 -2.6694e-09 0)
(3.5671e-09 -4.47811e-09 0)
(8.44985e-10 -4.53856e-09 0)
(1.40164e-09 -2.43325e-09 0)
(2.54121e-10 -1.71603e-09 0)
(-2.79636e-09 9.92412e-10 0)
(-6.4899e-10 3.40611e-09 0)
(9.13988e-11 2.51448e-09 0)
(-4.07978e-10 -4.05338e-10 0)
(-1.38688e-09 -3.74488e-09 0)
(-3.70214e-09 -2.89805e-09 0)
(2.27398e-09 3.22618e-10 0)
(-3.5471e-09 7.99227e-09 0)
(2.22351e-08 -3.01841e-08 0)
(-9.44803e-08 1.27411e-07 0)
(3.91899e-08 -2.96139e-08 0)
(2.48615e-08 -2.81702e-09 0)
(-1.60706e-08 9.86014e-09 0)
(-7.76015e-09 5.44576e-09 0)
(-1.50924e-09 3.21125e-09 0)
(2.85555e-10 9.29014e-10 0)
(-7.33665e-10 -1.09609e-09 0)
(-9.49438e-10 -1.53136e-09 0)
(2.47297e-09 -9.461e-10 0)
(1.33152e-09 -2.59388e-09 0)
(-1.40971e-10 1.15885e-09 0)
(2.00749e-10 3.43144e-09 0)
(-1.07066e-09 1.7366e-09 0)
(-1.33575e-09 -1.92935e-09 0)
(-2.33138e-09 -3.44223e-09 0)
(5.22035e-10 2.61413e-09 0)
(3.04804e-09 6.7726e-09 0)
(-2.18937e-08 -1.11352e-11 0)
(1.36084e-07 2.60722e-08 0)
(1.21772e-07 -1.05462e-07 0)
(-1.74963e-07 4.60587e-08 0)
(4.38096e-08 5.16107e-09 0)
(1.54918e-08 -2.1416e-09 0)
(-6.77418e-09 2.30645e-09 0)
(-5.6327e-09 3.87932e-09 0)
(-3.37234e-09 4.36274e-09 0)
(-4.50411e-09 2.5383e-09 0)
(-3.34784e-09 1.67687e-09 0)
(7.4037e-10 8.28122e-10 0)
(1.84977e-09 -2.08551e-09 0)
(2.37985e-09 4.68194e-10 0)
(1.09648e-09 1.43457e-09 0)
(-1.65093e-09 4.78195e-10 0)
(-2.62239e-09 -5.68129e-10 0)
(4.24083e-10 -1.78674e-09 0)
(1.80659e-09 4.20618e-09 0)
(9.45722e-10 8.77901e-09 0)
(2.62612e-08 -1.29217e-09 0)
(-1.32839e-07 2.12971e-08 0)
(-1.15236e-07 -1.13158e-07 0)
(1.78135e-07 4.01224e-08 0)
(-4.06475e-08 -2.76672e-09 0)
(-1.13267e-08 -6.81935e-09 0)
(5.75102e-09 -1.78423e-09 0)
(3.47468e-09 1.88183e-09 0)
(-1.00182e-08 7.69216e-10 0)
(-8.00713e-09 1.218e-09 0)
(-6.13469e-09 2.34552e-09 0)
(-5.09025e-09 1.1257e-09 0)
(1.72398e-09 -6.43749e-10 0)
(3.58283e-09 -3.87001e-10 0)
(1.55582e-09 -1.2093e-09 0)
(-1.21769e-09 -3.27644e-10 0)
(-2.49942e-09 1.33801e-09 0)
(7.43058e-10 8.0484e-10 0)
(4.75245e-09 1.05375e-09 0)
(1.6976e-09 2.72839e-09 0)
(4.4556e-09 2.3401e-09 0)
(-2.71419e-08 -3.58996e-08 0)
(9.62505e-08 1.23299e-07 0)
(-4.07707e-08 -4.93283e-08 0)
(-1.96805e-08 -1.42024e-08 0)
(2.10037e-08 -1.30909e-09 0)
(1.03597e-08 3.69936e-10 0)
(1.41623e-09 1.31753e-10 0)
(1.91573e-09 -3.68729e-09 0)
(-5.04729e-09 -3.27092e-09 0)
(-3.74201e-09 -7.3499e-10 0)
(1.89753e-09 3.15264e-10 0)
(1.40964e-09 8.55019e-10 0)
(2.93563e-09 -7.5896e-10 0)
(1.85402e-09 -2.44473e-09 0)
(-9.54752e-11 -1.22663e-09 0)
(-1.82966e-09 2.5784e-09 0)
(5.27556e-10 2.52127e-09 0)
(1.62604e-09 -2.15018e-09 0)
(3.19212e-09 -3.86736e-09 0)
(-1.60892e-08 -7.33901e-09 0)
(4.90741e-08 -1.69496e-08 0)
(-9.36044e-08 4.80337e-08 0)
(-2.54539e-08 -1.32433e-08 0)
(2.88687e-08 -9.5881e-10 0)
(7.58692e-09 -1.30272e-09 0)
(1.06279e-08 -7.64898e-10 0)
(1.52957e-10 -2.35218e-09 0)
(-7.663e-09 -4.23374e-09 0)
(-5.41788e-09 -4.82235e-09 0)
(-6.63204e-10 -2.96714e-09 0)
(1.37969e-09 -1.93061e-10 0)
(8.1403e-10 1.72504e-09 0)
(1.28991e-09 -7.14433e-10 0)
(1.28011e-09 -2.47285e-09 0)
(1.33304e-09 -1.4358e-09 0)
(-3.77727e-10 1.02037e-09 0)
(-1.17844e-09 3.7118e-09 0)
(6.54742e-12 -3.58325e-09 0)
(-2.6147e-09 -7.20468e-09 0)
(-2.03082e-08 -4.25478e-10 0)
(2.53809e-08 3.66872e-08 0)
(6.21405e-07 -1.03568e-07 0)
(-1.26129e-07 2.23213e-08 0)
(-9.27413e-09 1.46812e-08 0)
(1.60839e-08 7.02001e-09 0)
(5.93884e-09 1.21694e-09 0)
(-6.16641e-09 -5.75321e-09 0)
(-8.19422e-09 -5.18643e-09 0)
(-2.19797e-09 -3.35222e-09 0)
(3.27145e-09 -1.51568e-09 0)
(3.90324e-09 2.42713e-11 0)
(1.92356e-10 1.93285e-09 0)
(-7.75969e-10 -9.52111e-10 0)
(6.41113e-10 -2.24313e-09 0)
(1.86625e-09 -1.21419e-09 0)
(1.69005e-09 -2.90362e-10 0)
(-2.66092e-09 7.07917e-10 0)
(-1.43916e-09 5.6215e-10 0)
(-2.85612e-09 -7.51751e-09 0)
(2.72543e-08 6.64831e-09 0)
(-4.5923e-08 2.84109e-08 0)
(-6.31606e-07 -5.80369e-08 0)
(1.57197e-07 9.9309e-09 0)
(4.08392e-09 1.44733e-08 0)
(-1.13671e-08 8.81545e-09 0)
(-1.18994e-08 -9.97054e-10 0)
(-1.12705e-08 -4.1968e-09 0)
(-4.09988e-09 -8.28428e-10 0)
(1.48732e-09 7.40631e-10 0)
(4.65505e-09 1.0145e-09 0)
(4.35177e-09 8.73938e-10 0)
(-9.30489e-10 1.66761e-09 0)
(-2.76984e-09 -1.48595e-09 0)
(2.04243e-11 -2.39914e-09 0)
(2.39468e-09 -1.24327e-09 0)
(2.2867e-09 -6.23384e-10 0)
(-5.5372e-10 -1.4703e-09 0)
(-4.06576e-09 1.24897e-09 0)
(2.27989e-09 -2.34389e-10 0)
(3.27919e-09 -4.8894e-10 0)
(-2.13704e-08 -2.63282e-08 0)
(8.923e-08 8.47283e-08 0)
(-5.18414e-09 -2.38252e-09 0)
(-4.25226e-09 -1.02679e-08 0)
(-7.3791e-09 -6.34992e-09 0)
(-1.48818e-08 -5.67853e-09 0)
(-6.20923e-09 -4.16385e-10 0)
(-2.11133e-10 2.85683e-09 0)
(2.33966e-09 3.4409e-09 0)
(3.77973e-09 2.78216e-09 0)
(3.09272e-09 1.64247e-09 0)
(-2.51793e-09 6.14899e-10 0)
(-4.11173e-09 -1.72029e-09 0)
(-3.59421e-10 -2.78558e-09 0)
(2.73631e-09 -1.54474e-09 0)
(2.67846e-09 -5.10703e-10 0)
(2.09086e-10 -1.18056e-09 0)
(-2.14007e-09 1.10117e-10 0)
(-6.53085e-10 3.79815e-09 0)
(-2.16287e-09 -4.56752e-09 0)
(9.60777e-09 -1.25813e-09 0)
(-1.07586e-08 -4.23707e-10 0)
(-1.2621e-09 -1.30272e-08 0)
(-2.12685e-09 -7.25903e-09 0)
(-1.07278e-08 -1.00259e-08 0)
(-4.7781e-09 -3.36641e-09 0)
(4.21482e-10 1.04747e-09 0)
(2.49617e-09 2.66206e-09 0)
(3.17888e-09 3.35787e-09 0)
(3.07576e-09 3.04905e-09 0)
(1.20011e-09 1.75072e-09 0)
(-3.88462e-09 -1.39575e-09 0)
(-4.13549e-09 -1.34171e-09 0)
(-4.1606e-10 -1.98681e-09 0)
(3.00355e-09 -1.74227e-09 0)
(2.63359e-09 -4.27365e-10 0)
(8.41154e-10 -1.82066e-10 0)
(-1.04453e-09 -1.78127e-10 0)
(-9.09956e-10 2.76755e-09 0)
(-2.91469e-11 1.07162e-09 0)
(-2.25108e-09 -9.03574e-10 0)
(-4.72616e-09 -6.45928e-09 0)
(1.97953e-10 -2.30957e-09 0)
(-3.41432e-09 -7.82835e-09 0)
(-2.72129e-09 -5.28174e-09 0)
(5.5101e-10 -1.27743e-10 0)
(3.27348e-09 1.57655e-09 0)
(4.4743e-09 8.91275e-10 0)
(4.47811e-09 1.10285e-09 0)
(3.12236e-09 1.84253e-09 0)
(-7.564e-11 1.3811e-09 0)
(-3.64789e-09 -3.99417e-09 0)
(-2.07507e-09 -8.28533e-10 0)
(-3.99263e-10 8.85707e-10 0)
(2.51425e-09 -2.95431e-10 0)
(2.18955e-09 -1.29184e-09 0)
(9.23881e-10 -6.53927e-11 0)
(-3.93414e-10 -1.44613e-09 0)
(3.32648e-10 2.89095e-10 0)
(-5.52173e-10 9.04292e-10 0)
(1.517e-10 1.62713e-09 0)
(-1.77279e-10 3.6041e-09 0)
(4.29936e-10 8.60676e-10 0)
(-1.65546e-09 -1.68104e-09 0)
(4.56713e-10 -1.13463e-09 0)
(3.88733e-09 1.71306e-09 0)
(3.10359e-09 1.95629e-09 0)
(4.35944e-09 -7.58904e-11 0)
(6.01671e-09 -1.37006e-09 0)
(3.92175e-09 -1.80666e-10 0)
(-1.11456e-09 6.54512e-10 0)
(-6.91991e-10 -5.28897e-09 0)
(1.46701e-09 -1.46021e-09 0)
(-6.46774e-11 3.91751e-09 0)
(2.10685e-10 3.10946e-09 0)
(9.92507e-10 -1.2164e-09 0)
(4.04471e-10 -3.08382e-09 0)
(4.43665e-10 -3.19645e-09 0)
(2.53289e-10 -4.43159e-09 0)
(2.01804e-09 -1.5784e-09 0)
(2.2972e-09 1.18633e-09 0)
(1.14098e-09 5.27233e-09 0)
(-6.43854e-10 4.79466e-09 0)
(-1.77893e-09 2.62328e-09 0)
(1.69531e-09 2.6965e-09 0)
(1.89474e-09 2.94952e-09 0)
(1.02307e-09 3.92448e-09 0)
(3.98241e-09 2.26388e-09 0)
(5.4493e-09 -2.0619e-09 0)
(2.10693e-09 -2.41076e-09 0)
(-2.8868e-09 -4.57787e-10 0)
(3.02542e-09 -4.05925e-09 0)
(4.56983e-09 -2.22462e-09 0)
(7.76786e-10 3.97509e-09 0)
(-2.17818e-09 5.2428e-09 0)
(-1.74683e-09 1.04471e-10 0)
(-2.88155e-10 -4.5975e-09 0)
(3.82555e-10 -5.18106e-09 0)
(5.7166e-10 -6.16068e-09 0)
(2.75817e-09 -4.54483e-09 0)
(4.20006e-09 -2.12055e-09 0)
(3.82721e-09 9.44219e-10 0)
(-9.79854e-10 2.37535e-09 0)
(-2.48079e-09 3.20905e-09 0)
(-6.47911e-10 2.78684e-09 0)
(1.26808e-10 2.73157e-09 0)
(7.8494e-10 5.28562e-09 0)
(8.72617e-10 3.79476e-09 0)
(-2.37909e-10 -2.39263e-09 0)
(-3.45205e-09 -4.17829e-09 0)
(-5.43462e-09 -1.3993e-09 0)
(5.20891e-09 -1.43729e-09 0)
(6.15044e-09 -1.10991e-09 0)
(1.6704e-09 1.49703e-09 0)
(-3.3547e-09 2.62916e-09 0)
(-3.78826e-09 4.31154e-10 0)
(-1.21395e-09 -2.00684e-09 0)
(1.25298e-10 -2.75524e-09 0)
(3.55845e-10 -2.95683e-09 0)
(2.14536e-09 -2.78217e-09 0)
(3.90011e-09 -1.85125e-09 0)
(3.0066e-09 -1.30428e-09 0)
(-5.19562e-10 -4.40072e-10 0)
(-2.43192e-09 8.58429e-10 0)
(-1.96568e-09 8.14029e-10 0)
(-1.03327e-10 1.11149e-09 0)
(-3.33729e-10 2.35448e-09 0)
(-3.69592e-09 1.54033e-09 0)
(-5.9899e-09 -1.43187e-09 0)
(-7.53415e-09 -2.45081e-09 0)
(-6.00218e-09 -8.90475e-10 0)
)
;

boundaryField
{
    sides
    {
        type            calculated;
        value           nonuniform List<vector> 
40
(
(5.20891e-09 0 0)
(6.15044e-09 0 0)
(1.6704e-09 0 0)
(-3.3547e-09 0 0)
(-3.78826e-09 0 0)
(-1.21395e-09 0 0)
(1.25298e-10 0 0)
(3.55845e-10 0 0)
(2.14536e-09 0 0)
(3.90011e-09 0 0)
(3.0066e-09 0 0)
(-5.19562e-10 0 0)
(-2.43192e-09 0 0)
(-1.96568e-09 0 0)
(-1.03327e-10 0 0)
(-3.33729e-10 0 0)
(-3.69592e-09 0 0)
(-5.9899e-09 0 0)
(-7.53415e-09 0 0)
(-6.00218e-09 0 0)
(1.93836e-09 0 0)
(3.66351e-10 0 0)
(-9.63305e-10 0 0)
(-1.4027e-09 0 0)
(3.24695e-10 0 0)
(5.65135e-10 0 0)
(7.15237e-10 0 0)
(-3.52497e-10 0 0)
(-6.69614e-12 0 0)
(1.39533e-09 0 0)
(2.08923e-09 0 0)
(2.36375e-10 0 0)
(-1.71392e-09 0 0)
(-5.31179e-09 0 0)
(-7.07951e-09 0 0)
(-5.22485e-09 0 0)
(-4.05523e-09 0 0)
(-2.16983e-09 0 0)
(2.06449e-09 0 0)
(4.67724e-09 0 0)
)
;
    }
    inlet
    {
        type            calculated;
        value           uniform (0 0 0);
    }
    outlet
    {
        type            calculated;
        value           nonuniform List<vector> 
20
(
(4.67724e-09 1.58219e-09 0)
(5.47171e-11 2.68225e-09 0)
(-4.83597e-09 1.86871e-09 0)
(-5.10759e-09 4.38735e-10 0)
(-3.20234e-09 -1.77353e-09 0)
(1.40164e-09 -2.43325e-09 0)
(2.47297e-09 -9.461e-10 0)
(7.4037e-10 8.28122e-10 0)
(-5.09025e-09 1.1257e-09 0)
(1.89753e-09 3.15264e-10 0)
(1.37969e-09 -1.93061e-10 0)
(3.90324e-09 2.42713e-11 0)
(4.35177e-09 8.73938e-10 0)
(3.09272e-09 1.64247e-09 0)
(1.20011e-09 1.75072e-09 0)
(-7.564e-11 1.3811e-09 0)
(-1.11456e-09 6.54512e-10 0)
(-2.8868e-09 -4.57787e-10 0)
(-5.43462e-09 -1.3993e-09 0)
(-6.00218e-09 -8.90475e-10 0)
)
;
    }
    frontAndBack
    {
        type            empty;
    }
}


// ************************************************************************* //
