/*--------------------------------*- C++ -*----------------------------------*\
  =========                 |
  \\      /  F ield         | OpenFOAM: The Open Source CFD Toolbox
   \\    /   O peration     | Website:  https://openfoam.org
    \\  /    A nd           | Version:  9
     \\/     M anipulation  |
\*---------------------------------------------------------------------------*/
FoamFile
{
    format      ascii;
    class       volVectorField;
    location    "77";
    object      hU;
}
// * * * * * * * * * * * * * * * * * * * * * * * * * * * * * * * * * * * * * //

dimensions      [0 2 -1 0 0 0 0];

internalField   nonuniform List<vector> 
400
(
(0.001 -2.44129e-08 0)
(0.00100004 -7.06693e-08 0)
(0.00100012 -1.13259e-07 0)
(0.00100024 -1.52343e-07 0)
(0.00100039 -1.87341e-07 0)
(0.00100058 -2.1695e-07 0)
(0.00100078 -2.37263e-07 0)
(0.00100099 -2.4552e-07 0)
(0.00100118 -2.36158e-07 0)
(0.00100133 -2.10792e-07 0)
(0.0010014 -1.67683e-07 0)
(0.0010014 -1.2775e-07 0)
(0.00100129 -9.83294e-08 0)
(0.00100111 -9.23168e-08 0)
(0.00100087 -9.88853e-08 0)
(0.00100065 -1.349e-07 0)
(0.00100044 -1.55924e-07 0)
(0.00100034 -2.00483e-07 0)
(0.00100026 -1.881e-07 0)
(0.00100033 -2.68286e-07 0)
(0.001 -2.68374e-08 0)
(0.00100005 -7.89937e-08 0)
(0.00100013 -1.28384e-07 0)
(0.00100026 -1.74187e-07 0)
(0.00100042 -2.13673e-07 0)
(0.00100062 -2.40894e-07 0)
(0.00100084 -2.46475e-07 0)
(0.00100108 -2.20274e-07 0)
(0.0010013 -1.53904e-07 0)
(0.00100147 -4.63544e-08 0)
(0.00100156 9.52171e-08 0)
(0.00100154 2.49427e-07 0)
(0.00100141 3.91107e-07 0)
(0.00100119 4.78139e-07 0)
(0.00100093 5.06776e-07 0)
(0.00100067 4.53598e-07 0)
(0.00100048 3.80078e-07 0)
(0.00100037 2.58613e-07 0)
(0.00100033 2.06079e-07 0)
(0.00100029 8.11704e-08 0)
(0.001 -5.22921e-08 0)
(0.00100004 -1.5917e-07 0)
(0.00100013 -2.67375e-07 0)
(0.00100026 -3.74399e-07 0)
(0.00100043 -4.74277e-07 0)
(0.00100065 -5.5602e-07 0)
(0.0010009 -6.03578e-07 0)
(0.00100117 -5.9692e-07 0)
(0.00100143 -5.17285e-07 0)
(0.00100164 -3.50349e-07 0)
(0.00100176 -1.08486e-07 0)
(0.00100176 1.63956e-07 0)
(0.00100159 4.03202e-07 0)
(0.00100131 5.20744e-07 0)
(0.00100095 5.00459e-07 0)
(0.00100062 3.55458e-07 0)
(0.00100037 2.05246e-07 0)
(0.00100026 4.80506e-08 0)
(0.00100022 -2.27848e-09 0)
(0.0010003 -1.16997e-07 0)
(0.001 -7.28789e-08 0)
(0.00100004 -2.22553e-07 0)
(0.00100013 -3.75983e-07 0)
(0.00100026 -5.31742e-07 0)
(0.00100045 -6.81325e-07 0)
(0.00100069 -8.09824e-07 0)
(0.001001 -8.88206e-07 0)
(0.00100134 -8.85514e-07 0)
(0.00100171 -7.55428e-07 0)
(0.00100203 -4.7523e-07 0)
(0.00100222 -2.19486e-08 0)
(0.00100219 4.9328e-07 0)
(0.00100193 9.36914e-07 0)
(0.00100146 1.13929e-06 0)
(0.00100097 1.05402e-06 0)
(0.00100058 7.434e-07 0)
(0.00100041 4.25565e-07 0)
(0.00100035 1.72081e-07 0)
(0.0010004 1.02985e-07 0)
(0.00100035 4.4739e-10 0)
(0.001 -9.01252e-08 0)
(0.00100004 -2.78366e-07 0)
(0.00100012 -4.78434e-07 0)
(0.00100025 -6.95313e-07 0)
(0.00100044 -9.21019e-07 0)
(0.00100072 -1.13831e-06 0)
(0.0010011 -1.29818e-06 0)
(0.00100155 -1.3379e-06 0)
(0.00100207 -1.17619e-06 0)
(0.00100257 -7.7933e-07 0)
(0.0010029 -1.71185e-07 0)
(0.00100288 5.79617e-07 0)
(0.00100244 1.23045e-06 0)
(0.00100167 1.51062e-06 0)
(0.00100086 1.37387e-06 0)
(0.00100031 9.63815e-07 0)
(0.00100013 5.81886e-07 0)
(0.00100022 3.15253e-07 0)
(0.00100036 2.62148e-07 0)
(0.00100043 1.67574e-07 0)
(0.001 -1.02769e-07 0)
(0.00100003 -3.19e-07 0)
(0.00100009 -5.63401e-07 0)
(0.00100019 -8.45562e-07 0)
(0.00100038 -1.17256e-06 0)
(0.00100068 -1.52421e-06 0)
(0.00100115 -1.85923e-06 0)
(0.00100179 -2.05491e-06 0)
(0.00100254 -1.91333e-06 0)
(0.00100326 -1.2004e-06 0)
(0.00100377 8.23494e-08 0)
(0.00100378 1.54156e-06 0)
(0.00100309 2.43424e-06 0)
(0.00100192 2.3042e-06 0)
(0.00100082 1.42906e-06 0)
(0.00100019 4.91596e-07 0)
(0.00100017 1.2939e-08 0)
(0.00100037 -8.57357e-08 0)
(0.00100064 5.92603e-08 0)
(0.00100055 4.93131e-08 0)
(0.001 -1.02695e-07 0)
(0.001 -3.34058e-07 0)
(0.00100002 -6.02695e-07 0)
(0.00100008 -9.62324e-07 0)
(0.00100021 -1.39215e-06 0)
(0.00100048 -1.94607e-06 0)
(0.001001 -2.48956e-06 0)
(0.00100188 -3.08468e-06 0)
(0.00100321 -3.23387e-06 0)
(0.00100473 -2.88212e-06 0)
(0.00100573 -6.6997e-07 0)
(0.00100536 2.55303e-06 0)
(0.0010035 4.82802e-06 0)
(0.00100112 4.73707e-06 0)
(0.000999609 3.02833e-06 0)
(0.000999373 1.26378e-06 0)
(0.00100001 4.30947e-07 0)
(0.00100056 3.26047e-07 0)
(0.00100093 5.60838e-07 0)
(0.00100066 5.3317e-07 0)
(0.000999996 -9.31885e-08 0)
(0.000999968 -2.89302e-07 0)
(0.000999907 -5.77372e-07 0)
(0.000999876 -9.5685e-07 0)
(0.000999879 -1.57742e-06 0)
(0.0010001 -2.34507e-06 0)
(0.0010005 -3.40266e-06 0)
(0.00100153 -4.12444e-06 0)
(0.00100308 -4.37279e-06 0)
(0.00100602 -2.54829e-06 0)
(0.0010091 7.55523e-07 0)
(0.00100915 4.27113e-06 0)
(0.00100551 4.7197e-06 0)
(0.00100074 2.7829e-06 0)
(0.00099815 7.36108e-07 0)
(0.000998274 -2.73827e-07 0)
(0.000999798 -2.85119e-07 0)
(0.00100088 -9.8577e-09 0)
(0.00100133 2.11301e-07 0)
(0.00100085 1.02303e-07 0)
(0.000999995 -4.9837e-08 0)
(0.000999915 -2.04153e-07 0)
(0.000999756 -3.86709e-07 0)
(0.000999531 -7.3505e-07 0)
(0.000999288 -1.33851e-06 0)
(0.000999211 -2.48165e-06 0)
(0.000999707 -4.68751e-06 0)
(0.00100139 -8.06758e-06 0)
(0.00100492 -1.32851e-05 0)
(0.00100958 -1.49117e-05 0)
(0.00101189 3.84297e-06 0)
(0.00100893 1.87326e-05 0)
(0.00100221 1.57815e-05 0)
(0.000997567 5.74213e-06 0)
(0.000996886 -3.15385e-07 0)
(0.000998461 -1.26251e-06 0)
(0.00100027 -9.38993e-08 0)
(0.001001 6.34717e-07 0)
(0.00100107 6.5172e-07 0)
(0.00100054 2.43646e-07 0)
(0.000999804 -1.99546e-08 0)
(0.00100017 -6.66409e-08 0)
(0.000999216 -1.51471e-07 0)
(0.000999905 -2.48789e-07 0)
(0.000997521 -5.92151e-07 0)
(0.000998843 -1.13126e-06 0)
(0.000993348 -2.8835e-06 0)
(0.000997532 -5.59218e-06 0)
(0.000991668 -1.15418e-05 0)
(0.000915832 -1.27086e-05 0)
(0.000951473 2.72966e-07 0)
(0.00101022 1.4634e-05 0)
(0.000990951 1.30828e-05 0)
(0.000983977 5.14077e-06 0)
(0.000989587 1.94382e-07 0)
(0.000996281 -7.81218e-07 0)
(0.000999236 -1.11629e-07 0)
(0.000999412 2.48343e-07 0)
(0.000998648 1.74508e-07 0)
(0.000998506 -1.84757e-07 0)
(0.000999804 1.33868e-08 0)
(0.00100017 4.62909e-08 0)
(0.000999216 1.17607e-07 0)
(0.000999903 1.99938e-07 0)
(0.000997519 5.29573e-07 0)
(0.000998838 1.05181e-06 0)
(0.00099334 2.7866e-06 0)
(0.00099752 5.47323e-06 0)
(0.00099165 1.1396e-05 0)
(0.000915812 1.25464e-05 0)
(0.000951426 -4.78005e-07 0)
(0.0010102 -1.49118e-05 0)
(0.000990951 -1.341e-05 0)
(0.000983969 -5.53684e-06 0)
(0.000989568 -6.48973e-07 0)
(0.000996243 2.47756e-07 0)
(0.000999195 -4.72592e-07 0)
(0.000999367 -1.00227e-06 0)
(0.000998635 -9.88085e-07 0)
(0.000998456 -8.88436e-07 0)
(0.000999995 4.32016e-08 0)
(0.000999915 1.84437e-07 0)
(0.000999756 3.53851e-07 0)
(0.000999531 6.87574e-07 0)
(0.000999286 1.27673e-06 0)
(0.00099921 2.40197e-06 0)
(0.000999703 4.58911e-06 0)
(0.00100139 7.94186e-06 0)
(0.0010049 1.31314e-05 0)
(0.00100957 1.47213e-05 0)
(0.0010119 -4.06388e-06 0)
(0.0010089 -1.90012e-05 0)
(0.00100214 -1.60949e-05 0)
(0.00099748 -6.12332e-06 0)
(0.000996816 -8.54562e-08 0)
(0.000998401 7.74058e-07 0)
(0.00100017 -4.27894e-07 0)
(0.00100085 -1.30491e-06 0)
(0.00100088 -1.37847e-06 0)
(0.00100037 -1.25035e-06 0)
(0.000999996 8.67368e-08 0)
(0.000999968 2.70572e-07 0)
(0.000999906 5.45533e-07 0)
(0.000999872 9.10851e-07 0)
(0.000999871 1.51387e-06 0)
(0.00100008 2.2615e-06 0)
(0.00100048 3.29391e-06 0)
(0.00100149 3.99057e-06 0)
(0.00100303 4.21178e-06 0)
(0.00100595 2.36793e-06 0)
(0.001009 -9.74346e-07 0)
(0.00100906 -4.53556e-06 0)
(0.00100543 -5.01837e-06 0)
(0.00100066 -3.12933e-06 0)
(0.000998057 -1.13209e-06 0)
(0.000998135 -2.52235e-07 0)
(0.000999623 -3.22945e-07 0)
(0.00100064 -7.41012e-07 0)
(0.00100106 -9.66038e-07 0)
(0.00100055 -1.07331e-06 0)
(0.001 9.68462e-08 0)
(0.001 3.16071e-07 0)
(0.00100002 5.7246e-07 0)
(0.00100007 9.18337e-07 0)
(0.0010002 1.3337e-06 0)
(0.00100046 1.87039e-06 0)
(0.00100097 2.39886e-06 0)
(0.00100185 2.97583e-06 0)
(0.00100318 3.11224e-06 0)
(0.00100469 2.73077e-06 0)
(0.00100569 5.06056e-07 0)
(0.00100527 -2.75515e-06 0)
(0.00100338 -5.07805e-06 0)
(0.00100096 -5.07067e-06 0)
(0.000999409 -3.44916e-06 0)
(0.000999123 -1.79367e-06 0)
(0.000999746 -1.02062e-06 0)
(0.00100026 -1.05841e-06 0)
(0.00100062 -1.30569e-06 0)
(0.00100024 -1.5148e-06 0)
(0.001 9.77871e-08 0)
(0.00100003 3.02979e-07 0)
(0.00100008 5.36322e-07 0)
(0.00100019 8.06435e-07 0)
(0.00100037 1.12132e-06 0)
(0.00100066 1.45846e-06 0)
(0.00100112 1.77805e-06 0)
(0.00100174 1.95234e-06 0)
(0.00100248 1.78379e-06 0)
(0.00100317 1.03496e-06 0)
(0.00100366 -2.79919e-07 0)
(0.00100363 -1.78336e-06 0)
(0.00100292 -2.71077e-06 0)
(0.00100171 -2.63129e-06 0)
(0.00100058 -1.77786e-06 0)
(0.000999906 -8.94439e-07 0)
(0.000999861 -4.26755e-07 0)
(0.000999984 -4.4737e-07 0)
(0.00100022 -6.15113e-07 0)
(0.00100001 -8.47866e-07 0)
(0.001 8.57021e-08 0)
(0.00100004 2.64556e-07 0)
(0.00100011 4.5505e-07 0)
(0.00100024 6.62086e-07 0)
(0.00100043 8.77334e-07 0)
(0.0010007 1.08339e-06 0)
(0.00100106 1.22958e-06 0)
(0.0010015 1.25406e-06 0)
(0.001002 1.07526e-06 0)
(0.00100248 6.57667e-07 0)
(0.0010028 1.7635e-08 0)
(0.00100274 -7.7058e-07 0)
(0.00100227 -1.44989e-06 0)
(0.00100146 -1.77344e-06 0)
(0.00100062 -1.66679e-06 0)
(0.00100001 -1.34732e-06 0)
(0.000999796 -1.02938e-06 0)
(0.000999767 -9.3709e-07 0)
(0.000999886 -9.44664e-07 0)
(0.000999767 -1.10797e-06 0)
(0.001 6.87622e-08 0)
(0.00100004 2.10046e-07 0)
(0.00100012 3.54968e-07 0)
(0.00100025 5.01991e-07 0)
(0.00100043 6.43735e-07 0)
(0.00100066 7.64874e-07 0)
(0.00100096 8.37035e-07 0)
(0.00100129 8.2643e-07 0)
(0.00100163 6.92369e-07 0)
(0.00100191 4.06867e-07 0)
(0.00100206 -4.69912e-08 0)
(0.001002 -5.76252e-07 0)
(0.00100171 -1.03536e-06 0)
(0.0010012 -1.28064e-06 0)
(0.00100065 -1.22879e-06 0)
(0.00100016 -9.93988e-07 0)
(0.000999917 -7.02579e-07 0)
(0.000999742 -5.57876e-07 0)
(0.000999753 -4.87643e-07 0)
(0.000999561 -5.98288e-07 0)
(0.001 5.00073e-08 0)
(0.00100004 1.4997e-07 0)
(0.00100012 2.47585e-07 0)
(0.00100025 3.39595e-07 0)
(0.00100041 4.21566e-07 0)
(0.00100062 4.82652e-07 0)
(0.00100086 5.08143e-07 0)
(0.00100112 4.73204e-07 0)
(0.00100137 3.61606e-07 0)
(0.00100157 1.55693e-07 0)
(0.00100167 -1.17155e-07 0)
(0.00100161 -4.21607e-07 0)
(0.00100139 -6.81624e-07 0)
(0.00100104 -8.42087e-07 0)
(0.00100064 -8.50143e-07 0)
(0.00100022 -7.71018e-07 0)
(0.000999952 -6.38957e-07 0)
(0.000999691 -5.98556e-07 0)
(0.000999629 -5.62867e-07 0)
(0.000999388 -6.85143e-07 0)
(0.001 3.4412e-08 0)
(0.00100004 1.04582e-07 0)
(0.00100011 1.74919e-07 0)
(0.00100023 2.42459e-07 0)
(0.00100038 3.02444e-07 0)
(0.00100056 3.49367e-07 0)
(0.00100077 3.74896e-07 0)
(0.00100097 3.68455e-07 0)
(0.00100116 3.19443e-07 0)
(0.0010013 2.23344e-07 0)
(0.00100136 8.51078e-08 0)
(0.00100131 -7.14163e-08 0)
(0.00100115 -2.06593e-07 0)
(0.00100086 -2.97486e-07 0)
(0.00100054 -3.12594e-07 0)
(0.00100017 -2.82186e-07 0)
(0.000999902 -2.03708e-07 0)
(0.000999614 -1.7064e-07 0)
(0.000999518 -1.20277e-07 0)
(0.000999251 -1.98951e-07 0)
(0.001 -4.13646e-09 0)
(0.00100004 -1.00419e-08 0)
(0.00100012 -1.28998e-08 0)
(0.00100024 -1.44993e-08 0)
(0.00100038 -1.69648e-08 0)
(0.00100056 -2.2993e-08 0)
(0.00100075 -3.39821e-08 0)
(0.00100094 -5.36777e-08 0)
(0.00100112 -8.21321e-08 0)
(0.00100123 -1.22685e-07 0)
(0.00100128 -1.70764e-07 0)
(0.00100122 -2.3198e-07 0)
(0.00100107 -2.90786e-07 0)
(0.00100081 -3.41353e-07 0)
(0.00100053 -3.59748e-07 0)
(0.00100018 -3.6812e-07 0)
(0.000999946 -3.42823e-07 0)
(0.00099961 -3.53696e-07 0)
(0.000999523 -3.28699e-07 0)
(0.000999133 -4.10891e-07 0)
)
;

boundaryField
{
    sides
    {
        type            slip;
    }
    inlet
    {
        type            fixedValue;
        value           uniform (0.001 0 0);
    }
    outlet
    {
        type            zeroGradient;
    }
    frontAndBack
    {
        type            empty;
    }
}


// ************************************************************************* //
