/*--------------------------------*- C++ -*----------------------------------*\
  =========                 |
  \\      /  F ield         | OpenFOAM: The Open Source CFD Toolbox
   \\    /   O peration     | Website:  https://openfoam.org
    \\  /    A nd           | Version:  9
     \\/     M anipulation  |
\*---------------------------------------------------------------------------*/
FoamFile
{
    format      ascii;
    class       volVectorField;
    location    "77";
    object      hU_0;
}
// * * * * * * * * * * * * * * * * * * * * * * * * * * * * * * * * * * * * * //

dimensions      [0 2 -1 0 0 0 0];

internalField   nonuniform List<vector> 
400
(
(0.001 -2.44512e-08 0)
(0.00100004 -7.06818e-08 0)
(0.00100012 -1.13295e-07 0)
(0.00100024 -1.52268e-07 0)
(0.00100039 -1.87205e-07 0)
(0.00100058 -2.16864e-07 0)
(0.00100078 -2.37356e-07 0)
(0.00100099 -2.45806e-07 0)
(0.00100118 -2.36484e-07 0)
(0.00100133 -2.11091e-07 0)
(0.0010014 -1.67881e-07 0)
(0.0010014 -1.27938e-07 0)
(0.00100129 -9.83548e-08 0)
(0.00100111 -9.23684e-08 0)
(0.00100087 -9.89703e-08 0)
(0.00100065 -1.35007e-07 0)
(0.00100044 -1.56135e-07 0)
(0.00100034 -2.00857e-07 0)
(0.00100026 -1.88431e-07 0)
(0.00100033 -2.68441e-07 0)
(0.001 -2.70806e-08 0)
(0.00100005 -7.91124e-08 0)
(0.00100013 -1.28404e-07 0)
(0.00100026 -1.73937e-07 0)
(0.00100042 -2.1335e-07 0)
(0.00100062 -2.4083e-07 0)
(0.00100084 -2.46871e-07 0)
(0.00100108 -2.21123e-07 0)
(0.0010013 -1.54461e-07 0)
(0.00100147 -4.69003e-08 0)
(0.00100156 9.5155e-08 0)
(0.00100154 2.4938e-07 0)
(0.00100141 3.91119e-07 0)
(0.00100119 4.78377e-07 0)
(0.00100093 5.06879e-07 0)
(0.00100067 4.53501e-07 0)
(0.00100048 3.79676e-07 0)
(0.00100037 2.57794e-07 0)
(0.00100033 2.05297e-07 0)
(0.00100029 8.08928e-08 0)
(0.001 -5.26804e-08 0)
(0.00100004 -1.59402e-07 0)
(0.00100013 -2.67309e-07 0)
(0.00100026 -3.7409e-07 0)
(0.00100043 -4.74059e-07 0)
(0.00100064 -5.56243e-07 0)
(0.0010009 -6.04361e-07 0)
(0.00100117 -5.97624e-07 0)
(0.00100143 -5.17535e-07 0)
(0.00100164 -3.5021e-07 0)
(0.00100176 -1.08445e-07 0)
(0.00100176 1.64792e-07 0)
(0.00100159 4.03455e-07 0)
(0.00100131 5.21252e-07 0)
(0.00100095 5.01142e-07 0)
(0.00100062 3.5582e-07 0)
(0.00100037 2.05111e-07 0)
(0.00100026 4.74956e-08 0)
(0.00100022 -2.81925e-09 0)
(0.0010003 -1.17168e-07 0)
(0.001 -7.30977e-08 0)
(0.00100004 -2.22746e-07 0)
(0.00100013 -3.75933e-07 0)
(0.00100026 -5.31633e-07 0)
(0.00100045 -6.81446e-07 0)
(0.00100069 -8.10336e-07 0)
(0.001001 -8.88817e-07 0)
(0.00100134 -8.85138e-07 0)
(0.00100171 -7.55546e-07 0)
(0.00100203 -4.74377e-07 0)
(0.00100222 -2.14916e-08 0)
(0.00100219 4.9367e-07 0)
(0.00100192 9.37617e-07 0)
(0.00100146 1.13933e-06 0)
(0.00100097 1.05444e-06 0)
(0.00100058 7.4407e-07 0)
(0.00100041 4.25855e-07 0)
(0.00100035 1.72009e-07 0)
(0.0010004 1.02926e-07 0)
(0.00100035 4.54279e-10 0)
(0.001 -9.00925e-08 0)
(0.00100004 -2.78453e-07 0)
(0.00100012 -4.78533e-07 0)
(0.00100025 -6.95498e-07 0)
(0.00100044 -9.21346e-07 0)
(0.00100072 -1.13875e-06 0)
(0.0010011 -1.2978e-06 0)
(0.00100155 -1.33752e-06 0)
(0.00100207 -1.17571e-06 0)
(0.00100257 -7.79728e-07 0)
(0.0010029 -1.70146e-07 0)
(0.00100288 5.79062e-07 0)
(0.00100244 1.23024e-06 0)
(0.00100167 1.51046e-06 0)
(0.00100086 1.37357e-06 0)
(0.00100031 9.63969e-07 0)
(0.00100013 5.82261e-07 0)
(0.00100021 3.15601e-07 0)
(0.00100036 2.62453e-07 0)
(0.00100043 1.67754e-07 0)
(0.001 -1.02614e-07 0)
(0.00100003 -3.19073e-07 0)
(0.00100009 -5.6368e-07 0)
(0.00100019 -8.45868e-07 0)
(0.00100038 -1.17277e-06 0)
(0.00100068 -1.52404e-06 0)
(0.00100115 -1.85863e-06 0)
(0.00100179 -2.05476e-06 0)
(0.00100254 -1.91333e-06 0)
(0.00100326 -1.20019e-06 0)
(0.00100377 8.05815e-08 0)
(0.00100378 1.54282e-06 0)
(0.0010031 2.43337e-06 0)
(0.00100192 2.30353e-06 0)
(0.00100082 1.4286e-06 0)
(0.00100019 4.9126e-07 0)
(0.00100017 1.30007e-08 0)
(0.00100037 -8.5405e-08 0)
(0.00100064 5.95779e-08 0)
(0.00100055 4.94733e-08 0)
(0.001 -1.02542e-07 0)
(0.001 -3.34208e-07 0)
(0.00100002 -6.03067e-07 0)
(0.00100008 -9.62526e-07 0)
(0.00100021 -1.392e-06 0)
(0.00100048 -1.94564e-06 0)
(0.001001 -2.4894e-06 0)
(0.00100188 -3.08481e-06 0)
(0.00100321 -3.23448e-06 0)
(0.00100473 -2.87949e-06 0)
(0.00100574 -6.75636e-07 0)
(0.00100536 2.55335e-06 0)
(0.0010035 4.82881e-06 0)
(0.00100112 4.73656e-06 0)
(0.00099961 3.0278e-06 0)
(0.000999373 1.26339e-06 0)
(0.00100001 4.30746e-07 0)
(0.00100056 3.25961e-07 0)
(0.00100093 5.60777e-07 0)
(0.00100066 5.3315e-07 0)
(0.000999995 -9.30761e-08 0)
(0.000999968 -2.89477e-07 0)
(0.000999907 -5.77676e-07 0)
(0.000999876 -9.56919e-07 0)
(0.000999879 -1.57713e-06 0)
(0.0010001 -2.3448e-06 0)
(0.0010005 -3.403e-06 0)
(0.00100153 -4.12502e-06 0)
(0.00100308 -4.37267e-06 0)
(0.00100601 -2.55144e-06 0)
(0.00100909 7.61559e-07 0)
(0.00100915 4.26893e-06 0)
(0.00100551 4.7186e-06 0)
(0.00100074 2.78317e-06 0)
(0.00099815 7.36182e-07 0)
(0.000998275 -2.7402e-07 0)
(0.000999799 -2.85499e-07 0)
(0.00100088 -1.02242e-08 0)
(0.00100133 2.10999e-07 0)
(0.00100085 1.02162e-07 0)
(0.000999995 -4.97703e-08 0)
(0.000999915 -2.04229e-07 0)
(0.000999756 -3.8681e-07 0)
(0.000999531 -7.35054e-07 0)
(0.000999288 -1.33839e-06 0)
(0.000999211 -2.48153e-06 0)
(0.000999707 -4.68806e-06 0)
(0.00100139 -8.0682e-06 0)
(0.00100491 -1.32847e-05 0)
(0.00100958 -1.49143e-05 0)
(0.00101191 3.84955e-06 0)
(0.00100892 1.87308e-05 0)
(0.00100221 1.5781e-05 0)
(0.000997568 5.74276e-06 0)
(0.000996886 -3.14891e-07 0)
(0.000998461 -1.26242e-06 0)
(0.00100027 -9.39473e-08 0)
(0.001001 6.34567e-07 0)
(0.00100107 6.51497e-07 0)
(0.00100054 2.43574e-07 0)
(0.000999804 -1.99327e-08 0)
(0.00100017 -6.65804e-08 0)
(0.000999216 -1.51351e-07 0)
(0.000999905 -2.48798e-07 0)
(0.000997521 -5.92263e-07 0)
(0.000998843 -1.1313e-06 0)
(0.000993347 -2.88368e-06 0)
(0.000997532 -5.59236e-06 0)
(0.000991667 -1.15417e-05 0)
(0.000915835 -1.27052e-05 0)
(0.000951467 2.66255e-07 0)
(0.00101022 1.46354e-05 0)
(0.000990954 1.30845e-05 0)
(0.000983976 5.14119e-06 0)
(0.000989586 1.94542e-07 0)
(0.00099628 -7.81149e-07 0)
(0.000999236 -1.11328e-07 0)
(0.000999413 2.48649e-07 0)
(0.000998649 1.74662e-07 0)
(0.000998506 -1.84707e-07 0)
(0.000999804 1.33509e-08 0)
(0.00100017 4.64107e-08 0)
(0.000999216 1.17837e-07 0)
(0.000999903 1.99968e-07 0)
(0.000997519 5.29305e-07 0)
(0.000998838 1.05168e-06 0)
(0.000993339 2.78685e-06 0)
(0.00099752 5.47358e-06 0)
(0.000991651 1.13964e-05 0)
(0.000915809 1.25474e-05 0)
(0.000951427 -4.77098e-07 0)
(0.00101021 -1.49112e-05 0)
(0.000990949 -1.34099e-05 0)
(0.000983968 -5.53692e-06 0)
(0.000989567 -6.49035e-07 0)
(0.000996242 2.47803e-07 0)
(0.000999195 -4.7226e-07 0)
(0.000999368 -1.00177e-06 0)
(0.000998635 -9.87688e-07 0)
(0.000998456 -8.88357e-07 0)
(0.000999995 4.31117e-08 0)
(0.000999915 1.84545e-07 0)
(0.000999755 3.54084e-07 0)
(0.000999531 6.87677e-07 0)
(0.000999286 1.27657e-06 0)
(0.00099921 2.40171e-06 0)
(0.000999702 4.58965e-06 0)
(0.00100139 7.94222e-06 0)
(0.0010049 1.31312e-05 0)
(0.00100958 1.47192e-05 0)
(0.00101188 -4.06326e-06 0)
(0.0010089 -1.90012e-05 0)
(0.00100215 -1.60963e-05 0)
(0.00099748 -6.12423e-06 0)
(0.000996815 -8.60009e-08 0)
(0.000998401 7.74275e-07 0)
(0.00100017 -4.27446e-07 0)
(0.00100085 -1.30447e-06 0)
(0.00100088 -1.3782e-06 0)
(0.00100037 -1.25032e-06 0)
(0.000999996 8.66113e-08 0)
(0.000999968 2.70677e-07 0)
(0.000999906 5.45751e-07 0)
(0.000999872 9.10987e-07 0)
(0.000999871 1.5139e-06 0)
(0.00100008 2.26139e-06 0)
(0.00100048 3.29404e-06 0)
(0.00100149 3.99112e-06 0)
(0.00100303 4.21083e-06 0)
(0.00100594 2.3665e-06 0)
(0.00100902 -9.75237e-07 0)
(0.00100906 -4.53547e-06 0)
(0.00100542 -5.01932e-06 0)
(0.00100066 -3.13033e-06 0)
(0.000998058 -1.13238e-06 0)
(0.000998136 -2.51948e-07 0)
(0.000999624 -3.22795e-07 0)
(0.00100064 -7.4097e-07 0)
(0.00100106 -9.66053e-07 0)
(0.00100055 -1.07337e-06 0)
(0.001 9.66989e-08 0)
(0.001 3.16223e-07 0)
(0.00100002 5.72708e-07 0)
(0.00100007 9.18496e-07 0)
(0.0010002 1.33379e-06 0)
(0.00100046 1.87047e-06 0)
(0.00100097 2.39869e-06 0)
(0.00100185 2.97602e-06 0)
(0.00100318 3.11234e-06 0)
(0.00100469 2.7314e-06 0)
(0.00100568 5.07739e-07 0)
(0.00100527 -2.75613e-06 0)
(0.00100338 -5.07748e-06 0)
(0.00100096 -5.07025e-06 0)
(0.00099941 -3.44857e-06 0)
(0.000999124 -1.79345e-06 0)
(0.000999747 -1.02079e-06 0)
(0.00100026 -1.05867e-06 0)
(0.00100062 -1.30589e-06 0)
(0.00100024 -1.51493e-06 0)
(0.001 9.76797e-08 0)
(0.00100003 3.03186e-07 0)
(0.00100008 5.36642e-07 0)
(0.00100019 8.06603e-07 0)
(0.00100036 1.12135e-06 0)
(0.00100066 1.4585e-06 0)
(0.00100112 1.77792e-06 0)
(0.00100174 1.95217e-06 0)
(0.00100248 1.78428e-06 0)
(0.00100317 1.0356e-06 0)
(0.00100366 -2.81914e-07 0)
(0.00100363 -1.78254e-06 0)
(0.00100292 -2.71015e-06 0)
(0.00100171 -2.63034e-06 0)
(0.00100058 -1.77724e-06 0)
(0.000999906 -8.943e-07 0)
(0.00099986 -4.2694e-07 0)
(0.000999983 -4.47645e-07 0)
(0.00100022 -6.1531e-07 0)
(0.00100001 -8.47982e-07 0)
(0.001 8.5744e-08 0)
(0.00100004 2.64761e-07 0)
(0.00100011 4.55342e-07 0)
(0.00100024 6.62254e-07 0)
(0.00100043 8.77284e-07 0)
(0.0010007 1.08334e-06 0)
(0.00100106 1.2295e-06 0)
(0.0010015 1.25388e-06 0)
(0.001002 1.07546e-06 0)
(0.00100248 6.57794e-07 0)
(0.0010028 1.83056e-08 0)
(0.00100275 -7.70202e-07 0)
(0.00100228 -1.4491e-06 0)
(0.00100146 -1.77271e-06 0)
(0.00100062 -1.66653e-06 0)
(0.00100001 -1.34734e-06 0)
(0.000999796 -1.02945e-06 0)
(0.000999767 -9.37178e-07 0)
(0.000999885 -9.44753e-07 0)
(0.000999767 -1.10805e-06 0)
(0.001 6.90685e-08 0)
(0.00100004 2.10167e-07 0)
(0.00100012 3.5499e-07 0)
(0.00100025 5.02045e-07 0)
(0.00100043 6.43748e-07 0)
(0.00100066 7.64825e-07 0)
(0.00100096 8.37164e-07 0)
(0.00100129 8.26435e-07 0)
(0.00100163 6.92414e-07 0)
(0.00100191 4.06821e-07 0)
(0.00100206 -4.70678e-08 0)
(0.001002 -5.76221e-07 0)
(0.00100171 -1.03507e-06 0)
(0.0010012 -1.2804e-06 0)
(0.00100065 -1.2289e-06 0)
(0.00100016 -9.94185e-07 0)
(0.000999916 -7.02587e-07 0)
(0.000999742 -5.57792e-07 0)
(0.000999753 -4.87676e-07 0)
(0.000999561 -5.98371e-07 0)
(0.001 5.05317e-08 0)
(0.00100004 1.50049e-07 0)
(0.00100012 2.47221e-07 0)
(0.00100025 3.39366e-07 0)
(0.00100041 4.21707e-07 0)
(0.00100062 4.8291e-07 0)
(0.00100086 5.08516e-07 0)
(0.00100112 4.73589e-07 0)
(0.00100137 3.61747e-07 0)
(0.00100157 1.55519e-07 0)
(0.00100167 -1.1763e-07 0)
(0.00100161 -4.22047e-07 0)
(0.00100139 -6.81832e-07 0)
(0.00100104 -8.42331e-07 0)
(0.00100064 -8.50566e-07 0)
(0.00100022 -7.7147e-07 0)
(0.000999952 -6.39169e-07 0)
(0.000999691 -5.9852e-07 0)
(0.000999629 -5.62931e-07 0)
(0.000999388 -6.85252e-07 0)
(0.001 3.48905e-08 0)
(0.00100004 1.04686e-07 0)
(0.00100011 1.7443e-07 0)
(0.00100023 2.42031e-07 0)
(0.00100038 3.02583e-07 0)
(0.00100056 3.49863e-07 0)
(0.00100077 3.75422e-07 0)
(0.00100097 3.69016e-07 0)
(0.00100116 3.19754e-07 0)
(0.0010013 2.23391e-07 0)
(0.00100136 8.48889e-08 0)
(0.00100131 -7.17598e-08 0)
(0.00100115 -2.06933e-07 0)
(0.00100086 -2.97843e-07 0)
(0.00100054 -3.1302e-07 0)
(0.00100017 -2.82759e-07 0)
(0.000999902 -2.04099e-07 0)
(0.000999614 -1.70639e-07 0)
(0.000999518 -1.20272e-07 0)
(0.000999252 -1.99028e-07 0)
(0.001 -3.95077e-09 0)
(0.00100004 -9.98648e-09 0)
(0.00100012 -1.31155e-08 0)
(0.00100024 -1.47232e-08 0)
(0.00100039 -1.69196e-08 0)
(0.00100056 -2.27479e-08 0)
(0.00100075 -3.37096e-08 0)
(0.00100094 -5.34068e-08 0)
(0.00100112 -8.19373e-08 0)
(0.00100123 -1.2259e-07 0)
(0.00100128 -1.70748e-07 0)
(0.00100122 -2.32022e-07 0)
(0.00100107 -2.90907e-07 0)
(0.00100081 -3.41488e-07 0)
(0.00100053 -3.59921e-07 0)
(0.00100018 -3.68384e-07 0)
(0.000999947 -3.43006e-07 0)
(0.00099961 -3.53671e-07 0)
(0.000999524 -3.28647e-07 0)
(0.000999134 -4.10905e-07 0)
)
;

boundaryField
{
    sides
    {
        type            slip;
    }
    inlet
    {
        type            fixedValue;
        value           uniform (0.001 0 0);
    }
    outlet
    {
        type            zeroGradient;
    }
    frontAndBack
    {
        type            empty;
    }
}


// ************************************************************************* //
