/*--------------------------------*- C++ -*----------------------------------*\
  =========                 |
  \\      /  F ield         | OpenFOAM: The Open Source CFD Toolbox
   \\    /   O peration     | Website:  https://openfoam.org
    \\  /    A nd           | Version:  9
     \\/     M anipulation  |
\*---------------------------------------------------------------------------*/
FoamFile
{
    format      ascii;
    class       surfaceScalarField;
    location    "77";
    object      phi_0;
}
// * * * * * * * * * * * * * * * * * * * * * * * * * * * * * * * * * * * * * //

dimensions      [0 4 -1 0 0 0 0];

internalField   nonuniform List<scalar> 
760
(
5.00009e-06
-9.48764e-11
5.0004e-06
-3.07176e-10
5.00091e-06
-5.12643e-10
5.00162e-06
-7.03755e-10
5.0025e-06
-8.74361e-10
5.0035e-06
-1.00523e-09
5.00455e-06
-1.06383e-09
5.00557e-06
-1.01705e-09
5.0064e-06
-8.31574e-10
5.00693e-06
-5.21164e-10
5.00705e-06
-1.19635e-10
5.00666e-06
4.02553e-10
5.0058e-06
8.60407e-10
5.0047e-06
1.10988e-09
5.00353e-06
1.17889e-09
5.00258e-06
9.5807e-10
5.00186e-06
7.18356e-10
5.00162e-06
2.46152e-10
5.00152e-06
1.05334e-10
-3.92076e-10
5.00012e-06
-2.15727e-10
5.00045e-06
-6.35101e-10
5.00098e-06
-1.04614e-09
5.00172e-06
-1.44357e-09
5.00265e-06
-1.80765e-09
5.00374e-06
-2.0978e-09
5.00493e-06
-2.25146e-09
5.00611e-06
-2.19393e-09
5.00713e-06
-1.8495e-09
5.00778e-06
-1.16266e-09
5.00775e-06
-8.69771e-11
5.00726e-06
8.96885e-10
5.00627e-06
1.85035e-09
5.00496e-06
2.4226e-09
5.00369e-06
2.45421e-09
5.00278e-06
1.86645e-09
5.00225e-06
1.25058e-09
5.00192e-06
5.8256e-10
5.00166e-06
3.67738e-10
-1.49433e-10
5.00011e-06
-3.2158e-10
5.00043e-06
-9.54333e-10
5.00096e-06
-1.57999e-09
5.00172e-06
-2.20989e-09
5.00272e-06
-2.80974e-09
5.00394e-06
-3.31887e-09
5.00532e-06
-3.62505e-09
5.00673e-06
-3.58847e-09
5.00793e-06
-3.05743e-09
5.00873e-06
-1.95347e-09
5.00894e-06
-3.03824e-10
5.00826e-06
1.57497e-09
5.00688e-06
3.22911e-09
5.00516e-06
4.13143e-09
5.00351e-06
4.09365e-09
5.00231e-06
3.06229e-09
5.00166e-06
1.89748e-09
5.00148e-06
7.74928e-10
5.00145e-06
3.9754e-10
-2.22278e-10
5.0001e-06
-4.17699e-10
5.00041e-06
-1.26372e-09
5.00095e-06
-2.11915e-09
5.00175e-06
-3.01628e-09
5.00285e-06
-3.91621e-09
5.00429e-06
-4.74768e-09
5.00602e-06
-5.34475e-09
5.00795e-06
-5.52557e-09
5.00985e-06
-4.95096e-09
5.01107e-06
-3.19744e-09
5.01121e-06
-4.2441e-10
5.01e-06
2.76844e-09
5.00765e-06
5.56789e-09
5.00515e-06
6.6309e-09
5.00348e-06
5.75291e-09
5.0027e-06
3.82665e-09
5.00248e-06
2.11605e-09
5.00231e-06
9.43302e-10
5.002e-06
7.11812e-10
3.39075e-10
5.00008e-06
-4.98189e-10
5.00034e-06
-1.52316e-09
5.00083e-06
-2.61474e-09
5.00163e-06
-3.81832e-09
5.00286e-06
-5.13504e-09
5.00458e-06
-6.45908e-09
5.0068e-06
-7.56829e-09
5.00942e-06
-8.1525e-09
5.01239e-06
-7.92201e-09
5.01479e-06
-5.60128e-09
5.01482e-06
-4.81336e-10
5.01286e-06
4.75436e-09
5.00867e-06
9.73775e-09
5.0046e-06
1.07065e-08
5.00225e-06
8.11017e-09
5.00175e-06
4.31865e-09
5.00205e-06
1.80802e-09
5.00226e-06
7.29371e-10
5.00201e-06
9.52056e-10
6.26066e-10
5.00004e-06
-5.42307e-10
5.0002e-06
-1.68058e-09
5.00054e-06
-2.95399e-09
5.00121e-06
-4.48708e-09
5.00241e-06
-6.33041e-09
5.00453e-06
-8.57097e-09
5.0076e-06
-1.06521e-08
5.01168e-06
-1.22202e-08
5.01552e-06
-1.1788e-08
5.01902e-06
-9.05931e-09
5.02021e-06
-1.70288e-09
5.01602e-06
8.94437e-09
5.00951e-06
1.62642e-08
5.00422e-06
1.60025e-08
5.00218e-06
1.01547e-08
5.0025e-06
3.99735e-09
5.00328e-06
1.03132e-09
5.0034e-06
5.99324e-10
5.0028e-06
1.54486e-09
1.42054e-09
4.99998e-06
-5.26387e-10
4.99994e-06
-1.63937e-09
5.00003e-06
-3.04375e-09
5.00036e-06
-4.81318e-09
5.00122e-06
-7.18946e-09
5.00293e-06
-1.02748e-08
5.0068e-06
-1.45339e-08
5.01392e-06
-1.93419e-08
5.02377e-06
-2.15988e-08
5.0309e-06
-1.62609e-08
5.02877e-06
6.0585e-10
5.01674e-06
2.09151e-08
5.00418e-06
2.88118e-08
4.99874e-06
2.14641e-08
5.00058e-06
8.31818e-09
5.00286e-06
1.73043e-09
5.00372e-06
1.64159e-10
5.00367e-06
6.52157e-10
5.00305e-06
2.1604e-09
1.67913e-09
4.99986e-06
-3.93833e-10
4.99955e-06
-1.32453e-09
4.99913e-06
-2.61422e-09
4.99886e-06
-4.54252e-09
4.99933e-06
-7.66526e-09
5.00036e-06
-1.13055e-08
5.00365e-06
-1.78269e-08
5.00983e-06
-2.55077e-08
5.02489e-06
-3.66721e-08
5.05606e-06
-4.74835e-08
5.05005e-06
6.33941e-09
5.02321e-06
4.78556e-08
4.99818e-06
5.38129e-08
4.99349e-06
2.61421e-08
4.99947e-06
2.35077e-09
5.00408e-06
-2.87314e-09
5.00491e-06
-6.67099e-10
5.00373e-06
1.83658e-09
5.00351e-06
2.37969e-09
9.68446e-10
4.99977e-06
-1.6051e-10
4.99915e-06
-7.06339e-10
4.99792e-06
-1.38003e-09
4.99611e-06
-2.73246e-09
4.99402e-06
-5.57691e-09
4.99374e-06
-1.10272e-08
4.99945e-06
-2.35342e-08
5.01714e-06
-4.3198e-08
5.0557e-06
-7.52191e-08
5.0669e-06
-5.86211e-08
5.04973e-06
2.3767e-08
4.99647e-06
1.00994e-07
4.98931e-06
6.10012e-08
4.99591e-06
1.95397e-08
5.00019e-06
-1.93005e-09
5.00293e-06
-5.61307e-09
5.00252e-06
-2.42163e-10
5.00184e-06
2.51842e-09
5.00255e-06
1.67962e-09
8.35029e-11
4.99986e-06
-1.58565e-11
4.99921e-06
-5.01679e-11
4.99791e-06
-8.53956e-11
4.99531e-06
-1.2821e-10
4.9899e-06
-1.68244e-10
4.97909e-06
-2.16852e-10
4.95583e-06
-2.68023e-10
4.91297e-06
-3.30288e-10
4.83812e-06
-4.1681e-10
4.78002e-06
-4.43928e-10
4.80425e-06
-6.54108e-10
4.90605e-06
-7.36686e-10
4.9678e-06
-7.45284e-10
4.98823e-06
-9.06412e-10
4.98745e-06
-1.1641e-09
4.98326e-06
-1.42737e-09
4.98456e-06
-1.55719e-09
4.98891e-06
-1.82571e-09
4.99248e-06
-1.89267e-09
-2.58432e-09
4.99986e-06
1.27982e-10
4.99921e-06
6.04441e-10
4.99791e-06
1.21395e-09
4.9953e-06
2.48361e-09
4.98988e-06
5.25077e-09
4.97905e-06
1.0604e-08
4.95578e-06
2.30147e-08
4.9129e-06
4.25406e-08
4.83804e-06
7.44557e-08
4.77972e-06
5.78096e-08
4.80427e-06
-2.49985e-08
4.90601e-06
-1.02492e-07
4.96778e-06
-6.25315e-08
4.98807e-06
-2.12076e-08
4.98735e-06
-4.59662e-10
4.98293e-06
2.9923e-09
4.98443e-06
-3.05291e-09
4.98889e-06
-6.2838e-09
4.99236e-06
-5.35436e-09
-4.98273e-09
4.99977e-06
3.59868e-10
4.99915e-06
1.22563e-09
4.99792e-06
2.4472e-09
4.9961e-06
4.29973e-09
4.99402e-06
7.33477e-09
4.99373e-06
1.08873e-08
4.99943e-06
1.73181e-08
5.01708e-06
2.4891e-08
5.05561e-06
3.59124e-08
5.06709e-06
4.64164e-08
5.04946e-06
-8.8171e-09
4.99613e-06
-4.90365e-08
4.98886e-06
-5.52511e-08
4.9957e-06
-2.8046e-08
5.0001e-06
-4.87123e-09
5.00232e-06
7.86136e-10
5.00166e-06
-2.3933e-09
5.00091e-06
-5.53363e-09
5.00169e-06
-6.13405e-09
-5.95016e-09
4.99987e-06
4.93902e-10
4.99955e-06
1.54409e-09
4.99911e-06
2.88434e-09
4.99883e-06
4.5833e-09
4.99928e-06
6.88986e-09
5.00027e-06
9.892e-09
5.00347e-06
1.41047e-08
5.0096e-06
1.8772e-08
5.02461e-06
2.09177e-08
5.05557e-06
1.53894e-08
5.04979e-06
-1.56504e-09
5.0228e-06
-2.21942e-08
4.99786e-06
-3.03123e-08
4.99316e-06
-2.33376e-08
4.99864e-06
-1.03463e-08
5.00346e-06
-4.02066e-09
5.00374e-06
-2.67171e-09
5.00236e-06
-4.16112e-09
5.00217e-06
-5.94136e-09
-6.53413e-09
4.99998e-06
5.14712e-10
4.99993e-06
1.59409e-09
5e-06
2.80856e-09
5.00031e-06
4.2804e-09
5.00114e-06
6.06407e-09
5.0028e-06
8.2296e-09
5.00668e-06
1.02173e-08
5.01378e-06
1.16721e-08
5.02358e-06
1.11296e-08
5.03073e-06
8.27891e-09
5.02837e-06
5.97065e-10
5.01625e-06
-1.00383e-08
5.00349e-06
-1.75615e-08
4.99777e-06
-1.76078e-08
4.99942e-06
-1.19797e-08
5.00162e-06
-6.21388e-09
5.00241e-06
-3.46584e-09
5.00214e-06
-3.89008e-09
5.0012e-06
-5.0047e-09
-5.9755e-09
5.00004e-06
4.75737e-10
5.00018e-06
1.44957e-09
5.0005e-06
2.48805e-09
5.00115e-06
3.63386e-09
5.00232e-06
4.89285e-09
5.0044e-06
6.15406e-09
5.00742e-06
7.19559e-09
5.01139e-06
7.69337e-09
5.01514e-06
7.39676e-09
5.01853e-06
4.88286e-09
5.01956e-06
-4.08878e-10
5.01523e-06
-5.70471e-09
5.00854e-06
-1.08677e-08
5.00312e-06
-1.21708e-08
5.00089e-06
-9.74556e-09
5.00102e-06
-6.34483e-09
5.00156e-06
-4.011e-09
5.00132e-06
-3.65342e-09
5.00035e-06
-4.04304e-09
-4.97554e-09
5.00008e-06
3.97219e-10
5.00032e-06
1.20299e-09
5.00079e-06
2.01716e-09
5.00157e-06
2.8618e-09
5.00275e-06
3.71044e-09
5.00441e-06
4.4943e-09
5.00656e-06
5.04831e-09
5.0091e-06
5.15562e-09
5.01203e-06
4.45914e-09
5.01441e-06
2.51419e-09
5.01415e-06
-1.39884e-10
5.01208e-06
-3.63906e-09
5.00776e-06
-6.53446e-09
5.0035e-06
-7.90609e-09
5.00093e-06
-7.18657e-09
5.00014e-06
-5.55031e-09
5.00011e-06
-3.98725e-09
4.99988e-06
-3.42572e-09
4.99917e-06
-3.34174e-09
-4.17208e-09
5.0001e-06
2.99396e-10
5.0004e-06
9.0326e-10
5.0009e-06
1.50411e-09
5.00167e-06
2.09544e-09
5.00274e-06
2.65074e-09
5.00412e-06
3.11123e-09
5.00579e-06
3.38204e-09
5.00763e-06
3.31236e-09
5.00933e-06
2.75667e-09
5.01027e-06
1.57143e-09
5.01043e-06
-3.05343e-10
5.00903e-06
-2.23796e-09
5.00651e-06
-4.00991e-09
5.00368e-06
-5.08006e-09
5.00155e-06
-5.06061e-09
5.00035e-06
-4.35563e-09
4.99971e-06
-3.34774e-09
4.99917e-06
-2.89322e-09
4.99845e-06
-2.62986e-09
-3.21774e-09
5.0001e-06
1.98135e-10
5.00041e-06
5.93051e-10
5.00092e-06
9.84795e-10
5.00166e-06
1.36156e-09
5.00262e-06
1.69865e-09
5.00378e-06
1.95239e-09
5.0051e-06
2.06711e-09
5.00645e-06
1.95637e-09
5.00765e-06
1.55512e-09
5.00839e-06
8.26072e-10
5.00822e-06
-1.34588e-10
5.00734e-06
-1.36324e-09
5.00571e-06
-2.37857e-09
5.00369e-06
-3.0662e-09
5.0018e-06
-3.17191e-09
5.00034e-06
-2.90093e-09
4.99932e-06
-2.32997e-09
4.99852e-06
-2.10152e-09
4.99773e-06
-1.84041e-09
-2.28216e-09
5.00008e-06
1.1457e-10
5.00037e-06
3.03148e-10
5.00087e-06
4.91944e-10
5.00155e-06
6.76227e-10
5.00241e-06
8.37169e-10
5.00342e-06
9.51475e-10
5.00449e-06
9.95436e-10
5.00551e-06
9.33929e-10
5.00633e-06
7.33461e-10
5.0068e-06
3.57185e-10
5.00681e-06
-1.45861e-10
5.00608e-06
-6.32979e-10
5.00479e-06
-1.09409e-09
5.00316e-06
-1.42998e-09
5.00149e-06
-1.5025e-09
5.00003e-06
-1.43986e-09
4.99888e-06
-1.19011e-09
4.99793e-06
-1.14007e-09
4.99707e-06
-9.82635e-10
-1.42814e-09
5.00011e-06
5.00042e-06
5.00091e-06
5.00159e-06
5.00242e-06
5.00337e-06
5.00436e-06
5.0053e-06
5.00603e-06
5.0064e-06
5.00626e-06
5.00563e-06
5.00453e-06
5.00311e-06
5.00161e-06
5.00017e-06
4.99898e-06
4.99785e-06
4.99688e-06
)
;

boundaryField
{
    sides
    {
        type            calculated;
        value           uniform 0;
    }
    inlet
    {
        type            calculated;
        value           nonuniform List<scalar> 
20
(
-5e-06
-5e-06
-5e-06
-5e-06
-5e-06
-5e-06
-5e-06
-5e-06
-5e-06
-5e-06
-5e-06
-5e-06
-5e-06
-5e-06
-5e-06
-5e-06
-5e-06
-5e-06
-5e-06
-5e-06
)
;
    }
    outlet
    {
        type            calculated;
        value           nonuniform List<scalar> 
20
(
5.00191e-06
5.00141e-06
5.00152e-06
5.00143e-06
5.00172e-06
5.002e-06
5.00279e-06
5.00423e-06
5.00345e-06
4.99515e-06
4.99475e-06
5.00266e-06
5.00275e-06
5.00064e-06
4.99935e-06
4.99836e-06
4.99749e-06
4.99679e-06
4.99622e-06
4.99546e-06
)
;
    }
    frontAndBack
    {
        type            empty;
        value           nonuniform List<scalar> 0();
    }
}


// ************************************************************************* //
