/*--------------------------------*- C++ -*----------------------------------*\
  =========                 |
  \\      /  F ield         | OpenFOAM: The Open Source CFD Toolbox
   \\    /   O peration     | Website:  https://openfoam.org
    \\  /    A nd           | Version:  9
     \\/     M anipulation  |
\*---------------------------------------------------------------------------*/
FoamFile
{
    format      ascii;
    class       volVectorField;
    location    "77";
    object      U;
}
// * * * * * * * * * * * * * * * * * * * * * * * * * * * * * * * * * * * * * //

dimensions      [0 1 -1 0 0 0 0];

internalField   nonuniform List<vector> 
400
(
(0.0999964 -2.44119e-06 0)
(0.100001 -7.0667e-06 0)
(0.100009 -1.13256e-05 0)
(0.100023 -1.52341e-05 0)
(0.10004 -1.87342e-05 0)
(0.100061 -2.16956e-05 0)
(0.100083 -2.37275e-05 0)
(0.100107 -2.45538e-05 0)
(0.100128 -2.36181e-05 0)
(0.100144 -2.10816e-05 0)
(0.100153 -1.67703e-05 0)
(0.100152 -1.27765e-05 0)
(0.10014 -9.83403e-06 0)
(0.10012 -9.2325e-06 0)
(0.100093 -9.88914e-06 0)
(0.100068 -1.34905e-05 0)
(0.100045 -1.55926e-05 0)
(0.100034 -2.00483e-05 0)
(0.100025 -1.88098e-05 0)
(0.100033 -2.68285e-05 0)
(0.099997 -2.68366e-06 0)
(0.100002 -7.89914e-06 0)
(0.100011 -1.28382e-05 0)
(0.100025 -1.74187e-05 0)
(0.100044 -2.13676e-05 0)
(0.100066 -2.40903e-05 0)
(0.100091 -2.46491e-05 0)
(0.100117 -2.20293e-05 0)
(0.100141 -1.53922e-05 0)
(0.100161 -4.63607e-06 0)
(0.100171 9.5231e-06 0)
(0.100169 2.49463e-05 0)
(0.100154 3.91158e-05 0)
(0.100129 4.78189e-05 0)
(0.1001 5.06813e-05 0)
(0.100071 4.53618e-05 0)
(0.100051 3.80086e-05 0)
(0.100037 2.58615e-05 0)
(0.100033 2.0608e-05 0)
(0.100029 8.11705e-06 0)
(0.0999968 -5.22903e-06 0)
(0.100002 -1.59165e-05 0)
(0.100011 -2.6737e-05 0)
(0.100025 -3.74397e-05 0)
(0.100044 -4.74284e-05 0)
(0.100068 -5.56042e-05 0)
(0.100097 -6.03619e-05 0)
(0.100127 -5.96979e-05 0)
(0.100156 -5.17352e-05 0)
(0.10018 -3.50403e-05 0)
(0.100193 -1.08504e-05 0)
(0.100192 1.63983e-05 0)
(0.100174 4.03262e-05 0)
(0.100142 5.20804e-05 0)
(0.100102 5.00497e-05 0)
(0.100066 3.55471e-05 0)
(0.100038 2.05248e-05 0)
(0.100026 4.80503e-06 0)
(0.100021 -2.27846e-07 0)
(0.100029 -1.16997e-05 0)
(0.0999963 -7.2876e-06 0)
(0.100001 -2.22545e-05 0)
(0.10001 -3.75973e-05 0)
(0.100025 -5.31737e-05 0)
(0.100046 -6.81333e-05 0)
(0.100073 -8.09856e-05 0)
(0.100107 -8.88271e-05 0)
(0.100146 -8.85615e-05 0)
(0.100186 -7.55545e-05 0)
(0.100222 -4.75321e-05 0)
(0.100243 -2.19533e-06 0)
(0.10024 4.93384e-05 0)
(0.100211 9.37083e-05 0)
(0.100159 0.000113944 0)
(0.100104 0.00010541 0)
(0.100061 7.43419e-05 0)
(0.100041 4.25567e-05 0)
(0.100035 1.72081e-05 0)
(0.10004 1.02986e-05 0)
(0.100035 4.47392e-08 0)
(0.0999953 -9.01208e-06 0)
(0.0999994 -2.78353e-05 0)
(0.100008 -4.78417e-05 0)
(0.100023 -6.95298e-05 0)
(0.100045 -9.21019e-05 0)
(0.100076 -0.000113835 0)
(0.100117 -0.000129828 0)
(0.100168 -0.000133807 0)
(0.100225 -0.000117641 0)
(0.100281 -7.79519e-05 0)
(0.100318 -1.71233e-05 0)
(0.100316 5.79781e-05 0)
(0.100267 0.000123074 0)
(0.100182 0.000151083 0)
(0.100091 0.000137394 0)
(0.100029 9.63799e-05 0)
(0.10001 5.81864e-05 0)
(0.100019 3.15246e-05 0)
(0.100036 2.62147e-05 0)
(0.100043 1.67575e-05 0)
(0.0999939 -1.02763e-05 0)
(0.0999967 -3.18981e-05 0)
(0.100003 -5.63371e-05 0)
(0.100015 -8.45528e-05 0)
(0.100036 -0.000117254 0)
(0.10007 -0.000152423 0)
(0.100122 -0.000185936 0)
(0.100193 -0.00020552 0)
(0.100277 -0.000191377 0)
(0.100357 -0.000120078 0)
(0.100414 8.23797e-06 0)
(0.100415 0.000154213 0)
(0.100339 0.000243496 0)
(0.100208 0.000230456 0)
(0.100085 0.00014291 0)
(0.100015 4.91575e-05 0)
(0.100013 1.29384e-06 0)
(0.100035 -8.57342e-06 0)
(0.100065 5.92608e-06 0)
(0.100055 4.93135e-06 0)
(0.0999923 -1.02687e-05 0)
(0.0999927 -3.34032e-05 0)
(0.0999948 -6.0265e-05 0)
(0.100001 -9.62258e-05 0)
(0.100016 -0.000139207 0)
(0.100046 -0.000194602 0)
(0.100103 -0.000248965 0)
(0.100202 -0.000308509 0)
(0.10035 -0.000323479 0)
(0.100519 -0.000288345 0)
(0.100632 -6.70364e-05 0)
(0.100591 0.000255443 0)
(0.100383 0.000482963 0)
(0.100118 0.000473733 0)
(0.0999479 0.000302793 0)
(0.0999221 0.000126358 0)
(0.0999928 4.30913e-05 0)
(0.100056 3.26045e-05 0)
(0.100095 5.60853e-05 0)
(0.100067 5.33177e-05 0)
(0.0999904 -9.318e-06 0)
(0.0999873 -2.89275e-05 0)
(0.0999807 -5.77314e-05 0)
(0.099977 -9.56748e-05 0)
(0.0999775 -0.000157725 0)
(0.100001 -0.000234488 0)
(0.100047 -0.000340255 0)
(0.10016 -0.000412474 0)
(0.100334 -0.000437393 0)
(0.100659 -0.000254974 0)
(0.101006 7.56242e-05 0)
(0.101013 0.000427531 0)
(0.100606 0.00047223 0)
(0.100072 0.000278285 0)
(0.099782 7.35864e-05 0)
(0.0997969 -2.73743e-05 0)
(0.0999673 -2.85083e-05 0)
(0.100089 -9.85786e-07 0)
(0.100138 2.11312e-05 0)
(0.100087 1.02304e-05 0)
(0.0999894 -4.9832e-06 0)
(0.0999805 -2.0413e-05 0)
(0.0999629 -3.86659e-05 0)
(0.0999378 -7.34937e-05 0)
(0.0999106 -0.000133827 0)
(0.0999019 -0.000248117 0)
(0.0999568 -0.000468685 0)
(0.100145 -0.0008068 0)
(0.100537 -0.00132911 0)
(0.101062 -0.00149271 0)
(0.101323 0.000384805 0)
(0.100997 0.00187518 0)
(0.100241 0.00157846 0)
(0.0997201 0.000574002 0)
(0.0996446 -3.15246e-05 0)
(0.099822 -0.00012622 0)
(0.100024 -9.38966e-06 0)
(0.100107 6.3476e-05 0)
(0.100113 6.51757e-05 0)
(0.100056 2.43649e-05 0)
(0.0999702 -1.99525e-06 0)
(0.100006 -6.66333e-06 0)
(0.0999078 -1.5145e-05 0)
(0.0999717 -2.48742e-05 0)
(0.0997258 -5.91994e-05 0)
(0.099844 -0.000113081 0)
(0.0992767 -0.000288181 0)
(0.0996753 -0.000558781 0)
(0.0991182 -0.00115362 0)
(0.102003 -0.00141546 0)
(0.106281 3.04907e-05 0)
(0.101267 0.00146695 0)
(0.0990078 0.00130712 0)
(0.0982227 0.000513163 0)
(0.0988555 1.94179e-05 0)
(0.0996051 -7.81039e-05 0)
(0.0999351 -1.11642e-05 0)
(0.0999523 2.4837e-05 0)
(0.0998671 1.74512e-05 0)
(0.0998491 -1.84754e-05 0)
(0.0999709 1.33856e-06 0)
(0.100006 4.62859e-06 0)
(0.0999084 1.17591e-05 0)
(0.0999723 1.99902e-05 0)
(0.0997262 5.29437e-05 0)
(0.0998441 0.000105139 0)
(0.0992764 0.000278499 0)
(0.0996746 0.000546898 0)
(0.0991169 0.00113904 0)
(0.102001 0.00139739 0)
(0.106277 -5.33943e-05 0)
(0.101265 -0.0014948 0)
(0.0990083 -0.00133983 0)
(0.0982225 -0.000552703 0)
(0.098854 -6.48299e-05 0)
(0.0996016 2.477e-05 0)
(0.099931 -4.72647e-05 0)
(0.0999479 -0.000100238 0)
(0.099866 -9.8811e-05 0)
(0.0998444 -8.88424e-05 0)
(0.0999914 4.31981e-06 0)
(0.0999825 1.8442e-05 0)
(0.0999648 3.53813e-05 0)
(0.0999398 6.87483e-05 0)
(0.0999125 0.000127652 0)
(0.0999038 0.000240156 0)
(0.0999583 0.000458856 0)
(0.100146 0.000794242 0)
(0.100537 0.00131376 0)
(0.101063 0.00147367 0)
(0.101325 -0.000406928 0)
(0.100996 -0.00190211 0)
(0.100235 -0.00160983 0)
(0.0997124 -0.000612113 0)
(0.0996387 -8.54195e-06 0)
(0.0998174 7.73882e-05 0)
(0.100015 -4.27886e-05 0)
(0.100092 -0.0001305 0)
(0.100093 -0.000137855 0)
(0.100038 -0.000125037 0)
(0.0999938 8.67319e-06 0)
(0.0999906 2.70555e-05 0)
(0.0999838 5.45496e-05 0)
(0.0999799 9.10785e-05 0)
(0.09998 0.000151376 0)
(0.100003 0.000226138 0)
(0.100048 0.00032939 0)
(0.100159 0.000399098 0)
(0.100333 0.0004213 0)
(0.100655 0.000236934 0)
(0.101 -9.75309e-05 0)
(0.101007 -0.00045401 0)
(0.100601 -0.000502127 0)
(0.100067 -0.000312935 0)
(0.0997751 -0.000113175 0)
(0.0997848 -2.52163e-05 0)
(0.0999511 -3.22908e-05 0)
(0.100066 -7.41029e-05 0)
(0.100112 -9.66089e-05 0)
(0.100057 -0.000107333 0)
(0.099997 9.68433e-06 0)
(0.0999973 3.16062e-05 0)
(0.0999992 5.72444e-05 0)
(0.100005 9.18317e-05 0)
(0.100019 0.000133369 0)
(0.100049 0.000187043 0)
(0.100105 0.000239905 0)
(0.100203 0.000297636 0)
(0.100351 0.000311327 0)
(0.10052 0.000273215 0)
(0.100631 5.0637e-05 0)
(0.100586 -0.000275676 0)
(0.100375 -0.000507992 0)
(0.100105 -0.00050711 0)
(0.0999304 -0.00034488 0)
(0.099899 -0.000179344 0)
(0.0999683 -0.000102056 0)
(0.100027 -0.000105842 0)
(0.100065 -0.000130574 0)
(0.100025 -0.000151483 0)
(0.1 9.7787e-06 0)
(0.100003 3.02979e-05 0)
(0.100009 5.36326e-05 0)
(0.10002 8.0645e-05 0)
(0.10004 0.000112136 0)
(0.100074 0.000145856 0)
(0.100124 0.000177827 0)
(0.100194 0.000195272 0)
(0.100276 0.00017843 0)
(0.100354 0.000103533 0)
(0.100408 -2.80036e-05 0)
(0.100405 -0.000178411 0)
(0.100326 -0.000271168 0)
(0.10019 -0.000263181 0)
(0.100064 -0.000177797 0)
(0.0999892 -8.94426e-05 0)
(0.0999837 -4.26745e-05 0)
(0.0999985 -4.4737e-05 0)
(0.100024 -6.15124e-05 0)
(0.100002 -8.47876e-05 0)
(0.100003 8.57044e-06 0)
(0.100007 2.64564e-05 0)
(0.100015 4.55067e-05 0)
(0.100029 6.62121e-05 0)
(0.10005 8.77399e-05 0)
(0.10008 0.00010835 0)
(0.10012 0.000122975 0)
(0.10017 0.000125431 0)
(0.100225 0.000107553 0)
(0.100279 6.5787e-05 0)
(0.100315 1.76412e-06 0)
(0.100309 -7.70843e-05 0)
(0.100256 -0.000145031 0)
(0.100166 -0.000177378 0)
(0.100072 -0.000166695 0)
(0.100003 -0.000134735 0)
(0.0999795 -0.000102937 0)
(0.0999769 -9.37092e-05 0)
(0.0999895 -9.44672e-05 0)
(0.0999774 -0.000110798 0)
(0.100005 6.87656e-06 0)
(0.10001 2.10057e-05 0)
(0.100019 3.5499e-05 0)
(0.100033 5.0203e-05 0)
(0.100053 6.43798e-05 0)
(0.100079 7.64969e-05 0)
(0.100111 8.37168e-05 0)
(0.100148 8.26592e-05 0)
(0.100186 6.92531e-05 0)
(0.100218 4.06976e-05 0)
(0.100235 -4.70046e-06 0)
(0.100228 -5.76413e-05 0)
(0.100195 -0.000103562 0)
(0.100139 -0.000128088 0)
(0.100077 -0.000122894 0)
(0.100023 -9.94056e-05 0)
(0.0999953 -7.02605e-05 0)
(0.0999765 -5.57888e-05 0)
(0.099977 -4.87651e-05 0)
(0.0999569 -5.98293e-05 0)
(0.100007 5.00108e-06 0)
(0.100012 1.49981e-05 0)
(0.100021 2.47606e-05 0)
(0.100034 3.39628e-05 0)
(0.100053 4.21615e-05 0)
(0.100076 4.8272e-05 0)
(0.100103 5.08228e-05 0)
(0.100132 4.73296e-05 0)
(0.10016 3.61687e-05 0)
(0.100182 1.55731e-05 0)
(0.100193 -1.17185e-05 0)
(0.100186 -4.21714e-05 0)
(0.100162 -6.81779e-05 0)
(0.100122 -8.42245e-05 0)
(0.100078 -8.50263e-05 0)
(0.100032 -7.71092e-05 0)
(0.100001 -6.38996e-05 0)
(0.0999728 -5.98579e-05 0)
(0.0999651 -5.62879e-05 0)
(0.0999396 -6.85149e-05 0)
(0.100009 3.44149e-06 0)
(0.100013 1.04591e-05 0)
(0.100021 1.74936e-05 0)
(0.100034 2.42485e-05 0)
(0.100051 3.02483e-05 0)
(0.100071 3.49419e-05 0)
(0.100094 3.7496e-05 0)
(0.100117 3.68527e-05 0)
(0.100138 3.19513e-05 0)
(0.100153 2.23396e-05 0)
(0.10016 8.51283e-06 0)
(0.100155 -7.14332e-06 0)
(0.100137 -2.06638e-05 0)
(0.100105 -2.97541e-05 0)
(0.100068 -3.1264e-05 0)
(0.100027 -2.82216e-05 0)
(0.0999973 -2.03722e-05 0)
(0.0999659 -1.70648e-05 0)
(0.0999543 -1.2028e-05 0)
(0.099926 -1.98953e-05 0)
(0.10001 -4.13687e-07 0)
(0.100015 -1.0043e-06 0)
(0.100023 -1.29013e-06 0)
(0.100036 -1.45012e-06 0)
(0.100053 -1.69672e-06 0)
(0.100072 -2.29967e-06 0)
(0.100094 -3.39884e-06 0)
(0.100115 -5.36887e-06 0)
(0.100134 -8.21506e-06 0)
(0.100147 -1.22714e-05 0)
(0.100152 -1.70806e-05 0)
(0.100145 -2.32035e-05 0)
(0.100129 -2.9085e-05 0)
(0.1001 -3.41418e-05 0)
(0.100069 -3.59805e-05 0)
(0.10003 -3.68165e-05 0)
(0.100003 -3.42854e-05 0)
(0.099967 -3.53717e-05 0)
(0.0999559 -3.28711e-05 0)
(0.0999147 -4.10897e-05 0)
)
;

boundaryField
{
    sides
    {
        type            calculated;
        value           nonuniform List<vector> 
40
(
(0.10001 0 0)
(0.100015 0 0)
(0.100023 0 0)
(0.100036 0 0)
(0.100053 0 0)
(0.100072 0 0)
(0.100094 0 0)
(0.100115 0 0)
(0.100134 0 0)
(0.100147 0 0)
(0.100152 0 0)
(0.100145 0 0)
(0.100129 0 0)
(0.1001 0 0)
(0.100069 0 0)
(0.10003 0 0)
(0.100003 0 0)
(0.099967 0 0)
(0.0999559 0 0)
(0.0999147 0 0)
(0.0999964 0 0)
(0.100001 0 0)
(0.100009 0 0)
(0.100023 0 0)
(0.10004 0 0)
(0.100061 0 0)
(0.100083 0 0)
(0.100107 0 0)
(0.100128 0 0)
(0.100144 0 0)
(0.100153 0 0)
(0.100152 0 0)
(0.10014 0 0)
(0.10012 0 0)
(0.100093 0 0)
(0.100068 0 0)
(0.100045 0 0)
(0.100034 0 0)
(0.100025 0 0)
(0.100033 0 0)
)
;
    }
    inlet
    {
        type            calculated;
        value           nonuniform List<vector> 
20
(
(0.0999962 0 0)
(0.0999967 0 0)
(0.0999966 0 0)
(0.0999961 0 0)
(0.0999951 0 0)
(0.0999938 0 0)
(0.0999923 0 0)
(0.0999909 0 0)
(0.0999899 0 0)
(0.0999898 0 0)
(0.0999905 0 0)
(0.0999919 0 0)
(0.0999942 0 0)
(0.099997 0 0)
(0.0999999 0 0)
(0.100003 0 0)
(0.100005 0 0)
(0.100007 0 0)
(0.100008 0 0)
(0.10001 0 0)
)
;
    }
    outlet
    {
        type            calculated;
        value           nonuniform List<vector> 
20
(
(0.100033 -2.68286e-05 0)
(0.100029 8.11704e-06 0)
(0.10003 -1.16997e-05 0)
(0.100035 4.4739e-08 0)
(0.100043 1.67574e-05 0)
(0.100055 4.93131e-06 0)
(0.100066 5.3317e-05 0)
(0.100085 1.02303e-05 0)
(0.100054 2.43646e-05 0)
(0.0998506 -1.84757e-05 0)
(0.0998456 -8.88436e-05 0)
(0.100037 -0.000125035 0)
(0.100055 -0.000107331 0)
(0.100024 -0.00015148 0)
(0.100001 -8.47866e-05 0)
(0.0999767 -0.000110797 0)
(0.0999561 -5.98288e-05 0)
(0.0999388 -6.85143e-05 0)
(0.0999251 -1.98951e-05 0)
(0.0999133 -4.10891e-05 0)
)
;
    }
    frontAndBack
    {
        type            empty;
    }
}


// ************************************************************************* //
