/*--------------------------------*- C++ -*----------------------------------*\
  =========                 |
  \\      /  F ield         | OpenFOAM: The Open Source CFD Toolbox
   \\    /   O peration     | Website:  https://openfoam.org
    \\  /    A nd           | Version:  9
     \\/     M anipulation  |
\*---------------------------------------------------------------------------*/
FoamFile
{
    format      ascii;
    class       volScalarField;
    location    "380";
    object      sigmaxx;
}
// * * * * * * * * * * * * * * * * * * * * * * * * * * * * * * * * * * * * * //

dimensions      [1 -1 -2 0 0 0 0];

internalField   nonuniform List<scalar> 
1000
(
7760.22
10956.6
12582.1
13411.8
13804.3
13947.4
13944.6
13856
13726.6
13555.7
10761.3
13195.1
14323.9
14800.7
14933.3
14879
14723.3
14515.4
14292
14046.7
14081.2
15491.3
15981.7
16030.6
15865.5
15597.9
15285.8
14960.8
14647.2
14335.9
17575.4
17767.8
17517.4
17086.9
16600.7
16112.1
15644.2
15207
14808.8
14434.8
21070.5
19939.5
18896.7
17965.4
17152.4
16445
15827.6
15286
14811.7
14383.4
24377.6
21918.2
20089.8
18670.1
17544
16631.3
15876.8
15242.2
14702.4
14229.9
27305.4
23618.5
21071.9
19210.8
17805
16711.6
15838.7
15125.5
14532.2
14025.5
29673.5
24963.7
21824
19600
17965.8
16726.2
15759.1
14984.9
14351.2
13819.8
31321.9
25890.3
22330.7
19848.9
18053
16711.2
15679
14863.5
14203.3
13656.9
32168
26379.2
22564.1
19927.2
18038.3
16640
15573.7
14738.2
14067.2
13517.9
-481.185
-497.405
-107.52
604.163
1427.3
2259.68
3054.44
3792.37
4468.12
5082.86
-572.775
-336.407
175.07
940.78
1779
2606.9
3387.39
4105.98
4759.07
5345.83
-657.108
28.2327
766.969
1635.12
2506.36
3328.67
4082.65
4763.85
5374
5912.24
-688.832
605.416
1640.53
2633.6
3539.85
4348.24
5061.89
5689.24
6239.03
6709.69
-585.97
1399.09
2766
3890.69
4824.9
5606.37
6264.39
6821.95
7295.48
7682.06
-248.349
2419.35
4106.71
5347.57
6292.5
7029.96
7616.3
8089.42
8473.35
8763.38
424.882
3676.09
5623.04
6939.49
7866.39
8538.54
9036.94
9412.85
9696.93
9882.46
1520.54
5172.63
7273
8601.04
9470.25
10052.1
10446.6
10715.1
10892.7
10970.2
3099.12
6901.47
9012.69
10269.7
11033.2
11497.2
11773.2
11928
11999
11972.3
5185.07
8841.52
10797.3
11889.2
12493.9
12811.6
12955.6
12994.2
12968.2
12876.1
5624.68
6117.6
6561.12
6963.02
7328.23
7660.85
7964.36
8241.73
8495.44
8727.51
8939.54
9132.71
9307.72
9464.86
9603.89
9724.04
9823.98
9901.97
9956.93
10016.1
5846.67
6302.76
6711.52
7086.09
7429.08
7743.39
8031.65
8296.23
8539.15
8762.09
8966.37
9152.95
9322.43
9475.03
9610.58
9728.58
9828.17
9907.95
9964.51
10023.9
6342.01
6726.59
7063.24
7378.24
7671.73
7944.71
8198.35
8433.77
8652.05
8854.08
9040.59
9212.08
9368.8
9510.73
9637.54
9748.56
9842.57
9917.4
9968.77
10023.5
7044.22
7330.32
7568.84
7801.17
8024.97
8239.18
8443.13
8636.45
8818.94
8990.46
9150.9
9300.09
9437.74
9563.41
9676.42
9775.72
9859.77
9926.2
9971.33
10022.2
7905.47
8072.38
8195.29
8328.69
8468.24
8610.62
8753.31
8894.3
9031.99
9165.08
9292.47
9413.2
9526.33
9630.88
9725.77
9809.63
9880.76
9936.96
9975.03
10021.2
8870.28
8906
8905.89
8931.8
8978.62
9040.99
9114.69
9196.17
9282.49
9371.17
9460.11
9547.49
9631.71
9711.23
9784.54
9850.06
9906.01
9950.36
9980.22
10020.2
9877.81
9780.47
9660.64
9578.84
9531
9510.38
9511.5
9529.63
9560.67
9601.12
9647.94
9698.55
9750.64
9802.2
9851.34
9896.27
9935.17
9966.16
9986.68
10019.1
10866.8
10645.1
10418.7
10236.9
10099
9997.57
9926.75
9881.08
9855.73
9846.4
9849.34
9861.26
9879.33
9901.04
9924.22
9946.91
9967.33
9983.77
9994.14
10017.9
11784.7
11456.9
11143.4
10875.7
10657.5
10482.2
10343.9
10237.1
10156.9
10098.4
10057.4
10030.3
10013.6
10004.7
10000.9
10000.4
10001.3
10002.4
10002.2
10016.6
12613.7
12205.1
11813
11468.3
11176.8
10933.3
10732.4
10568.9
10437.4
10332.9
10250.9
10187.1
10137.9
10100
10070.9
10048.4
10030.8
10017.2
10007.2
10013.9
13189.5
12739.5
12291.1
11910.7
11582.8
11301.4
11061.9
10859.8
10690.6
10550.1
10433.9
10338.3
10259.7
10195.1
10141.9
10098.2
10062.5
10034.5
10014.5
10012
13105.1
12798
12413.2
12066.5
11756.7
11482.4
11241.7
11032.1
10850.8
10695
10561.6
10447.6
10350.3
10267.4
10196.8
10137.1
10087.5
10048
10020
10010.2
13051.9
12808.5
12481.4
12169.9
11879.9
11615
11376.1
11162.6
10973.4
10806.6
10660.2
10532.2
10420.4
10323.1
10238.8
10166.6
10106
10057.8
10023.7
10008.4
12925.8
12730.9
12456.9
12185.9
11924.2
11677.8
11449.4
11240.4
11050.9
10880.2
10727.4
10591.1
10470.1
10363.1
10269.2
10188
10119.6
10065
10026.6
10006.8
12746.7
12592.6
12365.3
12133.9
11903.8
11680.8
11468.9
11270.5
11086.9
10918.3
10764.7
10625.5
10500
10387.7
10288.3
10201.6
10128.2
10069.7
10028.5
10005.4
12530.1
12410.9
12225.1
12030.7
11832.2
11634.9
11443.1
11259.7
11086.5
10924.8
10775.1
10637.4
10511.8
10398.2
10296.7
10207.7
10132.2
10071.7
10029.3
10004.1
12288.6
12199.3
12050.3
11889.7
11721.7
11550.6
11380.7
11214.8
11055.5
10904.2
10762.1
10629.7
10507.5
10396
10295.6
10207.2
10131.8
10071.5
10029.1
10003
12032.3
11968.4
11851.8
11721.9
11582.4
11437
11289.5
11142.9
10999.5
10861.2
10729.5
10605.4
10489.6
10383
10286.4
10200.9
10127.8
10069.3
10028.1
10002
11768.7
11726.4
11638
11535.8
11422.7
11302
11176.8
11049.9
10923.8
10800.4
10681.2
10567.5
10460.4
10361.1
10270.4
10189.8
10120.8
10065.4
10026.5
10001.2
11503
11479.1
11415.6
11338.2
11249.5
11152.1
11048.6
10941.7
10833.5
10726
10620.7
10519.1
10422.5
10332.1
10249.1
10175
10111.3
10060.2
10024.4
10000.5
11238.7
11231
11189.4
11134.5
11068.3
10992.9
10910.5
10823.2
10733.1
10642
10551.6
10463.2
10378.2
10298
10223.9
10157.4
10100.1
10054.1
10021.8
9999.99
10978.2
10985.1
10963.3
10929.1
10883.8
10829.1
10766.8
10698.8
10626.7
10552.2
10477
10402.3
10329.8
10260.6
10196.2
10138
10087.8
10047.4
10019.1
9999.62
10722.9
10743.6
10740.3
10725.3
10699.8
10664.8
10621.8
10572.3
10517.9
10459.9
10399.9
10339.2
10279.3
10221.5
10167.1
10117.8
10075
10040.4
10016.2
9999.39
10474
10508.5
10522.8
10526.3
10519.6
10503.5
10479.1
10447.5
10410.1
10368.1
10323
10276.1
10228.7
10182.2
10138
10097.4
10062
10033.4
10013.4
9999.27
10232.4
10281.3
10313.2
10334.9
10346.6
10348.8
10342.1
10327.7
10306.5
10279.8
10248.9
10215.1
10179.7
10144.1
10109.6
10077.6
10049.5
10026.7
10010.7
9999.26
9999.12
10063.7
10114
10154.1
10184.1
10204
10214.5
10216.2
10210.2
10197.7
10179.9
10158.1
10133.8
10108.3
10082.8
10058.8
10037.5
10020.1
10008
9999.32
9775.6
9858.09
9927.89
9987.2
10035.6
10073
10099.8
10116.6
10124.5
10124.6
10118.3
10107.1
10092.3
10075.5
10058
10041.1
10026
10013.7
10005.3
9999.42
9564
9667.34
9758.79
9838.49
9905.73
9960.28
10002.4
10032.9
10052.8
10063.4
10066.4
10063.4
10056.1
10046.2
10035.2
10024.3
10014.7
10007.2
10002.4
9999.39
9367.71
9495.97
9611.82
9713.5
9800.11
9871.38
9927.66
9969.81
9999.17
10017.4
10026.5
10028.6
10025.8
10020.2
10013.6
10007.4
10002.7
9999.86
9998.87
9999.21
9190.63
9350.14
9494.25
9620.22
9727.1
9814.64
9883.35
9934.41
9969.6
9991.2
10001.8
10004.2
10001.4
9996
9990.65
9987.35
9987.29
9990.52
9995.52
9999.29
13059.2
13189.9
13353.2
13564
13781.3
13959.6
14051.9
14015.1
13812.6
13372.8
12651.5
12767.7
12920.2
13123.9
13347
13554
13708.3
13774.8
13720.6
13406.7
12291.3
12395
12535.7
12727.2
12943.2
13154.9
13331.8
13445
13465.7
13267.9
11969.2
12062.1
12190.8
12368.7
12574.4
12784.4
12973.6
13117.7
13190.5
13085.2
11676.5
11759.7
11876.6
12040.3
12233.1
12435.7
12627.5
12788.2
12894.4
12859.8
11405.8
11480.5
11586.4
11736
11914.9
12106.9
12295.1
12462.5
12588.5
12604.7
11151.1
11218.4
11314.5
11451
11616
11796
11977
12144.4
12280.8
12331.9
10907.6
10968.5
11056
11180.7
11332.7
11500.6
11672.5
11836.1
11976.3
12050.4
10671.3
10726.8
10806.8
10921.3
11061.6
11218.1
11380.4
11538.1
11678.2
11766.7
10438.5
10489.7
10563.5
10669.3
10799.5
10945.7
11098.9
11250
11387.6
11484.8
10206.1
10253.8
10322.6
10421.4
10543.4
10680.9
10826
10970.6
11104.9
11207.2
9971.17
10016.1
10081.3
10174.7
10290.2
10420.9
10559.5
10698.7
10829.8
10935.3
9730.62
9773.79
9836.43
9926.19
10037.3
10163.2
10297.2
10432.5
10561.4
10669.5
9481.45
9523.67
9585.06
9672.88
9781.58
9905.04
10036.8
10170.5
10298.9
10410.1
9220.43
9262.61
9324.01
9411.66
9520.25
9643.84
9776.13
9910.81
10041.1
10157.2
8944.09
8987.17
9049.81
9139.12
9250.06
9376.77
9512.86
9651.93
9787.37
9910.87
8648.77
8693.54
8758.39
8851.31
8967.48
9100.83
9244.65
9392.24
9536.95
9671.58
8331.31
8376.91
8444.53
8543.48
8668.51
8812.8
8969.08
9130.27
9289.5
9440.37
7991.58
8029.58
8100.95
8209.92
8348.66
8509.18
8683.68
8864.66
9045.02
9219
7633.83
7625.88
7707.93
7833.88
7992.39
8175.8
8376.46
8586.43
8798.01
9006.82
)
;

boundaryField
{
    left
    {
        type            symmetryPlane;
    }
    right
    {
        type            calculated;
        value           uniform 10000;
    }
    down
    {
        type            symmetryPlane;
    }
    up
    {
        type            calculated;
        value           nonuniform List<scalar> 
30
(
7637.99
7631.99
7713.91
7839.55
7997.81
8180.98
8381.39
8591.09
8802.38
9010.63
9194
9353.14
9496.86
9622.48
9729.05
9816.3
9884.76
9935.59
9970.6
9992.04
10002.5
10004.8
10001.8
9996.35
9990.89
9987.47
9987.32
9990.52
9995.64
9999.67
)
;
    }
    hole
    {
        type            calculated;
        value           nonuniform List<scalar> 
20
(
6322.52
9326.28
12714.9
16332.1
19988.4
23475.1
26580.3
29103.9
30868.8
31773.7
-18.2614
-158.844
-397.358
-651.852
-813.023
-756.789
-358.95
489.499
1868.19
3815.86
)
;
    }
    frontAndBack
    {
        type            empty;
    }
}


// ************************************************************************* //
