/*--------------------------------*- C++ -*----------------------------------*\
  =========                 |
  \\      /  F ield         | OpenFOAM: The Open Source CFD Toolbox
   \\    /   O peration     | Website:  https://openfoam.org
    \\  /    A nd           | Version:  9
     \\/     M anipulation  |
\*---------------------------------------------------------------------------*/
FoamFile
{
    format      ascii;
    class       volVectorField;
    location    "31";
    object      ddt0(hU);
}
// * * * * * * * * * * * * * * * * * * * * * * * * * * * * * * * * * * * * * //

dimensions      [0 2 -2 0 0 0 0];

internalField   nonuniform List<vector> 
400
(
(-2.12533e-08 -2.29696e-09 0)
(-1.68518e-09 4.9724e-09 0)
(7.4694e-09 -3.8848e-09 0)
(2.84782e-08 -2.17907e-08 0)
(8.0709e-08 -2.31497e-08 0)
(1.15679e-07 -1.84337e-09 0)
(9.96768e-08 1.72842e-08 0)
(6.04887e-08 9.50424e-09 0)
(5.38931e-08 -1.04314e-08 0)
(8.63067e-08 -1.61396e-08 0)
(9.19868e-08 1.111e-08 0)
(4.55701e-08 3.22527e-08 0)
(-1.58064e-08 3.42643e-08 0)
(-2.70079e-08 2.68346e-08 0)
(2.12751e-08 1.51996e-08 0)
(7.82847e-08 1.38895e-08 0)
(1.1024e-07 1.36223e-08 0)
(7.3938e-08 6.56583e-09 0)
(-1.86157e-09 -3.35939e-09 0)
(2.65997e-08 -1.63346e-09 0)
(-2.06342e-08 -2.43018e-09 0)
(-9.06891e-10 1.37385e-08 0)
(9.96893e-09 -4.17265e-09 0)
(3.0309e-08 -4.66216e-08 0)
(7.78236e-08 -5.61368e-08 0)
(1.1143e-07 -5.83764e-09 0)
(9.79627e-08 4.63145e-08 0)
(6.29482e-08 3.63726e-08 0)
(5.69327e-08 -1.725e-08 0)
(8.69891e-08 -2.96935e-08 0)
(9.40586e-08 1.87322e-08 0)
(4.25438e-08 9.32738e-08 0)
(-9.3982e-10 1.06114e-07 0)
(-1.1287e-08 7.20041e-08 0)
(1.80103e-08 4.4588e-08 0)
(5.90848e-08 4.12411e-08 0)
(7.94023e-08 7.13088e-08 0)
(5.43237e-08 1.13156e-07 0)
(3.83335e-08 4.69538e-08 0)
(6.74773e-08 -1.36546e-08 0)
(-2.39382e-08 6.07957e-09 0)
(-1.15511e-09 2.64754e-08 0)
(1.68061e-08 1.66341e-09 0)
(3.3904e-08 -6.05044e-08 0)
(7.01233e-08 -7.9598e-08 0)
(9.92813e-08 -6.4684e-09 0)
(9.80883e-08 7.44333e-08 0)
(7.18507e-08 6.08959e-08 0)
(7.03916e-08 -2.45286e-08 0)
(7.76207e-08 -4.18437e-08 0)
(8.51127e-08 3.28475e-08 0)
(5.62922e-08 1.38966e-07 0)
(3.61202e-09 1.719e-07 0)
(3.19896e-09 1.10308e-07 0)
(3.0274e-08 6.17423e-08 0)
(6.2736e-08 5.79013e-08 0)
(9.87425e-08 1.00676e-07 0)
(6.16343e-08 1.35262e-07 0)
(-3.67424e-09 5.29879e-08 0)
(8.82682e-09 -2.05316e-08 0)
(-2.7372e-08 2.12232e-08 0)
(-3.57036e-09 4.5346e-08 0)
(2.00597e-08 1.14201e-08 0)
(3.5937e-08 -7.0422e-08 0)
(6.42643e-08 -9.59816e-08 0)
(9.19244e-08 -2.63527e-09 0)
(9.40764e-08 1.01561e-07 0)
(8.07548e-08 7.22226e-08 0)
(7.3283e-08 -2.44005e-08 0)
(9.41245e-08 -7.12624e-08 0)
(7.1436e-08 5.94179e-08 0)
(6.73157e-08 1.75019e-07 0)
(3.17323e-08 1.99242e-07 0)
(1.35533e-08 1.34246e-07 0)
(3.58082e-08 6.51292e-08 0)
(4.47088e-08 5.60992e-08 0)
(3.49147e-08 1.23234e-07 0)
(3.3591e-08 1.73035e-07 0)
(4.88373e-08 6.13608e-08 0)
(6.57445e-08 -3.23602e-08 0)
(-3.18839e-08 3.90154e-08 0)
(-6.36701e-09 6.57076e-08 0)
(2.60616e-08 2.64592e-08 0)
(3.70821e-08 -6.49616e-08 0)
(5.56314e-08 -9.45855e-08 0)
(8.05865e-08 9.22876e-09 0)
(9.27856e-08 1.14767e-07 0)
(9.68755e-08 8.45514e-08 0)
(7.90567e-08 -3.21727e-08 0)
(9.54395e-08 -7.04121e-08 0)
(9.93037e-08 2.64236e-08 0)
(4.01337e-08 1.87806e-07 0)
(5.95744e-08 1.99519e-07 0)
(4.91505e-08 1.27306e-07 0)
(3.79023e-08 6.02374e-08 0)
(5.07905e-08 4.48976e-08 0)
(6.18546e-08 1.2382e-07 0)
(3.04406e-08 2.08614e-07 0)
(-1.14661e-08 8.97092e-08 0)
(3.445e-09 -2.95726e-08 0)
(-3.76033e-08 5.36287e-08 0)
(-8.0269e-09 8.19037e-08 0)
(3.24895e-08 3.95164e-08 0)
(3.91685e-08 -5.10718e-08 0)
(4.90053e-08 -7.78953e-08 0)
(6.75979e-08 1.97931e-08 0)
(9.19025e-08 1.20265e-07 0)
(9.49098e-08 8.60099e-08 0)
(1.14772e-07 -5.59201e-08 0)
(5.82705e-08 -6.04573e-08 0)
(9.63166e-08 -1.93283e-08 0)
(7.5178e-08 1.69243e-07 0)
(6.09412e-08 2.14036e-07 0)
(8.57478e-08 1.06211e-07 0)
(5.85122e-08 2.91914e-08 0)
(2.69279e-08 2.26685e-08 0)
(1.7639e-08 8.48736e-08 0)
(2.8847e-08 1.49681e-07 0)
(4.03746e-08 5.70437e-08 0)
(1.83782e-08 -2.94024e-08 0)
(-4.35823e-08 5.96783e-08 0)
(-7.67885e-09 8.6854e-08 0)
(4.15735e-08 4.74309e-08 0)
(4.32581e-08 -3.17041e-08 0)
(4.01226e-08 -5.54145e-08 0)
(5.6753e-08 2.5695e-08 0)
(8.30312e-08 1.0947e-07 0)
(1.03889e-07 6.93358e-08 0)
(1.09581e-07 -3.40936e-08 0)
(8.31327e-08 -9.45269e-08 0)
(9.43797e-09 7.42333e-08 0)
(1.6492e-07 8.77604e-08 0)
(8.64165e-08 1.65205e-07 0)
(6.02219e-08 9.59358e-08 0)
(6.09258e-08 2.12854e-08 0)
(2.94127e-08 1.95075e-08 0)
(7.04549e-09 9.86486e-08 0)
(2.53361e-08 1.67164e-07 0)
(3.24778e-08 5.19766e-08 0)
(1.08062e-08 -3.89814e-08 0)
(-4.85951e-08 5.53733e-08 0)
(-4.91851e-09 7.80719e-08 0)
(5.10577e-08 4.74521e-08 0)
(4.68858e-08 -1.27426e-08 0)
(3.43329e-08 -3.54378e-08 0)
(4.13065e-08 2.35644e-08 0)
(7.62751e-08 8.55501e-08 0)
(1.18999e-07 5.19064e-08 0)
(1.01027e-07 -3.79684e-08 0)
(1.84932e-07 -6.89204e-08 0)
(2.29049e-07 -7.79251e-09 0)
(1.26579e-08 1.43617e-07 0)
(1.81538e-07 1.12592e-07 0)
(1.2014e-07 6.23063e-08 0)
(6.91322e-08 2.11069e-08 0)
(3.24928e-08 1.47592e-08 0)
(2.72723e-09 6.74499e-08 0)
(6.49308e-10 1.1216e-07 0)
(2.68716e-08 2.93335e-08 0)
(3.96082e-09 -2.96763e-08 0)
(-5.19628e-08 4.11219e-08 0)
(-1.53879e-09 5.56296e-08 0)
(6.10122e-08 3.56182e-08 0)
(4.95857e-08 -3.46249e-09 0)
(2.66881e-08 -2.23162e-08 0)
(3.32281e-08 9.89808e-09 0)
(6.94112e-08 4.93329e-08 0)
(1.05737e-07 3.27641e-08 0)
(1.34279e-07 -2.52595e-08 0)
(-1.2245e-09 -5.80123e-08 0)
(-1.06509e-07 -1.71004e-08 0)
(1.53163e-07 1.13609e-07 0)
(6.16659e-08 6.50375e-08 0)
(1.23221e-07 3.62838e-08 0)
(8.80533e-08 9.91909e-09 0)
(2.29018e-08 3.26181e-09 0)
(-1.56296e-08 2.00083e-08 0)
(3.55611e-09 4.79228e-08 0)
(4.57656e-08 6.27373e-10 0)
(1.14952e-08 -2.56794e-08 0)
(-5.42264e-08 1.84833e-08 0)
(6.67152e-10 2.33299e-08 0)
(6.71585e-08 1.36825e-08 0)
(5.35267e-08 -4.29307e-09 0)
(2.27185e-08 -1.75525e-08 0)
(2.29205e-08 -9.45864e-09 0)
(7.1953e-08 5.94976e-09 0)
(1.19874e-07 6.00879e-09 0)
(1.07122e-07 -1.0661e-09 0)
(8.14553e-08 -2.37362e-08 0)
(1.44509e-07 2.75462e-08 0)
(-5.00396e-10 -3.99163e-08 0)
(1.4135e-07 2.65298e-08 0)
(1.64508e-07 2.25311e-08 0)
(8.96811e-08 8.68872e-09 0)
(2.3254e-08 4.1449e-09 0)
(-2.2372e-08 3.13417e-09 0)
(-6.06036e-09 6.37496e-09 0)
(3.67088e-08 -2.11993e-08 0)
(1.00931e-08 -1.82814e-08 0)
(-5.4338e-08 -8.73883e-09 0)
(8.76316e-10 -1.34194e-08 0)
(6.79242e-08 -1.1644e-08 0)
(5.27678e-08 -7.26631e-09 0)
(2.1642e-08 -1.03024e-08 0)
(2.45747e-08 -2.59869e-08 0)
(7.24449e-08 -3.21354e-08 0)
(1.20773e-07 -1.59533e-08 0)
(1.08654e-07 -5.96353e-09 0)
(9.33455e-08 2.09128e-08 0)
(-9.63183e-09 6.22563e-08 0)
(1.317e-07 -3.01368e-08 0)
(1.64215e-07 3.46627e-09 0)
(1.37381e-07 -1.62759e-09 0)
(9.91219e-08 9.28084e-09 0)
(3.14024e-08 8.34361e-10 0)
(-2.13633e-08 -2.29562e-08 0)
(-4.81023e-09 -4.22001e-08 0)
(3.98882e-08 -4.13527e-08 0)
(8.48942e-09 -5.93163e-09 0)
(-5.2266e-08 -3.39816e-08 0)
(-5.26523e-10 -4.90348e-08 0)
(6.37012e-08 -3.57904e-08 0)
(5.10633e-08 -7.44422e-09 0)
(2.86089e-08 1.68713e-10 0)
(3.78615e-08 -3.67748e-08 0)
(7.48052e-08 -7.95199e-08 0)
(1.09544e-07 -5.47023e-08 0)
(9.8781e-08 1.53367e-08 0)
(2.08074e-07 6.42863e-08 0)
(-4.53337e-07 -9.4299e-08 0)
(-3.31972e-08 -6.79534e-09 0)
(1.48355e-07 -5.54621e-08 0)
(1.43533e-07 -1.66634e-08 0)
(1.05779e-07 9.70947e-09 0)
(3.6228e-08 -4.81745e-09 0)
(-1.26212e-08 -4.51016e-08 0)
(1.42015e-09 -8.71324e-08 0)
(3.69179e-08 -6.60207e-08 0)
(4.18217e-09 -1.11812e-09 0)
(-4.89536e-08 -5.16777e-08 0)
(-3.43035e-09 -7.48732e-08 0)
(5.60481e-08 -5.0206e-08 0)
(5.09089e-08 2.18899e-09 0)
(3.73322e-08 1.63665e-08 0)
(4.2214e-08 -4.75516e-08 0)
(7.66589e-08 -1.13012e-07 0)
(1.09134e-07 -8.87793e-08 0)
(1.37132e-07 2.43332e-08 0)
(-6.51187e-08 6.59871e-08 0)
(5.9395e-07 -6.41856e-08 0)
(2.28969e-07 -6.37491e-08 0)
(8.01095e-08 -9.66342e-08 0)
(1.22927e-07 -4.35096e-08 0)
(8.49188e-08 -1.08224e-08 0)
(4.0792e-08 -2.47878e-08 0)
(7.37642e-09 -9.55982e-08 0)
(2.76547e-09 -1.55525e-07 0)
(2.49091e-08 -9.2036e-08 0)
(3.46237e-09 6.08035e-09 0)
(-4.43462e-08 -5.83385e-08 0)
(-5.17052e-09 -8.50387e-08 0)
(4.94564e-08 -5.07332e-08 0)
(5.0247e-08 1.99802e-08 0)
(4.58364e-08 3.59048e-08 0)
(5.84341e-08 -5.01156e-08 0)
(7.86955e-08 -1.29659e-07 0)
(1.02212e-07 -9.24715e-08 0)
(8.89186e-08 2.40642e-08 0)
(1.09001e-07 6.27919e-08 0)
(1.05189e-07 1.12822e-07 0)
(2.31506e-08 -1.46514e-07 0)
(9.08894e-08 -1.46983e-07 0)
(8.07692e-08 -8.21353e-08 0)
(6.11369e-08 -2.37459e-08 0)
(4.23597e-08 -3.29214e-08 0)
(2.14813e-08 -1.23063e-07 0)
(2.56507e-08 -1.94646e-07 0)
(3.10465e-08 -1.06367e-07 0)
(7.2186e-09 1.18369e-08 0)
(-3.91484e-08 -5.30218e-08 0)
(-4.33271e-09 -7.95453e-08 0)
(4.26637e-08 -4.11344e-08 0)
(4.93703e-08 3.78279e-08 0)
(5.65296e-08 5.33358e-08 0)
(7.3885e-08 -4.92852e-08 0)
(8.56322e-08 -1.45408e-07 0)
(9.32448e-08 -9.31554e-08 0)
(9.3187e-08 2.7963e-08 0)
(9.20938e-08 9.34374e-08 0)
(5.81264e-08 -5.98417e-08 0)
(7.22724e-08 -1.69857e-07 0)
(5.87043e-08 -1.85811e-07 0)
(6.04766e-08 -1.01427e-07 0)
(6.60241e-08 -2.7374e-08 0)
(5.46195e-08 -3.27497e-08 0)
(4.00345e-08 -1.19531e-07 0)
(3.06045e-08 -2.01088e-07 0)
(1.98193e-08 -1.13239e-07 0)
(8.42737e-09 1.37663e-08 0)
(-3.41012e-08 -3.8765e-08 0)
(-1.8428e-09 -6.42381e-08 0)
(3.64795e-08 -2.63209e-08 0)
(4.73725e-08 5.37295e-08 0)
(6.44089e-08 6.70279e-08 0)
(8.77648e-08 -4.50232e-08 0)
(9.62596e-08 -1.48896e-07 0)
(8.28518e-08 -1.00675e-07 0)
(8.15519e-08 3.58384e-08 0)
(6.80087e-08 6.83604e-08 0)
(6.19462e-08 -2.54636e-08 0)
(6.57392e-08 -1.61373e-07 0)
(4.83632e-08 -1.91956e-07 0)
(5.03792e-08 -1.07209e-07 0)
(6.08368e-08 -3.53387e-08 0)
(6.99993e-08 -3.96354e-08 0)
(6.00585e-08 -1.32968e-07 0)
(3.27657e-08 -2.15616e-07 0)
(8.00227e-09 -1.14872e-07 0)
(1.00164e-08 1.61923e-08 0)
(-2.9892e-08 -2.15034e-08 0)
(6.50223e-10 -4.45961e-08 0)
(3.17418e-08 -1.34666e-08 0)
(4.48758e-08 5.9395e-08 0)
(6.90766e-08 7.20052e-08 0)
(9.74891e-08 -3.11485e-08 0)
(1.00704e-07 -1.34639e-07 0)
(8.21693e-08 -1.01522e-07 0)
(6.92864e-08 1.94889e-08 0)
(8.27442e-08 5.69486e-08 0)
(8.75684e-08 -3.29762e-08 0)
(4.83937e-08 -1.60647e-07 0)
(2.29608e-08 -1.744e-07 0)
(3.4181e-08 -9.76559e-08 0)
(5.72384e-08 -3.77547e-08 0)
(6.81586e-08 -4.89321e-08 0)
(6.45658e-08 -1.35194e-07 0)
(4.29143e-08 -2.04281e-07 0)
(1.22203e-08 -1.0539e-07 0)
(2.04203e-08 1.48057e-08 0)
(-2.63339e-08 -7.73503e-09 0)
(8.11594e-10 -2.60634e-08 0)
(2.5318e-08 -2.10796e-09 0)
(4.27011e-08 5.71437e-08 0)
(7.68957e-08 6.79923e-08 0)
(1.06223e-07 -1.67529e-08 0)
(1.00449e-07 -1.03437e-07 0)
(6.88015e-08 -8.29964e-08 0)
(5.79982e-08 6.38996e-09 0)
(7.44736e-08 3.87905e-08 0)
(7.65719e-08 -4.20159e-08 0)
(6.15258e-08 -1.39401e-07 0)
(2.82894e-08 -1.49682e-07 0)
(1.39791e-08 -9.22326e-08 0)
(3.50233e-08 -4.8684e-08 0)
(6.68978e-08 -5.2665e-08 0)
(8.24617e-08 -1.0863e-07 0)
(5.54916e-08 -1.57893e-07 0)
(1.14168e-08 -8.29393e-08 0)
(2.76569e-08 1.07203e-08 0)
(-2.47208e-08 8.02162e-10 0)
(4.45495e-10 -1.09043e-08 0)
(2.2738e-08 1.32017e-09 0)
(4.24221e-08 3.70667e-08 0)
(8.05707e-08 4.72283e-08 0)
(1.08872e-07 -4.48724e-09 0)
(9.88956e-08 -6.09332e-08 0)
(6.47878e-08 -5.32413e-08 0)
(5.50539e-08 -1.57367e-09 0)
(7.93366e-08 1.50232e-08 0)
(8.59238e-08 -3.03119e-08 0)
(4.20877e-08 -9.22023e-08 0)
(-1.03638e-08 -1.09598e-07 0)
(-8.94419e-09 -7.63677e-08 0)
(3.5548e-08 -4.50271e-08 0)
(8.15569e-08 -4.21904e-08 0)
(9.98297e-08 -7.72853e-08 0)
(6.22153e-08 -1.09048e-07 0)
(8.17278e-09 -5.63315e-08 0)
(3.31699e-08 6.94855e-09 0)
(-2.32896e-08 2.05944e-09 0)
(-1.29566e-10 -1.87209e-09 0)
(1.91679e-08 -8.05161e-10 0)
(4.1144e-08 8.98216e-09 0)
(8.46351e-08 1.49112e-08 0)
(1.14359e-07 1.24538e-09 0)
(9.78705e-08 -1.77321e-08 0)
(5.66134e-08 -1.95751e-08 0)
(4.66327e-08 -7.17695e-09 0)
(7.40547e-08 -2.39923e-09 0)
(8.5654e-08 -2.05484e-08 0)
(4.74535e-08 -4.20393e-08 0)
(-4.22647e-09 -4.11202e-08 0)
(-1.14944e-08 -2.56595e-08 0)
(2.9832e-08 -1.65243e-08 0)
(8.02945e-08 -1.76146e-08 0)
(1.05594e-07 -3.13228e-08 0)
(7.44674e-08 -4.20282e-08 0)
(2.11242e-08 -2.0371e-08 0)
(4.31125e-08 2.97295e-09 0)
)
;

boundaryField
{
    sides
    {
        type            calculated;
        value           nonuniform List<vector> 
40
(
(-2.32896e-08 0 0)
(-1.29566e-10 0 0)
(1.91679e-08 0 0)
(4.1144e-08 0 0)
(8.46351e-08 0 0)
(1.14359e-07 0 0)
(9.78705e-08 0 0)
(5.66134e-08 0 0)
(4.66327e-08 0 0)
(7.40547e-08 0 0)
(8.5654e-08 0 0)
(4.74535e-08 0 0)
(-4.22647e-09 0 0)
(-1.14944e-08 0 0)
(2.9832e-08 0 0)
(8.02945e-08 0 0)
(1.05594e-07 0 0)
(7.44674e-08 0 0)
(2.11242e-08 0 0)
(4.31125e-08 0 0)
(-2.12533e-08 0 0)
(-1.68518e-09 0 0)
(7.4694e-09 0 0)
(2.84782e-08 0 0)
(8.0709e-08 0 0)
(1.15679e-07 0 0)
(9.96768e-08 0 0)
(6.04887e-08 0 0)
(5.38931e-08 0 0)
(8.63067e-08 0 0)
(9.19868e-08 0 0)
(4.55701e-08 0 0)
(-1.58064e-08 0 0)
(-2.70079e-08 0 0)
(2.12751e-08 0 0)
(7.82847e-08 0 0)
(1.1024e-07 0 0)
(7.3938e-08 0 0)
(-1.86157e-09 0 0)
(2.65997e-08 0 0)
)
;
    }
    inlet
    {
        type            calculated;
        value           uniform (0 0 0);
    }
    outlet
    {
        type            calculated;
        value           nonuniform List<vector> 
20
(
(2.65997e-08 -1.63346e-09 0)
(6.74773e-08 -1.36546e-08 0)
(8.82682e-09 -2.05316e-08 0)
(6.57445e-08 -3.23602e-08 0)
(3.445e-09 -2.95726e-08 0)
(1.83782e-08 -2.94024e-08 0)
(1.08062e-08 -3.89814e-08 0)
(3.96082e-09 -2.96763e-08 0)
(1.14952e-08 -2.56794e-08 0)
(1.00931e-08 -1.82814e-08 0)
(8.48942e-09 -5.93163e-09 0)
(4.18217e-09 -1.11812e-09 0)
(3.46237e-09 6.08035e-09 0)
(7.2186e-09 1.18369e-08 0)
(8.42737e-09 1.37663e-08 0)
(1.00164e-08 1.61923e-08 0)
(2.04203e-08 1.48057e-08 0)
(2.76569e-08 1.07203e-08 0)
(3.31699e-08 6.94855e-09 0)
(4.31125e-08 2.97295e-09 0)
)
;
    }
    frontAndBack
    {
        type            empty;
    }
}


// ************************************************************************* //
