/*--------------------------------*- C++ -*----------------------------------*\
  =========                 |
  \\      /  F ield         | OpenFOAM: The Open Source CFD Toolbox
   \\    /   O peration     | Website:  https://openfoam.org
    \\  /    A nd           | Version:  9
     \\/     M anipulation  |
\*---------------------------------------------------------------------------*/
FoamFile
{
    format      ascii;
    class       surfaceScalarField;
    location    "31";
    object      ddtCorrDdt0(phi);
}
// * * * * * * * * * * * * * * * * * * * * * * * * * * * * * * * * * * * * * //

dimensions      [0 4 -2 0 0 0 0];

internalField   nonuniform List<scalar> 
760
(
4.20037e-11
-1.54516e-11
3.65938e-11
3.62844e-11
8.12183e-11
-2.12676e-11
2.78018e-10
-1.61289e-10
5.04928e-10
-1.76698e-10
5.40053e-10
-9.12924e-12
3.8479e-10
1.61732e-10
2.86071e-10
1.12513e-10
3.63426e-10
-4.12009e-11
4.44009e-10
-1.00118e-10
3.0593e-10
5.11645e-11
2.53567e-11
3.53225e-10
-1.55573e-10
3.52494e-10
-2.3035e-11
2.59191e-10
2.88299e-10
1.56057e-10
5.5893e-10
1.29374e-10
5.09561e-10
1.83519e-10
2.18872e-10
4.02162e-10
2.8944e-12
8.75352e-11
-5.89915e-11
5.30492e-11
5.35412e-12
3.98426e-11
9.26976e-11
8.60996e-11
-2.12104e-11
2.83043e-10
-2.75156e-10
4.86483e-10
-3.35353e-10
5.23226e-10
-1.98018e-11
3.79059e-10
3.06597e-10
3.15146e-10
2.58463e-10
3.611e-10
-1.19018e-10
4.72971e-10
-1.8358e-10
2.72344e-10
1.54497e-10
6.38126e-11
5.80291e-10
-5.93652e-11
7.12818e-10
1.1798e-11
4.84318e-10
2.48693e-10
3.00648e-10
3.92456e-10
2.97794e-10
3.70271e-10
4.6399e-10
2.49728e-10
5.23777e-10
2.31073e-10
1.94936e-10
-1.00623e-10
5.23221e-11
6.0841e-11
4.52618e-11
1.66557e-10
1.14663e-10
2.36059e-11
2.75474e-10
-3.2997e-10
4.34641e-10
-4.44407e-10
4.82041e-10
-3.17334e-11
4.28602e-10
4.37165e-10
3.49734e-10
3.52372e-10
3.99366e-10
-1.24863e-10
3.52218e-10
-2.3994e-10
3.68856e-10
2.54284e-10
8.53112e-11
7.62088e-10
-4.36969e-12
9.79558e-10
8.8544e-11
6.40671e-10
2.6483e-10
3.203e-10
4.28826e-10
2.53048e-10
4.86754e-10
5.29414e-10
1.65651e-10
8.57161e-10
-2.63668e-11
3.76907e-10
-1.08944e-10
4.31621e-11
1.49649e-10
4.61133e-11
2.73105e-10
1.29136e-10
9.40708e-11
2.58325e-10
-3.40105e-10
3.96306e-10
-4.82048e-10
4.60847e-10
7.00592e-12
4.5045e-10
5.67292e-10
3.63264e-10
3.67245e-10
4.54957e-10
-6.85419e-11
3.82417e-10
-3.83094e-10
2.95977e-10
2.43781e-10
2.67662e-10
9.04141e-10
6.94622e-11
9.79667e-10
1.4494e-10
7.05402e-10
2.49215e-10
3.56238e-10
2.08479e-10
2.63473e-10
1.61259e-10
5.93231e-10
2.10658e-10
8.59942e-10
2.75193e-10
3.28606e-10
-1.3671e-10
3.44533e-11
2.40637e-10
6.12389e-11
3.75844e-10
1.36708e-10
1.69654e-10
2.2876e-10
-2.90554e-10
3.43123e-10
-4.3633e-10
4.64485e-10
9.24836e-11
4.19662e-10
5.6182e-10
5.30152e-10
4.90101e-10
3.25179e-10
-2.5268e-10
6.03773e-10
-3.09181e-10
2.09783e-10
-2.31017e-11
2.67642e-10
9.82187e-10
3.05297e-10
1.02501e-09
2.0505e-10
5.19479e-10
2.37486e-10
2.04313e-10
3.03635e-10
1.7229e-10
2.50586e-10
5.50601e-10
4.08695e-11
9.76014e-10
-3.65907e-11
3.61117e-10
-1.7627e-10
3.64473e-11
2.97243e-10
7.79368e-11
4.35453e-10
1.40992e-10
2.27867e-10
2.0585e-10
-1.98275e-10
3.28167e-10
-3.1475e-10
3.73534e-10
1.06317e-10
4.96588e-10
6.0377e-10
5.11742e-10
3.58995e-10
4.57734e-10
-2.37445e-10
2.66264e-10
-1.97873e-10
5.64918e-10
-2.55147e-10
2.3083e-10
4.74311e-10
4.12452e-10
1.01667e-09
3.94074e-10
5.48266e-10
1.95827e-10
1.14927e-10
1.16378e-10
9.1008e-11
1.09855e-10
4.16135e-10
1.70709e-10
7.88624e-10
1.42749e-10
2.96852e-10
-1.59945e-10
5.16224e-11
3.01637e-10
1.00657e-10
4.25876e-10
1.55907e-10
2.49608e-10
2.11986e-10
-9.29151e-11
2.53752e-10
-2.11587e-10
3.57883e-10
1.41641e-10
4.64015e-10
4.77949e-10
4.60522e-10
2.91522e-10
7.36244e-10
-9.69285e-11
-1.87835e-10
-9.39346e-10
6.74071e-10
2.09949e-09
6.58091e-10
4.27199e-10
3.32886e-10
6.09881e-10
3.22021e-10
4.10747e-10
2.23417e-10
1.14693e-10
6.38903e-11
8.06497e-11
8.58882e-11
-3.26922e-10
1.29364e-10
6.44705e-10
1.06859e-10
1.95469e-10
-1.77495e-10
7.50198e-11
2.5297e-10
1.29459e-10
3.47086e-10
1.83587e-10
2.16388e-10
2.06658e-10
-3.45809e-11
2.10286e-10
-1.30497e-10
2.7158e-10
7.47188e-11
4.68607e-10
3.33832e-10
6.67377e-10
1.75137e-10
3.6938e-10
-2.9665e-10
1.63976e-09
2.31879e-10
-3.58242e-11
-4.51962e-08
8.33127e-10
1.06454e-09
7.3993e-10
5.54838e-10
4.71943e-10
2.41205e-10
2.55655e-10
1.01542e-10
9.93511e-11
1.97357e-11
-4.50669e-11
1.98091e-10
3.23362e-11
4.02052e-10
1.02215e-10
5.65041e-11
-1.47178e-10
9.74596e-11
1.56352e-10
1.6661e-10
2.04885e-10
2.12153e-10
1.35023e-10
2.02071e-10
-1.91977e-11
1.45712e-10
-1.13161e-10
2.4678e-10
3.19099e-12
4.4301e-10
1.18314e-10
5.07956e-10
1.33048e-10
6.53742e-10
4.22059e-11
-8.8975e-10
-8.09243e-10
7.23918e-10
1.59968e-09
2.53792e-10
8.22357e-12
5.41293e-10
-2.82042e-11
5.70452e-10
5.36867e-11
2.6758e-10
8.51114e-11
-6.10562e-12
3.86938e-11
-7.93143e-11
-2.34967e-09
9.08627e-11
1.68715e-10
1.71669e-10
-3.43848e-11
-1.59705e-10
1.09381e-10
2.65662e-11
1.91834e-10
2.81307e-11
2.40762e-10
5.82818e-12
1.95516e-10
-3.28192e-11
1.08841e-10
-8.08884e-11
2.04301e-10
-1.06698e-10
4.88795e-10
-3.96519e-11
6.65122e-10
-3.55266e-11
1.75232e-10
-1.0155e-10
9.45562e-10
2.41727e-10
1.39516e-10
-5.72259e-10
3.34286e-10
-2.36469e-10
9.22286e-10
1.98548e-10
6.34931e-10
2.15764e-11
2.63571e-10
1.53524e-11
-3.31236e-11
2.00792e-12
-1.16288e-10
-4.23224e-11
4.47871e-11
-7.72199e-11
1.39534e-10
-1.45071e-10
-5.41438e-11
1.13023e-10
-1.10011e-10
1.98131e-10
-1.62726e-10
2.37403e-10
-1.25694e-10
1.87301e-10
-4.43732e-11
9.65947e-11
-2.54006e-11
2.39119e-10
-1.69826e-10
5.07387e-10
-3.0842e-10
5.4935e-10
-1.55044e-10
5.19141e-10
6.18011e-11
1.59643e-10
-2.44747e-11
2.79325e-10
2.26946e-09
8.64826e-10
-1.52008e-10
7.49535e-10
-1.86013e-10
6.30942e-10
-6.4724e-11
3.15378e-10
4.44424e-11
-1.60601e-11
-2.47772e-11
-1.06841e-10
-2.13257e-10
5.29118e-11
-3.51055e-10
1.47844e-10
-2.65588e-10
-2.09215e-11
1.04381e-10
-2.27188e-10
1.88194e-10
-3.25558e-10
2.12871e-10
-2.28015e-10
1.99322e-10
-2.01124e-11
1.68864e-10
2.87261e-11
2.66634e-10
-1.98141e-10
4.91188e-10
-4.76968e-10
5.31083e-10
-3.27864e-10
4.24848e-10
4.7408e-11
2.11645e-10
6.3363e-10
-2.09552e-09
-1.60537e-08
6.9057e-10
1.53961e-10
7.31828e-10
-3.37442e-10
6.53141e-10
-1.51384e-10
3.63775e-10
2.93548e-12
2.76659e-12
1.94969e-10
-6.61394e-11
-4.08292e-10
6.84429e-11
-6.19195e-10
1.32091e-10
-3.8936e-10
1.64471e-11
8.30157e-11
-2.92406e-10
1.6057e-10
-4.18914e-10
1.94885e-10
-2.68323e-10
2.15472e-10
4.09951e-11
2.34603e-10
1.29296e-10
2.72621e-10
-2.32013e-10
4.80251e-10
-5.94411e-10
5.51346e-10
-4.8749e-10
6.02502e-10
2.31934e-10
2.25495e-10
2.10353e-11
3.15739e-09
2.51885e-09
3.30377e-10
-7.9636e-10
5.79207e-10
-6.88225e-10
5.61343e-10
-2.67431e-10
3.08611e-10
-7.28005e-11
1.16779e-10
-1.22454e-10
-3.55762e-11
-4.69909e-10
4.61284e-11
-8.48013e-10
9.45226e-11
-5.02479e-10
3.8503e-11
6.23331e-11
-2.93259e-10
1.39014e-10
-4.24765e-10
1.84327e-10
-2.42973e-10
2.34736e-10
1.34275e-10
3.05089e-10
2.14563e-10
3.596e-10
-2.49038e-10
3.64011e-10
-6.8103e-10
5.74987e-10
-4.20535e-10
3.21324e-10
1.60814e-11
8.00761e-10
5.42658e-10
7.74694e-11
-5.23645e-10
3.62208e-10
-7.32016e-10
4.80117e-10
-7.80809e-10
3.43926e-10
-5.23918e-10
2.57223e-10
-1.64887e-10
1.59487e-10
-1.57457e-10
1.06007e-10
-5.81826e-10
1.10571e-10
-9.86469e-10
1.01891e-10
-5.44254e-10
6.83084e-11
5.6055e-11
-2.3706e-10
1.21573e-10
-3.62289e-10
1.79435e-10
-1.70318e-10
2.53185e-10
2.24367e-10
3.70915e-10
2.92058e-10
4.16963e-10
-2.45077e-10
4.16766e-10
-7.31736e-10
4.2367e-10
-4.8735e-10
5.44071e-10
1.73243e-10
3.05276e-10
3.64093e-10
3.11212e-10
-2.97412e-10
3.59753e-10
-7.4595e-10
2.75525e-10
-1.00215e-09
3.33376e-10
-5.35186e-10
3.17522e-10
-1.49216e-10
2.47658e-10
-1.85066e-10
1.73153e-10
-6.50559e-10
1.04904e-10
-1.04306e-09
6.59661e-11
-5.56184e-10
8.17736e-11
6.11873e-11
-1.5009e-10
1.12032e-10
-2.67436e-10
1.72564e-10
-9.11475e-11
2.65935e-10
2.85843e-10
4.10471e-10
3.44812e-10
4.84525e-10
-2.02785e-10
4.40607e-10
-7.27294e-10
3.78328e-10
-5.15041e-10
4.03407e-10
1.73211e-10
2.69121e-10
3.43849e-10
3.58622e-10
-1.60409e-10
2.21839e-10
-8.61658e-10
2.46056e-10
-8.98554e-10
3.10879e-10
-4.76135e-10
3.47193e-10
-1.93799e-10
3.3766e-10
-2.31088e-10
2.42416e-10
-6.44864e-10
9.7529e-11
-1.00814e-09
2.7934e-11
-5.41286e-10
7.45037e-11
6.60955e-11
-6.56955e-11
1.08888e-10
-1.72013e-10
1.67164e-10
-3.49209e-11
2.74553e-10
2.99533e-10
4.30567e-10
3.51626e-10
5.09675e-10
-1.24829e-10
4.54049e-10
-6.16157e-10
3.82579e-10
-4.90085e-10
3.7279e-10
2.98427e-11
4.29541e-10
2.39986e-10
2.92404e-10
-1.59197e-10
1.52668e-10
-7.14084e-10
1.34477e-10
-8.08072e-10
2.41406e-10
-5.10323e-10
3.36959e-10
-2.39497e-10
3.58866e-10
-2.49976e-10
2.95357e-10
-6.02199e-10
1.46444e-10
-9.04234e-10
5.2795e-11
-4.73459e-10
6.37866e-11
6.34873e-11
-8.99457e-12
9.16734e-11
-8.63318e-11
1.61352e-10
-4.16034e-12
2.92941e-10
2.29187e-10
4.65273e-10
2.90966e-10
5.14824e-10
-4.60912e-11
4.24883e-10
-4.07917e-10
3.30128e-10
-3.61325e-10
3.34071e-10
-2.71872e-11
3.48223e-10
1.14231e-10
3.23964e-10
-2.14946e-10
1.91293e-10
-5.837e-10
7.26729e-11
-6.53733e-10
1.33515e-10
-4.19416e-10
2.93359e-10
-2.34907e-10
4.13302e-10
-2.48233e-10
3.75395e-10
-4.8783e-10
1.84309e-10
-6.90022e-10
6.27203e-11
-3.51349e-10
4.72326e-11
6.02882e-11
9.2808e-12
8.03733e-11
-3.26223e-11
1.56865e-10
5.77613e-12
3.17099e-10
1.23529e-10
4.7615e-10
1.68304e-10
5.11637e-10
-6.74775e-12
4.01284e-10
-2.078e-10
3.07958e-10
-1.91766e-10
3.5229e-10
-2.19832e-11
4.00967e-10
2.62485e-11
2.80467e-10
-1.16839e-10
3.85068e-11
-3.3173e-10
-8.85719e-11
-3.86679e-10
6.44444e-11
-2.74373e-10
3.42681e-10
-1.72765e-10
5.12142e-10
-1.54105e-10
4.41105e-10
-2.58136e-10
1.98334e-10
-3.58939e-10
6.36555e-11
-1.86451e-10
2.23512e-11
6.08358e-11
6.98697e-11
1.39761e-10
3.36493e-10
5.01148e-10
5.1653e-10
3.7474e-10
2.65852e-10
3.17938e-10
3.83782e-10
3.02102e-10
6.08457e-11
-8.49088e-11
3.93419e-11
3.31361e-10
5.29295e-10
4.88401e-10
2.65602e-10
1.17745e-10
)
;

boundaryField
{
    sides
    {
        type            calculated;
        value           uniform 0;
    }
    inlet
    {
        type            calculated;
        value           uniform 0;
    }
    outlet
    {
        type            calculated;
        value           nonuniform List<scalar> 
20
(
2.82416e-11
2.65099e-10
-6.41639e-11
3.18211e-10
-1.08047e-11
9.36948e-11
8.18048e-11
6.19017e-11
1.10655e-10
1.19566e-10
1.01384e-10
6.83795e-11
5.69102e-11
7.15674e-11
5.51888e-11
3.51622e-11
6.38303e-11
7.97963e-11
8.81836e-11
1.29621e-10
)
;
    }
    frontAndBack
    {
        type            empty;
        value           nonuniform List<scalar> 0();
    }
}


// ************************************************************************* //
