/*--------------------------------*- C++ -*----------------------------------*\
  =========                 |
  \\      /  F ield         | OpenFOAM: The Open Source CFD Toolbox
   \\    /   O peration     | Website:  https://openfoam.org
    \\  /    A nd           | Version:  9
     \\/     M anipulation  |
\*---------------------------------------------------------------------------*/
FoamFile
{
    format      ascii;
    class       volScalarField;
    location    "31";
    object      h;
}
// * * * * * * * * * * * * * * * * * * * * * * * * * * * * * * * * * * * * * //

dimensions      [0 1 0 0 0 0 0];

internalField   nonuniform List<scalar> 
400
(
0.0100008
0.0100008
0.0100006
0.0100005
0.0100003
0.01
0.00999978
0.00999954
0.00999933
0.00999918
0.00999912
0.00999917
0.00999933
0.00999954
0.00999977
0.00999995
0.0100001
0.0100001
0.0100001
0.01
0.0100008
0.0100007
0.0100006
0.0100004
0.0100002
0.00999993
0.00999966
0.00999939
0.00999914
0.00999895
0.00999887
0.00999893
0.00999911
0.00999936
0.00999962
0.00999984
0.00999997
0.01
0.01
0.01
0.0100008
0.0100007
0.0100006
0.0100004
0.0100002
0.00999991
0.0099996
0.00999928
0.00999898
0.00999874
0.00999862
0.00999865
0.00999885
0.00999918
0.00999955
0.00999986
0.0100001
0.0100001
0.0100001
0.01
0.0100009
0.0100008
0.0100007
0.0100005
0.0100002
0.00999991
0.00999954
0.00999912
0.00999869
0.00999832
0.00999811
0.00999815
0.00999846
0.00999897
0.00999951
0.0099999
0.0100001
0.0100001
0.01
0.00999998
0.010001
0.0100009
0.0100008
0.0100006
0.0100003
0.00999997
0.00999951
0.00999896
0.00999835
0.00999777
0.00999737
0.00999738
0.00999788
0.00999874
0.00999965
0.0100003
0.0100004
0.0100003
0.0100001
0.00999999
0.0100011
0.010001
0.0100009
0.0100008
0.0100005
0.0100001
0.00999958
0.00999881
0.00999793
0.00999707
0.00999649
0.00999642
0.00999717
0.00999851
0.00999979
0.0100005
0.0100005
0.0100002
0.00999994
0.00999992
0.0100012
0.0100012
0.0100011
0.010001
0.0100009
0.0100005
0.00999989
0.00999887
0.00999732
0.00999554
0.00999428
0.00999466
0.00999675
0.0099995
0.0100013
0.0100015
0.0100008
0.01
0.00999975
0.00999988
0.0100014
0.0100014
0.0100014
0.0100014
0.0100013
0.0100011
0.0100006
0.00999947
0.00999754
0.00999448
0.00999061
0.00999031
0.00999452
0.0100002
0.0100033
0.010003
0.0100012
0.00999983
0.0099995
0.00999983
0.0100015
0.0100015
0.0100016
0.0100019
0.0100021
0.0100022
0.0100016
0.00999968
0.00999567
0.00998983
0.00998689
0.00998979
0.00999803
0.0100036
0.0100043
0.0100023
0.0100002
0.00999933
0.00999944
0.00999988
0.0100015
0.0100015
0.0100017
0.0100022
0.0100029
0.0100043
0.0100061
0.010008
0.0100051
0.0089786
0.00895253
0.00997587
0.0100088
0.0100178
0.0100104
0.0100022
0.00999879
0.00999888
0.00999978
0.0100002
0.0100014
0.0100015
0.0100016
0.0100021
0.0100029
0.0100042
0.010006
0.010008
0.010005
0.0089786
0.00895248
0.00997588
0.0100088
0.0100177
0.0100103
0.0100022
0.00999879
0.00999886
0.00999975
0.0100001
0.0100013
0.0100013
0.0100014
0.0100017
0.0100019
0.010002
0.0100014
0.00999948
0.00999548
0.00998969
0.00998669
0.00998963
0.00999792
0.0100035
0.0100042
0.0100022
0.0100002
0.0099993
0.00999946
0.00999989
0.0100011
0.010001
0.010001
0.0100011
0.010001
0.0100008
0.0100002
0.00999917
0.00999727
0.00999418
0.0099904
0.00999007
0.00999426
0.00999993
0.010003
0.0100028
0.0100011
0.00999976
0.00999947
0.00999983
0.0100008
0.0100007
0.0100007
0.0100006
0.0100004
0.0100001
0.00999945
0.00999843
0.00999689
0.0099951
0.0099939
0.00999424
0.00999641
0.00999921
0.0100011
0.0100013
0.0100006
0.00999991
0.00999965
0.00999984
0.0100005
0.0100005
0.0100003
0.0100002
0.00999994
0.00999956
0.009999
0.00999827
0.0099974
0.00999657
0.00999599
0.00999598
0.00999677
0.00999814
0.00999947
0.0100002
0.0100003
0.01
0.00999983
0.00999989
0.0100003
0.0100002
0.0100001
0.00999988
0.00999962
0.00999926
0.00999881
0.00999828
0.0099977
0.00999713
0.00999675
0.0099968
0.00999733
0.00999824
0.0099992
0.00999985
0.0100001
0.01
0.00999992
0.00999993
0.01
0.00999995
0.00999981
0.00999964
0.00999939
0.00999908
0.00999871
0.00999831
0.0099979
0.00999757
0.00999741
0.00999748
0.00999783
0.00999839
0.009999
0.00999949
0.00999975
0.00999983
0.00999986
0.00999992
0.00999984
0.00999975
0.00999962
0.00999944
0.00999922
0.00999895
0.00999864
0.00999833
0.00999803
0.0099978
0.00999771
0.0099978
0.00999806
0.00999845
0.00999888
0.00999926
0.00999954
0.0099997
0.00999981
0.00999992
0.00999967
0.00999959
0.00999947
0.0099993
0.0099991
0.00999886
0.00999861
0.00999835
0.00999813
0.00999798
0.00999793
0.00999802
0.00999823
0.00999854
0.00999889
0.00999921
0.00999946
0.00999964
0.00999979
0.00999992
0.00999953
0.00999945
0.00999932
0.00999916
0.00999895
0.00999873
0.0099985
0.00999827
0.00999807
0.00999795
0.00999793
0.00999802
0.00999823
0.00999851
0.0099988
0.00999907
0.00999931
0.0099995
0.00999969
0.00999987
)
;

boundaryField
{
    sides
    {
        type            zeroGradient;
    }
    inlet
    {
        type            zeroGradient;
    }
    outlet
    {
        type            fixedValue;
        value           uniform 0.01;
    }
    frontAndBack
    {
        type            empty;
    }
}


// ************************************************************************* //
