/*--------------------------------*- C++ -*----------------------------------*\
  =========                 |
  \\      /  F ield         | OpenFOAM: The Open Source CFD Toolbox
   \\    /   O peration     | Website:  https://openfoam.org
    \\  /    A nd           | Version:  9
     \\/     M anipulation  |
\*---------------------------------------------------------------------------*/
FoamFile
{
    format      ascii;
    class       volScalarField;
    location    "31";
    object      h_0;
}
// * * * * * * * * * * * * * * * * * * * * * * * * * * * * * * * * * * * * * //

dimensions      [0 1 0 0 0 0 0];

internalField   nonuniform List<scalar> 
400
(
0.0100008
0.0100008
0.0100006
0.0100005
0.0100003
0.01
0.00999974
0.00999949
0.00999927
0.00999911
0.00999905
0.00999911
0.00999928
0.00999953
0.00999979
0.01
0.0100001
0.0100002
0.0100001
0.0100001
0.0100008
0.0100007
0.0100006
0.0100004
0.0100002
0.00999991
0.00999963
0.00999934
0.00999908
0.00999889
0.0099988
0.00999887
0.00999907
0.00999935
0.00999964
0.00999988
0.01
0.0100001
0.01
0.01
0.0100008
0.0100007
0.0100006
0.0100004
0.0100002
0.0099999
0.00999958
0.00999924
0.00999893
0.00999868
0.00999857
0.0099986
0.00999882
0.00999917
0.00999956
0.0099999
0.0100001
0.0100002
0.0100001
0.01
0.0100009
0.0100008
0.0100007
0.0100005
0.0100002
0.00999991
0.00999953
0.0099991
0.00999866
0.00999828
0.00999807
0.00999811
0.00999842
0.00999896
0.00999952
0.00999992
0.0100001
0.0100001
0.01
0.00999998
0.010001
0.0100009
0.0100008
0.0100006
0.0100003
0.00999998
0.00999951
0.00999895
0.00999833
0.00999774
0.00999733
0.00999736
0.00999785
0.00999873
0.00999965
0.0100003
0.0100004
0.0100003
0.0100001
0.00999999
0.0100011
0.0100011
0.010001
0.0100008
0.0100005
0.0100002
0.00999958
0.00999881
0.00999791
0.00999705
0.00999646
0.00999639
0.00999716
0.0099985
0.00999978
0.0100005
0.0100005
0.0100002
0.00999993
0.00999992
0.0100013
0.0100012
0.0100012
0.0100011
0.0100009
0.0100005
0.0099999
0.00999886
0.00999732
0.00999549
0.00999431
0.00999462
0.00999673
0.00999949
0.0100013
0.0100015
0.0100008
0.01
0.00999973
0.00999987
0.0100014
0.0100014
0.0100014
0.0100014
0.0100014
0.0100011
0.0100006
0.00999946
0.00999753
0.00999445
0.00999053
0.00999032
0.00999451
0.0100002
0.0100033
0.010003
0.0100012
0.00999979
0.00999947
0.00999982
0.0100015
0.0100015
0.0100017
0.0100019
0.0100021
0.0100022
0.0100016
0.00999967
0.00999566
0.00998983
0.00998694
0.00998976
0.00999803
0.0100036
0.0100043
0.0100023
0.0100002
0.00999928
0.00999941
0.00999987
0.0100015
0.0100016
0.0100018
0.0100022
0.0100029
0.0100043
0.0100061
0.010008
0.010005
0.00897862
0.00895247
0.00997589
0.0100088
0.0100177
0.0100103
0.0100022
0.00999875
0.00999884
0.00999975
0.0100001
0.0100015
0.0100015
0.0100017
0.0100021
0.0100029
0.0100042
0.010006
0.0100079
0.010005
0.00897856
0.00895251
0.00997587
0.0100088
0.0100177
0.0100103
0.0100022
0.00999874
0.00999882
0.00999972
0.0100001
0.0100013
0.0100013
0.0100015
0.0100017
0.0100019
0.010002
0.0100014
0.00999947
0.00999546
0.00998968
0.00998661
0.00998965
0.00999792
0.0100035
0.0100042
0.0100022
0.0100001
0.00999926
0.00999943
0.00999988
0.0100011
0.0100011
0.0100011
0.0100011
0.010001
0.0100008
0.0100002
0.00999917
0.00999726
0.00999416
0.00999047
0.00999003
0.00999425
0.00999991
0.010003
0.0100028
0.010001
0.00999972
0.00999945
0.00999982
0.0100008
0.0100008
0.0100007
0.0100006
0.0100004
0.0100001
0.00999946
0.00999843
0.00999688
0.0099951
0.00999384
0.00999424
0.0099964
0.0099992
0.0100011
0.0100013
0.0100006
0.00999988
0.00999963
0.00999983
0.0100006
0.0100005
0.0100004
0.0100002
0.00999997
0.00999957
0.009999
0.00999826
0.00999739
0.00999655
0.00999598
0.00999596
0.00999675
0.00999814
0.00999946
0.0100002
0.0100003
0.01
0.00999982
0.00999988
0.0100003
0.0100002
0.0100001
0.00999991
0.00999964
0.00999928
0.00999881
0.00999827
0.00999768
0.0099971
0.00999672
0.00999677
0.00999731
0.00999823
0.0099992
0.00999986
0.0100001
0.01
0.00999993
0.00999993
0.0100001
0.00999998
0.00999984
0.00999966
0.00999941
0.00999908
0.0099987
0.00999828
0.00999787
0.00999753
0.00999736
0.00999744
0.00999779
0.00999837
0.00999901
0.0099995
0.00999977
0.00999985
0.00999987
0.00999993
0.00999986
0.00999978
0.00999964
0.00999946
0.00999922
0.00999894
0.00999863
0.0099983
0.00999799
0.00999775
0.00999766
0.00999775
0.00999802
0.00999844
0.00999889
0.0099993
0.00999958
0.00999974
0.00999984
0.00999993
0.00999969
0.00999962
0.00999949
0.00999932
0.00999909
0.00999884
0.00999858
0.00999832
0.00999808
0.00999792
0.00999788
0.00999796
0.00999819
0.00999853
0.00999891
0.00999926
0.00999952
0.0099997
0.00999982
0.00999993
0.00999955
0.00999947
0.00999934
0.00999917
0.00999895
0.00999871
0.00999846
0.00999822
0.00999802
0.00999789
0.00999786
0.00999797
0.00999819
0.0099985
0.00999883
0.00999913
0.00999937
0.00999956
0.00999973
0.00999989
)
;

boundaryField
{
    sides
    {
        type            zeroGradient;
    }
    inlet
    {
        type            zeroGradient;
    }
    outlet
    {
        type            fixedValue;
        value           uniform 0.01;
    }
    frontAndBack
    {
        type            empty;
    }
}


// ************************************************************************* //
