/*--------------------------------*- C++ -*----------------------------------*\
  =========                 |
  \\      /  F ield         | OpenFOAM: The Open Source CFD Toolbox
   \\    /   O peration     | Website:  https://openfoam.org
    \\  /    A nd           | Version:  9
     \\/     M anipulation  |
\*---------------------------------------------------------------------------*/
FoamFile
{
    format      ascii;
    class       volVectorField;
    location    "31";
    object      hU_0;
}
// * * * * * * * * * * * * * * * * * * * * * * * * * * * * * * * * * * * * * //

dimensions      [0 2 -1 0 0 0 0];

internalField   nonuniform List<vector> 
400
(
(0.00100001 -2.49167e-08 0)
(0.00100007 -7.74807e-08 0)
(0.00100017 -1.26495e-07 0)
(0.00100031 -1.63492e-07 0)
(0.00100048 -1.88671e-07 0)
(0.00100065 -2.14087e-07 0)
(0.00100084 -2.43418e-07 0)
(0.00100104 -2.62858e-07 0)
(0.00100124 -2.5231e-07 0)
(0.00100138 -2.13904e-07 0)
(0.00100141 -1.61663e-07 0)
(0.00100136 -1.27223e-07 0)
(0.00100124 -1.05695e-07 0)
(0.00100107 -1.02139e-07 0)
(0.00100084 -1.01591e-07 0)
(0.00100062 -1.25783e-07 0)
(0.00100042 -1.4161e-07 0)
(0.00100032 -1.8916e-07 0)
(0.00100028 -1.79558e-07 0)
(0.00100038 -2.63825e-07 0)
(0.00100001 -2.92547e-08 0)
(0.00100007 -9.62363e-08 0)
(0.00100018 -1.62304e-07 0)
(0.00100033 -2.05295e-07 0)
(0.0010005 -2.20558e-07 0)
(0.00100069 -2.35138e-07 0)
(0.0010009 -2.61807e-07 0)
(0.00100113 -2.65093e-07 0)
(0.00100136 -1.97338e-07 0)
(0.00100152 -6.02727e-08 0)
(0.00100157 1.02753e-07 0)
(0.00100151 2.45973e-07 0)
(0.00100136 3.62035e-07 0)
(0.00100114 4.45218e-07 0)
(0.00100089 4.96156e-07 0)
(0.00100065 4.71528e-07 0)
(0.00100047 4.14877e-07 0)
(0.00100036 2.63819e-07 0)
(0.00100035 1.8006e-07 0)
(0.00100032 7.39162e-08 0)
(0.00100001 -5.74729e-08 0)
(0.00100008 -1.86451e-07 0)
(0.00100017 -3.1851e-07 0)
(0.00100032 -4.20666e-07 0)
(0.0010005 -4.84187e-07 0)
(0.00100072 -5.46797e-07 0)
(0.00100095 -6.25819e-07 0)
(0.00100122 -6.62761e-07 0)
(0.00100149 -5.80601e-07 0)
(0.00100169 -3.69029e-07 0)
(0.00100177 -9.58444e-08 0)
(0.00100173 1.61074e-07 0)
(0.00100155 3.59297e-07 0)
(0.00100127 4.69846e-07 0)
(0.00100092 4.84257e-07 0)
(0.0010006 3.84177e-07 0)
(0.00100034 2.59515e-07 0)
(0.00100023 6.90529e-08 0)
(0.00100022 -2.12792e-08 0)
(0.00100033 -1.19126e-07 0)
(0.00100001 -8.0703e-08 0)
(0.00100008 -2.6036e-07 0)
(0.00100018 -4.42066e-07 0)
(0.00100032 -5.88978e-07 0)
(0.00100052 -6.9161e-07 0)
(0.00100076 -7.96551e-07 0)
(0.00100106 -9.14446e-07 0)
(0.0010014 -9.64594e-07 0)
(0.00100176 -8.32186e-07 0)
(0.00100207 -4.91411e-07 0)
(0.00100223 5.52461e-09 0)
(0.00100217 4.95077e-07 0)
(0.00100189 8.88409e-07 0)
(0.00100143 1.0792e-06 0)
(0.00100094 1.03446e-06 0)
(0.00100056 7.79514e-07 0)
(0.00100039 4.93228e-07 0)
(0.00100035 1.94095e-07 0)
(0.0010004 7.43834e-08 0)
(0.00100034 -2.1968e-09 0)
(0.00100001 -1.00085e-07 0)
(0.00100008 -3.23051e-07 0)
(0.00100016 -5.52702e-07 0)
(0.0010003 -7.59243e-07 0)
(0.00100051 -9.32999e-07 0)
(0.00100079 -1.12267e-06 0)
(0.00100116 -1.32337e-06 0)
(0.00100161 -1.42048e-06 0)
(0.00100211 -1.2536e-06 0)
(0.0010026 -7.9685e-07 0)
(0.00100291 -1.43225e-07 0)
(0.00100286 5.8526e-07 0)
(0.00100242 1.18326e-06 0)
(0.00100164 1.45159e-06 0)
(0.00100083 1.35626e-06 0)
(0.00100028 1.00185e-06 0)
(0.0010001 6.53276e-07 0)
(0.00100018 3.32425e-07 0)
(0.00100035 2.1885e-07 0)
(0.00100042 1.59632e-07 0)
(0.00100001 -1.13816e-07 0)
(0.00100007 -3.67182e-07 0)
(0.00100013 -6.40336e-07 0)
(0.00100024 -9.1092e-07 0)
(0.00100044 -1.1846e-06 0)
(0.00100075 -1.50587e-06 0)
(0.00100122 -1.87978e-06 0)
(0.00100184 -2.13287e-06 0)
(0.00100258 -1.98718e-06 0)
(0.00100328 -1.21097e-06 0)
(0.00100378 1.14138e-07 0)
(0.00100378 1.54983e-06 0)
(0.00100308 2.37748e-06 0)
(0.00100189 2.23398e-06 0)
(0.00100078 1.40527e-06 0)
(0.00100016 5.26287e-07 0)
(0.00100015 8.1527e-08 0)
(0.00100035 -5.85494e-08 0)
(0.00100061 3.77638e-08 0)
(0.00100051 5.14649e-08 0)
(0.001 -1.13517e-07 0)
(0.00100005 -3.81245e-07 0)
(0.00100007 -6.75866e-07 0)
(0.00100012 -1.02416e-06 0)
(0.00100026 -1.40363e-06 0)
(0.00100055 -1.92788e-06 0)
(0.00100107 -2.5038e-06 0)
(0.00100194 -3.14765e-06 0)
(0.00100325 -3.29491e-06 0)
(0.00100475 -2.88433e-06 0)
(0.00100575 -6.43278e-07 0)
(0.00100535 2.56736e-06 0)
(0.00100348 4.78717e-06 0)
(0.00100111 4.67479e-06 0)
(0.000999583 3.00034e-06 0)
(0.00099934 1.28872e-06 0)
(0.00099998 4.92172e-07 0)
(0.00100054 3.40346e-07 0)
(0.00100089 5.25761e-07 0)
(0.00100061 5.32632e-07 0)
(0.001 -1.02535e-07 0)
(0.00100002 -3.30527e-07 0)
(0.000999957 -6.39685e-07 0)
(0.000999915 -1.01019e-06 0)
(0.000999928 -1.58973e-06 0)
(0.00100016 -2.33149e-06 0)
(0.00100058 -3.41399e-06 0)
(0.00100158 -4.17442e-06 0)
(0.00100311 -4.4171e-06 0)
(0.00100602 -2.55472e-06 0)
(0.00100911 7.88062e-07 0)
(0.00100918 4.27756e-06 0)
(0.00100551 4.68834e-06 0)
(0.00100071 2.73899e-06 0)
(0.000998117 7.14499e-07 0)
(0.000998241 -2.5802e-07 0)
(0.000999769 -2.39907e-07 0)
(0.00100085 3.32686e-09 0)
(0.00100128 1.9133e-07 0)
(0.00100078 1.0692e-07 0)
(0.000999999 -5.74131e-08 0)
(0.00099997 -2.35591e-07 0)
(0.000999807 -4.32968e-07 0)
(0.000999567 -7.75553e-07 0)
(0.000999334 -1.3515e-06 0)
(0.000999277 -2.47543e-06 0)
(0.000999779 -4.69511e-06 0)
(0.00100145 -8.09759e-06 0)
(0.00100495 -1.33104e-05 0)
(0.00100959 -1.49124e-05 0)
(0.00101191 3.87137e-06 0)
(0.00100894 1.87326e-05 0)
(0.00100223 1.57539e-05 0)
(0.000997561 5.70576e-06 0)
(0.000996857 -3.32313e-07 0)
(0.000998427 -1.25863e-06 0)
(0.00100024 -7.37688e-08 0)
(0.00100098 6.37595e-07 0)
(0.00100102 6.41036e-07 0)
(0.00100046 2.54729e-07 0)
(0.000999808 -2.51243e-08 0)
(0.00100023 -8.51884e-08 0)
(0.000999268 -1.78078e-07 0)
(0.00099994 -2.74364e-07 0)
(0.000997566 -6.07037e-07 0)
(0.00099891 -1.13567e-06 0)
(0.000993424 -2.88792e-06 0)
(0.000997589 -5.59631e-06 0)
(0.000991695 -1.15403e-05 0)
(0.000915845 -1.26971e-05 0)
(0.000951474 2.77283e-07 0)
(0.00101025 1.46455e-05 0)
(0.000990966 1.30785e-05 0)
(0.000983966 5.12277e-06 0)
(0.000989559 1.79145e-07 0)
(0.000996244 -7.929e-07 0)
(0.000999204 -1.15398e-07 0)
(0.000999384 2.41323e-07 0)
(0.000998594 1.74774e-07 0)
(0.000998425 -1.65794e-07 0)
(0.000999808 1.15899e-08 0)
(0.00100023 4.27748e-08 0)
(0.000999268 1.1278e-07 0)
(0.000999938 1.90332e-07 0)
(0.000997563 5.11454e-07 0)
(0.000998905 1.0338e-06 0)
(0.000993417 2.78197e-06 0)
(0.000997579 5.48307e-06 0)
(0.000991682 1.14086e-05 0)
(0.000915818 1.25581e-05 0)
(0.000951442 -4.71948e-07 0)
(0.00101023 -1.49058e-05 0)
(0.000990958 -1.34079e-05 0)
(0.000983959 -5.53833e-06 0)
(0.000989542 -6.65275e-07 0)
(0.000996207 2.21484e-07 0)
(0.000999163 -4.9577e-07 0)
(0.000999341 -1.01454e-06 0)
(0.000998578 -9.73413e-07 0)
(0.000998374 -8.64798e-07 0)
(0.000999999 4.43306e-08 0)
(0.000999972 1.95003e-07 0)
(0.000999807 3.69407e-07 0)
(0.000999567 6.93441e-07 0)
(0.000999331 1.25796e-06 0)
(0.000999275 2.3744e-06 0)
(0.000999773 4.58924e-06 0)
(0.00100145 7.97641e-06 0)
(0.00100494 1.31686e-05 0)
(0.0010096 1.47262e-05 0)
(0.00101189 -4.07677e-06 0)
(0.00100892 -1.90114e-05 0)
(0.00100216 -1.60814e-05 0)
(0.000997474 -6.11148e-06 0)
(0.00099679 -9.89231e-08 0)
(0.000998368 7.30791e-07 0)
(0.00100013 -4.75122e-07 0)
(0.00100082 -1.32904e-06 0)
(0.00100082 -1.35657e-06 0)
(0.00100029 -1.22274e-06 0)
(0.001 9.02092e-08 0)
(0.00100002 2.92665e-07 0)
(0.000999957 5.7858e-07 0)
(0.00099991 9.30183e-07 0)
(0.000999918 1.49521e-06 0)
(0.00100015 2.22797e-06 0)
(0.00100055 3.30018e-06 0)
(0.00100155 4.04695e-06 0)
(0.00100307 4.26732e-06 0)
(0.00100595 2.37659e-06 0)
(0.00100904 -9.99673e-07 0)
(0.00100908 -4.55118e-06 0)
(0.00100544 -4.99955e-06 0)
(0.00100065 -3.1093e-06 0)
(0.000998031 -1.14393e-06 0)
(0.000998103 -3.13151e-07 0)
(0.000999591 -3.9868e-07 0)
(0.00100061 -7.71084e-07 0)
(0.00100101 -9.31576e-07 0)
(0.00100049 -1.04191e-06 0)
(0.001 1.01938e-07 0)
(0.00100005 3.46133e-07 0)
(0.00100007 6.19081e-07 0)
(0.00100011 9.48936e-07 0)
(0.00100025 1.3172e-06 0)
(0.00100053 1.8344e-06 0)
(0.00100104 2.40784e-06 0)
(0.00100191 3.04358e-06 0)
(0.00100322 3.1803e-06 0)
(0.00100471 2.74954e-06 0)
(0.00100569 4.82586e-07 0)
(0.00100528 -2.76445e-06 0)
(0.00100339 -5.04589e-06 0)
(0.00100095 -5.0321e-06 0)
(0.000999388 -3.45593e-06 0)
(0.000999093 -1.85982e-06 0)
(0.000999719 -1.10981e-06 0)
(0.00100023 -1.09268e-06 0)
(0.00100057 -1.26535e-06 0)
(0.00100018 -1.48252e-06 0)
(0.00100001 1.03522e-07 0)
(0.00100007 3.36585e-07 0)
(0.00100013 5.90617e-07 0)
(0.00100023 8.45627e-07 0)
(0.00100042 1.10987e-06 0)
(0.00100073 1.42468e-06 0)
(0.00100118 1.79286e-06 0)
(0.0010018 2.03339e-06 0)
(0.00100252 1.86811e-06 0)
(0.0010032 1.05698e-06 0)
(0.00100367 -3.08817e-07 0)
(0.00100364 -1.78402e-06 0)
(0.00100292 -2.66158e-06 0)
(0.00100169 -2.58198e-06 0)
(0.00100055 -1.78167e-06 0)
(0.000999877 -9.61713e-07 0)
(0.000999833 -5.19854e-07 0)
(0.000999955 -4.87639e-07 0)
(0.00100018 -5.7489e-07 0)
(0.000999973 -8.15417e-07 0)
(0.00100001 9.14707e-08 0)
(0.00100008 2.97633e-07 0)
(0.00100016 5.11101e-07 0)
(0.00100029 7.04981e-07 0)
(0.00100049 8.70634e-07 0)
(0.00100076 1.05508e-06 0)
(0.00100112 1.24986e-06 0)
(0.00100156 1.338e-06 0)
(0.00100205 1.1593e-06 0)
(0.00100252 6.80942e-07 0)
(0.00100282 -4.86202e-09 0)
(0.00100275 -7.7681e-07 0)
(0.00100226 -1.40875e-06 0)
(0.00100144 -1.72721e-06 0)
(0.0010006 -1.66866e-06 0)
(0.000999983 -1.41387e-06 0)
(0.000999765 -1.12334e-06 0)
(0.000999737 -9.74108e-07 0)
(0.000999863 -9.01747e-07 0)
(0.000999755 -1.07752e-06 0)
(0.00100001 7.4267e-08 0)
(0.00100008 2.39122e-07 0)
(0.00100017 4.05902e-07 0)
(0.00100031 5.42859e-07 0)
(0.0010005 6.4171e-07 0)
(0.00100073 7.43929e-07 0)
(0.00100101 8.59039e-07 0)
(0.00100134 9.05201e-07 0)
(0.00100168 7.71002e-07 0)
(0.00100196 4.30947e-07 0)
(0.00100208 -6.49229e-08 0)
(0.00100199 -5.77942e-07 0)
(0.00100169 -9.92577e-07 0)
(0.00100118 -1.23439e-06 0)
(0.00100063 -1.23043e-06 0)
(0.00100014 -1.05565e-06 0)
(0.00099989 -7.86084e-07 0)
(0.000999717 -5.86953e-07 0)
(0.000999742 -4.46372e-07 0)
(0.000999567 -5.71034e-07 0)
(0.00100001 5.46951e-08 0)
(0.00100008 1.73681e-07 0)
(0.00100017 2.89096e-07 0)
(0.00100031 3.72276e-07 0)
(0.00100049 4.20016e-07 0)
(0.00100069 4.68045e-07 0)
(0.00100091 5.30369e-07 0)
(0.00100117 5.41837e-07 0)
(0.00100143 4.28522e-07 0)
(0.00100162 1.76193e-07 0)
(0.00100169 -1.32424e-07 0)
(0.0010016 -4.21196e-07 0)
(0.00100136 -6.46741e-07 0)
(0.001001 -8.06966e-07 0)
(0.00100061 -8.52839e-07 0)
(0.0010002 -8.18838e-07 0)
(0.000999929 -7.03829e-07 0)
(0.000999667 -6.22631e-07 0)
(0.000999627 -5.32331e-07 0)
(0.000999411 -6.6467e-07 0)
(0.00100001 3.72262e-08 0)
(0.00100007 1.18837e-07 0)
(0.00100016 2.00941e-07 0)
(0.00100029 2.63268e-07 0)
(0.00100046 3.02009e-07 0)
(0.00100063 3.41236e-07 0)
(0.00100082 3.90386e-07 0)
(0.00100103 4.13906e-07 0)
(0.00100123 3.6366e-07 0)
(0.00100136 2.37971e-07 0)
(0.00100138 7.7586e-08 0)
(0.0010013 -7.35634e-08 0)
(0.00100112 -1.87523e-07 0)
(0.00100084 -2.75255e-07 0)
(0.00100052 -3.12819e-07 0)
(0.00100015 -3.1288e-07 0)
(0.000999881 -2.47026e-07 0)
(0.000999593 -1.8631e-07 0)
(0.000999529 -9.9768e-08 0)
(0.000999291 -1.85956e-07 0)
(0.00100001 -3.33612e-09 0)
(0.00100008 -6.38504e-09 0)
(0.00100017 -5.20324e-09 0)
(0.00100031 -7.14297e-09 0)
(0.00100046 -1.5601e-08 0)
(0.00100063 -2.47992e-08 0)
(0.0010008 -2.96478e-08 0)
(0.00100099 -4.03272e-08 0)
(0.00100118 -6.75681e-08 0)
(0.00100129 -1.16386e-07 0)
(0.0010013 -1.71665e-07 0)
(0.0010012 -2.27936e-07 0)
(0.00100104 -2.78737e-07 0)
(0.00100078 -3.3065e-07 0)
(0.00100051 -3.58448e-07 0)
(0.00100017 -3.77574e-07 0)
(0.000999928 -3.56217e-07 0)
(0.000999592 -3.56425e-07 0)
(0.000999535 -3.18856e-07 0)
(0.000999175 -4.05087e-07 0)
)
;

boundaryField
{
    sides
    {
        type            slip;
    }
    inlet
    {
        type            fixedValue;
        value           uniform (0.001 0 0);
    }
    outlet
    {
        type            zeroGradient;
    }
    frontAndBack
    {
        type            empty;
    }
}


// ************************************************************************* //
