/*--------------------------------*- C++ -*----------------------------------*\
  =========                 |
  \\      /  F ield         | OpenFOAM: The Open Source CFD Toolbox
   \\    /   O peration     | Website:  https://openfoam.org
    \\  /    A nd           | Version:  9
     \\/     M anipulation  |
\*---------------------------------------------------------------------------*/
FoamFile
{
    format      ascii;
    class       surfaceScalarField;
    location    "31";
    object      phi;
}
// * * * * * * * * * * * * * * * * * * * * * * * * * * * * * * * * * * * * * //

dimensions      [0 4 -1 0 0 0 0];

internalField   nonuniform List<scalar> 
760
(
5.00015e-06
-1.02472e-10
5.00055e-06
-3.58757e-10
5.00121e-06
-6.25477e-10
5.00204e-06
-8.23222e-10
5.00294e-06
-9.17572e-10
5.00387e-06
-9.89432e-10
5.00487e-06
-1.09673e-09
5.00589e-06
-1.14689e-09
5.00671e-06
-9.72674e-10
5.00712e-06
-5.67239e-10
5.00702e-06
-8.55271e-11
5.00644e-06
4.23837e-10
5.00553e-06
7.96039e-10
5.00449e-06
1.02044e-09
5.00341e-06
1.15869e-09
5.00251e-06
1.04341e-09
5.00181e-06
8.65316e-10
5.00164e-06
3.18671e-10
5.00169e-06
4.37163e-11
-4.12087e-10
5.00018e-06
-2.32338e-10
5.0006e-06
-7.37799e-10
5.00127e-06
-1.261e-09
5.00213e-06
-1.66376e-09
5.00309e-06
-1.88215e-09
5.00411e-06
-2.06134e-09
5.00524e-06
-2.31078e-09
5.00643e-06
-2.43903e-09
5.00744e-06
-2.12452e-09
5.00798e-06
-1.26166e-09
5.00773e-06
-2.91194e-12
5.00706e-06
9.44734e-10
5.00601e-06
1.7508e-09
5.00475e-06
2.26248e-09
5.00356e-06
2.4078e-09
5.00273e-06
1.99445e-09
5.00224e-06
1.50525e-09
5.00197e-06
7.15163e-10
5.00179e-06
3.10451e-10
-1.73874e-10
5.00017e-06
-3.47799e-10
5.00058e-06
-1.10094e-09
5.00124e-06
-1.87015e-09
5.00211e-06
-2.50135e-09
5.00314e-06
-2.90739e-09
5.00432e-06
-3.26885e-09
5.00565e-06
-3.70031e-09
5.00704e-06
-3.91432e-09
5.00822e-06
-3.41526e-09
5.00889e-06
-2.07137e-09
5.00894e-06
-1.80016e-10
5.0081e-06
1.65327e-09
5.00666e-06
3.10629e-09
5.00498e-06
3.92744e-09
5.00339e-06
4.04709e-09
5.00221e-06
3.26172e-09
5.00157e-06
2.26035e-09
5.00144e-06
9.39373e-10
5.00155e-06
2.59717e-10
-2.56267e-10
5.00017e-06
-4.49077e-10
5.00057e-06
-1.44234e-09
5.00122e-06
-2.45886e-09
5.00211e-06
-3.35046e-09
5.00325e-06
-4.02108e-09
5.00466e-06
-4.67716e-09
5.00635e-06
-5.42122e-09
5.00826e-06
-5.8913e-09
5.01011e-06
-5.3392e-09
5.01123e-06
-3.30971e-09
5.01121e-06
-2.6921e-10
5.00988e-06
2.88527e-09
5.00747e-06
5.42804e-09
5.00499e-06
6.39314e-09
5.00336e-06
5.69152e-09
5.00264e-06
4.02419e-09
5.00245e-06
2.49846e-09
5.00231e-06
1.1344e-09
5.00201e-06
6.07911e-10
3.10504e-10
5.00016e-06
-5.30651e-10
5.00051e-06
-1.71845e-09
5.0011e-06
-2.97236e-09
5.00197e-06
-4.16604e-09
5.00323e-06
-5.23848e-09
5.00495e-06
-6.37183e-09
5.00715e-06
-7.62676e-09
5.00973e-06
-8.49498e-09
5.01263e-06
-8.31976e-09
5.01496e-06
-5.69809e-09
5.01483e-06
-2.67954e-10
5.01276e-06
4.88208e-09
5.00854e-06
9.59e-09
5.00446e-06
1.0433e-08
5.00212e-06
8.02518e-09
5.00162e-06
4.5237e-09
5.00191e-06
2.21755e-09
5.00214e-06
9.11351e-10
5.00196e-06
7.94388e-10
5.89644e-10
5.00013e-06
-5.7143e-10
5.00038e-06
-1.87596e-09
5.00079e-06
-3.30214e-09
5.00152e-06
-4.82123e-09
5.00276e-06
-6.42289e-09
5.0049e-06
-8.47576e-09
5.00796e-06
-1.06806e-08
5.01197e-06
-1.25282e-08
5.01573e-06
-1.21253e-08
5.01912e-06
-9.14403e-09
5.0203e-06
-1.50971e-09
5.01602e-06
9.04934e-09
5.00945e-06
1.61368e-08
5.00409e-06
1.5755e-08
5.00202e-06
1.00467e-08
5.00237e-06
4.13909e-09
5.00318e-06
1.36794e-09
5.00329e-06
7.63306e-10
5.00264e-06
1.41595e-09
1.4055e-09
5.00009e-06
-5.50075e-10
5.00014e-06
-1.81922e-09
5.00028e-06
-3.35478e-09
5.00064e-06
-5.10857e-09
5.00155e-06
-7.27203e-09
5.0033e-06
-1.01832e-08
5.00717e-06
-1.45464e-08
5.01421e-06
-1.95854e-08
5.02396e-06
-2.1881e-08
5.031e-06
-1.63308e-08
5.0288e-06
7.75035e-10
5.01676e-06
2.10399e-08
5.00416e-06
2.86695e-08
4.99867e-06
2.12108e-08
5.00045e-06
8.21503e-09
5.00271e-06
1.8254e-09
5.00362e-06
3.80911e-10
5.00352e-06
7.94759e-10
5.00284e-06
2.04629e-09
1.67974e-09
5e-06
-4.1273e-10
4.99976e-06
-1.47278e-09
4.99937e-06
-2.86542e-09
4.99912e-06
-4.7798e-09
4.99965e-06
-7.74216e-09
5.00074e-06
-1.12519e-08
5.00403e-06
-1.78344e-08
5.01011e-06
-2.56727e-08
5.02503e-06
-3.68523e-08
5.0562e-06
-4.74909e-08
5.05016e-06
6.88917e-09
5.02331e-06
4.79355e-08
4.99821e-06
5.37429e-08
4.99341e-06
2.59522e-08
4.99935e-06
2.22421e-09
5.00393e-06
-2.83458e-09
5.00475e-06
-5.23259e-10
5.00355e-06
1.90019e-09
5.00323e-06
2.29873e-09
9.93316e-10
4.99991e-06
-1.76348e-10
4.99938e-06
-8.1184e-10
4.99817e-06
-1.54863e-09
4.99636e-06
-2.90118e-09
4.99432e-06
-5.65761e-09
4.99411e-06
-1.1023e-08
4.99983e-06
-2.35547e-08
5.01742e-06
-4.32761e-08
5.05586e-06
-7.52918e-08
5.06692e-06
-5.86354e-08
5.04981e-06
2.38377e-08
4.9966e-06
1.01055e-07
4.98938e-06
6.09377e-08
4.99586e-06
1.94332e-08
5.00008e-06
-2.0642e-09
5.00279e-06
-5.63233e-09
5.00238e-06
-2.28476e-10
5.00165e-06
2.52248e-09
5.00222e-06
1.65418e-09
1.22756e-10
5.00001e-06
-3.11121e-11
4.99944e-06
-1.03445e-10
4.99816e-06
-1.63937e-10
4.99556e-06
-2.19774e-10
4.99019e-06
-2.58976e-10
4.97947e-06
-2.84238e-10
4.95621e-06
-2.95393e-10
4.91324e-06
-3.19094e-10
4.83825e-06
-3.78228e-10
4.78009e-06
-4.04908e-10
4.80438e-06
-5.94171e-10
4.90617e-06
-7.29327e-10
4.96788e-06
-7.47746e-10
4.98821e-06
-9.49153e-10
4.98731e-06
-1.25151e-09
4.9831e-06
-1.53176e-09
4.9844e-06
-1.63807e-09
4.9887e-06
-1.8922e-09
4.99216e-06
-1.87891e-09
-2.49003e-09
5.00001e-06
1.14762e-10
4.99944e-06
6.0527e-10
4.99816e-06
1.22675e-09
4.99554e-06
2.46747e-09
4.99017e-06
5.15187e-09
4.97944e-06
1.04683e-08
4.95618e-06
2.29752e-08
4.91319e-06
4.2647e-08
4.83818e-06
7.45946e-08
4.7798e-06
5.78944e-08
4.80436e-06
-2.50867e-08
4.90615e-06
-1.02491e-07
4.96786e-06
-6.2498e-08
4.98805e-06
-2.11865e-08
4.98724e-06
-5.25669e-10
4.98277e-06
2.81715e-09
4.98428e-06
-3.26887e-09
4.98868e-06
-6.40697e-09
4.99202e-06
-5.29565e-09
-4.85864e-09
4.99992e-06
3.50393e-10
4.99938e-06
1.27497e-09
4.99817e-06
2.54415e-09
4.99636e-06
4.35585e-09
4.99432e-06
7.24299e-09
4.9941e-06
1.07209e-08
4.99981e-06
1.72805e-08
5.01737e-06
2.50615e-08
5.05579e-06
3.613e-08
5.06724e-06
4.64649e-08
5.04955e-06
-8.91515e-09
4.99625e-06
-4.9141e-08
4.98895e-06
-5.52168e-08
4.99569e-06
-2.79758e-08
5.00003e-06
-4.94449e-09
5.00214e-06
5.93788e-10
5.0015e-06
-2.75429e-09
5.0007e-06
-5.71899e-09
5.00135e-06
-6.02738e-09
-5.80249e-09
5e-06
4.89315e-10
4.99976e-06
1.6331e-09
4.99936e-06
3.05284e-09
4.99909e-06
4.70901e-09
4.99959e-06
6.81477e-09
5.00065e-06
9.69587e-09
5.00388e-06
1.40722e-08
5.0099e-06
1.90254e-08
5.02476e-06
2.12504e-08
5.05559e-06
1.55025e-08
5.04994e-06
-1.72098e-09
5.02295e-06
-2.22863e-08
4.99793e-06
-3.02277e-08
4.99312e-06
-2.32057e-08
4.99851e-06
-1.04018e-08
5.00333e-06
-4.31506e-09
5.00357e-06
-3.09493e-09
5.00216e-06
-4.41504e-09
5.00188e-06
-5.80985e-09
-6.37474e-09
5.00009e-06
5.15862e-10
5.00013e-06
1.71053e-09
5.00026e-06
3.03307e-09
5.00059e-06
4.46524e-09
5.00147e-06
6.01595e-09
5.00317e-06
8.03441e-09
5.00704e-06
1.02113e-08
5.01408e-06
1.19921e-08
5.02377e-06
1.15063e-08
5.03087e-06
8.41681e-09
5.02847e-06
4.76211e-10
5.01631e-06
-1.01459e-08
5.00352e-06
-1.74606e-08
4.99773e-06
-1.74569e-08
4.99932e-06
-1.20263e-08
5.00149e-06
-6.54908e-09
5.00228e-06
-3.9617e-09
5.00196e-06
-4.16469e-09
5.00096e-06
-4.85181e-09
-5.80746e-09
5.00014e-06
4.83487e-10
5.00037e-06
1.57929e-09
5.00076e-06
2.74347e-09
5.00145e-06
3.85945e-09
5.00267e-06
4.87978e-09
5.00477e-06
5.97979e-09
5.00778e-06
7.20726e-09
5.0117e-06
8.04506e-09
5.01536e-06
7.8216e-09
5.01868e-06
5.02455e-09
5.01964e-06
-5.19851e-10
5.01527e-06
-5.81761e-09
5.00852e-06
-1.076e-08
5.00304e-06
-1.19917e-08
5.00078e-06
-9.77876e-09
5.0009e-06
-6.70376e-09
5.00144e-06
-4.53894e-09
5.00118e-06
-3.93723e-09
5.00019e-06
-3.88639e-09
-4.81109e-09
5.00016e-06
4.11584e-10
5.00051e-06
1.33137e-09
5.00106e-06
2.27286e-09
5.0019e-06
3.09789e-09
5.00312e-06
3.72669e-09
5.00478e-06
4.35658e-09
5.00691e-06
5.0816e-09
5.0094e-06
5.50541e-09
5.01229e-06
4.86898e-09
5.01457e-06
2.66396e-09
5.01425e-06
-2.7752e-10
5.01207e-06
-3.73007e-09
5.00768e-06
-6.40863e-09
5.0034e-06
-7.73216e-09
5.00084e-06
-7.22528e-09
5.00003e-06
-5.89118e-09
4.99999e-06
-4.4844e-09
4.99976e-06
-3.69549e-09
4.99909e-06
-3.20127e-09
-4.0247e-09
5.00018e-06
3.1665e-10
5.00057e-06
1.0176e-09
5.00119e-06
1.73136e-09
5.00204e-06
2.30846e-09
5.00312e-06
2.67879e-09
5.00449e-06
3.01421e-09
5.00613e-06
3.43174e-09
5.00795e-06
3.62821e-09
5.00961e-06
3.11818e-09
5.01047e-06
1.69782e-09
5.01047e-06
-3.99851e-10
5.00897e-06
-2.32867e-09
5.00641e-06
-3.92147e-09
5.00358e-06
-4.93846e-09
5.00146e-06
-5.08707e-09
5.00026e-06
-4.64659e-09
4.99961e-06
-3.78152e-09
4.9991e-06
-3.12222e-09
4.99845e-06
-2.50408e-09
-3.09418e-09
5.00017e-06
2.14207e-10
5.00058e-06
6.79321e-10
5.00122e-06
1.15406e-09
5.00205e-06
1.52005e-09
5.00302e-06
1.72681e-09
5.00413e-06
1.89531e-09
5.00541e-06
2.11848e-09
5.00677e-06
2.19559e-09
5.00797e-06
1.82171e-09
5.00861e-06
9.2343e-10
5.00829e-06
-2.13762e-10
5.00726e-06
-1.41849e-09
5.00555e-06
-2.3048e-09
5.00355e-06
-2.9655e-09
5.00171e-06
-3.20631e-09
5.00027e-06
-3.12446e-09
4.99925e-06
-2.64594e-09
4.99849e-06
-2.25881e-09
4.99779e-06
-1.73852e-09
-2.19201e-09
5.00015e-06
1.23404e-10
5.00054e-06
3.49607e-10
5.00117e-06
5.84589e-10
5.00196e-06
7.61717e-10
5.00284e-06
8.51168e-10
5.00377e-06
9.2067e-10
5.0048e-06
1.02525e-09
5.00584e-06
1.06672e-09
5.00666e-06
8.83102e-10
5.00703e-06
4.14494e-10
5.00685e-06
-1.77994e-10
5.00597e-06
-6.67099e-10
5.00464e-06
-1.06594e-09
5.00305e-06
-1.38357e-09
5.00143e-06
-1.51773e-09
4.99998e-06
-1.54922e-09
4.99883e-06
-1.35008e-09
4.99793e-06
-1.2233e-09
4.99721e-06
-9.33535e-10
-1.3812e-09
5.00018e-06
5.00058e-06
5.00122e-06
5.00201e-06
5.00285e-06
5.00372e-06
5.00466e-06
5.00562e-06
5.00638e-06
5.00664e-06
5.00631e-06
5.00551e-06
5.00435e-06
5.00297e-06
5.00153e-06
5.00013e-06
4.99895e-06
4.99787e-06
4.99703e-06
)
;

boundaryField
{
    sides
    {
        type            calculated;
        value           uniform 0;
    }
    inlet
    {
        type            calculated;
        value           nonuniform List<scalar> 
20
(
-5e-06
-5e-06
-5e-06
-5e-06
-5e-06
-5e-06
-5e-06
-5e-06
-5e-06
-5e-06
-5e-06
-5e-06
-5e-06
-5e-06
-5e-06
-5e-06
-5e-06
-5e-06
-5e-06
-5e-06
)
;
    }
    outlet
    {
        type            calculated;
        value           nonuniform List<scalar> 
20
(
5.00214e-06
5.00158e-06
5.00165e-06
5.00145e-06
5.00169e-06
5.00182e-06
5.00254e-06
5.00389e-06
5.00307e-06
4.99474e-06
4.99436e-06
5.00227e-06
5.00243e-06
5.00038e-06
4.99919e-06
4.99831e-06
4.99753e-06
4.99691e-06
4.99643e-06
4.99568e-06
)
;
    }
    frontAndBack
    {
        type            empty;
        value           nonuniform List<scalar> 0();
    }
}


// ************************************************************************* //
