/*--------------------------------*- C++ -*----------------------------------*\
  =========                 |
  \\      /  F ield         | OpenFOAM: The Open Source CFD Toolbox
   \\    /   O peration     | Website:  https://openfoam.org
    \\  /    A nd           | Version:  9
     \\/     M anipulation  |
\*---------------------------------------------------------------------------*/
FoamFile
{
    format      ascii;
    class       volVectorField;
    location    "31";
    object      U;
}
// * * * * * * * * * * * * * * * * * * * * * * * * * * * * * * * * * * * * * //

dimensions      [0 1 -1 0 0 0 0];

internalField   nonuniform List<vector> 
400
(
(0.0999923 -2.51353e-06 0)
(0.0999993 -7.70143e-06 0)
(0.10001 -1.26727e-05 0)
(0.100026 -1.65377e-05 0)
(0.100046 -1.90828e-05 0)
(0.100066 -2.14265e-05 0)
(0.100087 -2.41544e-05 0)
(0.10011 -2.61425e-05 0)
(0.100131 -2.52983e-05 0)
(0.100147 -2.15258e-05 0)
(0.100151 -1.60646e-05 0)
(0.100145 -1.23928e-05 0)
(0.100131 -1.02005e-05 0)
(0.100111 -9.92967e-06 0)
(0.100087 -1.0006e-05 0)
(0.100064 -1.24785e-05 0)
(0.100042 -1.40722e-05 0)
(0.100031 -1.886e-05 0)
(0.100027 -1.80131e-05 0)
(0.100038 -2.6425e-05 0)
(0.0999928 -2.93952e-06 0)
(0.1 -9.48534e-06 0)
(0.100012 -1.62261e-05 0)
(0.100029 -2.09202e-05 0)
(0.100049 -2.25777e-05 0)
(0.100071 -2.35688e-05 0)
(0.100094 -2.56746e-05 0)
(0.10012 -2.60298e-05 0)
(0.100145 -1.97947e-05 0)
(0.100164 -6.26148e-06 0)
(0.10017 1.0487e-05 0)
(0.100162 2.55417e-05 0)
(0.100145 3.73521e-05 0)
(0.100121 4.53049e-05 0)
(0.100093 5.00529e-05 0)
(0.100067 4.74689e-05 0)
(0.100048 4.20561e-05 0)
(0.100036 2.74303e-05 0)
(0.100035 1.84546e-05 0)
(0.100032 7.23523e-06 0)
(0.0999925 -5.67164e-06 0)
(0.1 -1.83572e-05 0)
(0.100012 -3.17511e-05 0)
(0.100028 -4.25689e-05 0)
(0.100049 -4.91684e-05 0)
(0.100073 -5.47448e-05 0)
(0.1001 -6.17718e-05 0)
(0.10013 -6.55291e-05 0)
(0.10016 -5.81129e-05 0)
(0.100182 -3.7272e-05 0)
(0.100192 -9.22293e-06 0)
(0.100187 1.75148e-05 0)
(0.100167 3.77245e-05 0)
(0.100135 4.81913e-05 0)
(0.100097 4.90247e-05 0)
(0.100062 3.88399e-05 0)
(0.100034 2.67359e-05 0)
(0.100023 8.10289e-06 0)
(0.100021 -1.61558e-06 0)
(0.100032 -1.21118e-05 0)
(0.0999918 -7.85162e-06 0)
(0.0999997 -2.55346e-05 0)
(0.100011 -4.39823e-05 0)
(0.100028 -5.94853e-05 0)
(0.10005 -7.00786e-05 0)
(0.100078 -7.96875e-05 0)
(0.100111 -9.03911e-05 0)
(0.100149 -9.55584e-05 0)
(0.10019 -8.32823e-05 0)
(0.100224 -4.97554e-05 0)
(0.100242 1.0514e-06 0)
(0.100236 5.13277e-05 0)
(0.100205 9.0913e-05 0)
(0.100153 0.000109339 0)
(0.1001 0.000104082 0)
(0.100057 7.83358e-05 0)
(0.100039 5.02852e-05 0)
(0.100034 2.09635e-05 0)
(0.10004 8.05926e-06 0)
(0.100035 -5.19567e-07 0)
(0.0999907 -9.61623e-06 0)
(0.0999986 -3.15856e-05 0)
(0.100009 -5.48882e-05 0)
(0.100024 -7.64546e-05 0)
(0.100048 -9.42042e-05 0)
(0.10008 -0.000112218 0)
(0.100121 -0.000131185 0)
(0.100172 -0.000141029 0)
(0.100229 -0.00012557 0)
(0.100283 -8.02588e-05 0)
(0.100318 -1.4149e-05 0)
(0.100313 6.03641e-05 0)
(0.100263 0.000120488 0)
(0.100177 0.000146516 0)
(0.100087 0.000136181 0)
(0.100026 0.000100469 0)
(0.100007 6.6295e-05 0)
(0.100015 3.51384e-05 0)
(0.100034 2.27716e-05 0)
(0.100043 1.56815e-05 0)
(0.0999893 -1.08408e-05 0)
(0.0999965 -3.58304e-05 0)
(0.100004 -6.3522e-05 0)
(0.100017 -9.14858e-05 0)
(0.100039 -0.000119218 0)
(0.100074 -0.000150471 0)
(0.100127 -0.000186791 0)
(0.100197 -0.000212357 0)
(0.10028 -0.000199087 0)
(0.100358 -0.000121857 0)
(0.100414 1.15135e-05 0)
(0.100415 0.000156563 0)
(0.100337 0.000240004 0)
(0.100205 0.000224643 0)
(0.100081 0.000140815 0)
(0.100011 5.27031e-05 0)
(0.10001 8.77431e-06 0)
(0.100033 -4.52255e-06 0)
(0.100062 4.32226e-06 0)
(0.100052 4.85317e-06 0)
(0.0999877 -1.07482e-05 0)
(0.0999931 -3.71851e-05 0)
(0.0999962 -6.70002e-05 0)
(0.100002 -0.000102628 0)
(0.100018 -0.000140919 0)
(0.10005 -0.000192626 0)
(0.100108 -0.000249337 0)
(0.100206 -0.000314027 0)
(0.100353 -0.000329769 0)
(0.100521 -0.000289609 0)
(0.100632 -6.39928e-05 0)
(0.10059 0.000257905 0)
(0.100382 0.000480483 0)
(0.100116 0.000468541 0)
(0.0999458 0.000300248 0)
(0.099919 0.000128944 0)
(0.0999901 5.00112e-05 0)
(0.100054 3.55899e-05 0)
(0.100092 5.31285e-05 0)
(0.100062 5.28946e-05 0)
(0.0999859 -9.69509e-06 0)
(0.0999883 -3.22058e-05 0)
(0.0999824 -6.33944e-05 0)
(0.0999779 -0.000101061 0)
(0.0999796 -0.000159333 0)
(0.100006 -0.00023299 0)
(0.100053 -0.00034058 0)
(0.100165 -0.000416876 0)
(0.100337 -0.00044215 0)
(0.100659 -0.000256065 0)
(0.101007 7.87975e-05 0)
(0.101016 0.000429542 0)
(0.100608 0.000470356 0)
(0.100071 0.000274567 0)
(0.0997798 7.16382e-05 0)
(0.0997944 -2.57191e-05 0)
(0.0999648 -2.3462e-05 0)
(0.100086 1.37408e-06 0)
(0.100134 1.9449e-05 0)
(0.10008 1.04049e-05 0)
(0.0999849 -5.3283e-06 0)
(0.0999821 -2.29507e-05 0)
(0.099965 -4.2869e-05 0)
(0.0999386 -7.75331e-05 0)
(0.0999126 -0.000135371 0)
(0.0999062 -0.000247458 0)
(0.0999623 -0.000468968 0)
(0.100149 -0.000809422 0)
(0.100539 -0.0013319 0)
(0.101063 -0.0014931 0)
(0.101324 0.000387493 0)
(0.100998 0.00187628 0)
(0.100243 0.0015765 0)
(0.0997211 0.000570745 0)
(0.0996433 -3.31475e-05 0)
(0.0998196 -0.000125855 0)
(0.100022 -7.24996e-06 0)
(0.100105 6.42033e-05 0)
(0.100108 6.41298e-05 0)
(0.100048 2.52197e-05 0)
(0.0999657 -2.32683e-06 0)
(0.100008 -8.25955e-06 0)
(0.0999102 -1.764e-05 0)
(0.0999726 -2.74577e-05 0)
(0.0997277 -6.0864e-05 0)
(0.0998484 -0.000113623 0)
(0.0992826 -0.000288549 0)
(0.0996801 -0.000559133 0)
(0.0991205 -0.00115347 0)
(0.102004 -0.0014146 0)
(0.106281 3.11434e-05 0)
(0.101269 0.00146782 0)
(0.0990104 0.00130686 0)
(0.0982237 0.000511574 0)
(0.0988546 1.79543e-05 0)
(0.0996026 -7.92646e-05 0)
(0.0999322 -1.15272e-05 0)
(0.0999496 2.41965e-05 0)
(0.0998621 1.72772e-05 0)
(0.0998412 -1.67672e-05 0)
(0.0999663 1.0693e-06 0)
(0.100008 4.13789e-06 0)
(0.0999108 1.11481e-05 0)
(0.0999731 1.89547e-05 0)
(0.0997279 5.10587e-05 0)
(0.0998485 0.000103127 0)
(0.0992826 0.00027774 0)
(0.0996797 0.000547677 0)
(0.0991196 0.00114028 0)
(0.102001 0.00139871 0)
(0.106277 -5.21287e-05 0)
(0.101268 -0.00149446 0)
(0.0990106 -0.00133966 0)
(0.0982235 -0.000552852 0)
(0.0988531 -6.63731e-05 0)
(0.0995991 2.21524e-05 0)
(0.0999282 -4.97986e-05 0)
(0.0999455 -0.000101875 0)
(0.0998608 -9.77714e-05 0)
(0.0998364 -8.65573e-05 0)
(0.0999867 4.08955e-06 0)
(0.0999841 1.89776e-05 0)
(0.099967 3.65382e-05 0)
(0.0999405 6.92414e-05 0)
(0.0999143 0.000125832 0)
(0.099908 0.00023711 0)
(0.0999638 0.000458093 0)
(0.100151 0.000797125 0)
(0.10054 0.00131755 0)
(0.101065 0.00147488 0)
(0.101326 -0.000408897 0)
(0.100997 -0.0019034 0)
(0.100238 -0.00160897 0)
(0.0997136 -0.000611122 0)
(0.099638 -9.7636e-06 0)
(0.0998152 7.30894e-05 0)
(0.100012 -4.78816e-05 0)
(0.100089 -0.000133735 0)
(0.100088 -0.00013634 0)
(0.10003 -0.000122308 0)
(0.099989 8.50229e-06 0)
(0.0999916 2.84693e-05 0)
(0.0999856 5.72898e-05 0)
(0.0999806 9.29965e-05 0)
(0.0999819 0.000149729 0)
(0.100007 0.000222418 0)
(0.100054 0.000328895 0)
(0.100164 0.0004038 0)
(0.100335 0.000427012 0)
(0.100654 0.000238535 0)
(0.101 -0.000100449 0)
(0.10101 -0.000456251 0)
(0.100603 -0.00050123 0)
(0.100067 -0.000311397 0)
(0.0997737 -0.000114396 0)
(0.0997824 -3.1417e-05 0)
(0.0999483 -4.0655e-05 0)
(0.100063 -7.85655e-05 0)
(0.100107 -9.40976e-05 0)
(0.10005 -0.000104158 0)
(0.0999921 9.61446e-06 0)
(0.0999977 3.37062e-05 0)
(0.100001 6.13143e-05 0)
(0.100006 9.50255e-05 0)
(0.100021 0.000132113 0)
(0.100053 0.000183054 0)
(0.10011 0.000239533 0)
(0.100208 0.000303356 0)
(0.100354 0.000318279 0)
(0.100521 0.000275651 0)
(0.100632 4.90678e-05 0)
(0.100586 -0.00027781 0)
(0.100375 -0.000506316 0)
(0.100104 -0.000504106 0)
(0.0999288 -0.000345759 0)
(0.0998964 -0.000186145 0)
(0.0999658 -0.000111978 0)
(0.100024 -0.000111064 0)
(0.100061 -0.000127608 0)
(0.10002 -0.000148164 0)
(0.0999949 9.8315e-06 0)
(0.100002 3.2806e-05 0)
(0.10001 5.85477e-05 0)
(0.100022 8.48433e-05 0)
(0.100043 0.000111521 0)
(0.100078 0.000142074 0)
(0.100129 0.000177883 0)
(0.100198 0.000202284 0)
(0.100279 0.000186963 0)
(0.100356 0.000106558 0)
(0.100408 -3.12042e-05 0)
(0.100405 -0.000180249 0)
(0.100325 -0.000268175 0)
(0.100189 -0.000259356 0)
(0.100061 -0.000178466 0)
(0.0999863 -9.6347e-05 0)
(0.099981 -5.29115e-05 0)
(0.0999957 -5.05783e-05 0)
(0.10002 -5.86104e-05 0)
(0.0999986 -8.14317e-05 0)
(0.0999977 8.76393e-06 0)
(0.100006 2.90708e-05 0)
(0.100016 5.07405e-05 0)
(0.10003 7.09217e-05 0)
(0.100053 8.77012e-05 0)
(0.100084 0.000105115 0)
(0.100124 0.000123517 0)
(0.100173 0.000132687 0)
(0.100228 0.000116085 0)
(0.100281 6.87408e-05 0)
(0.100315 -7.8352e-07 0)
(0.100308 -7.93229e-05 0)
(0.100253 -0.000142945 0)
(0.100162 -0.000173977 0)
(0.100069 -0.00016724 0)
(0.1 -0.000141604 0)
(0.0999764 -0.000113365 0)
(0.0999738 -9.9358e-05 0)
(0.0999872 -9.13124e-05 0)
(0.0999763 -0.000107616 0)
(0.1 7.20238e-06 0)
(0.100008 2.3425e-05 0)
(0.100019 4.03646e-05 0)
(0.100035 5.47722e-05 0)
(0.100056 6.48403e-05 0)
(0.100083 7.40909e-05 0)
(0.100115 8.45365e-05 0)
(0.100152 8.93841e-05 0)
(0.10019 7.71434e-05 0)
(0.100221 4.35788e-05 0)
(0.100235 -6.83359e-06 0)
(0.100225 -5.94237e-05 0)
(0.100191 -0.000101159 0)
(0.100135 -0.00012455 0)
(0.100073 -0.000123399 0)
(0.10002 -0.000105857 0)
(0.0999922 -7.96791e-05 0)
(0.0999739 -6.05539e-05 0)
(0.0999757 -4.56865e-05 0)
(0.0999576 -5.69798e-05 0)
(0.100002 5.3748e-06 0)
(0.10001 1.7074e-05 0)
(0.100021 2.88163e-05 0)
(0.100037 3.77183e-05 0)
(0.100057 4.26366e-05 0)
(0.10008 4.66236e-05 0)
(0.100106 5.19406e-05 0)
(0.100134 5.32133e-05 0)
(0.100163 4.27795e-05 0)
(0.100185 1.79509e-05 0)
(0.100193 -1.36273e-05 0)
(0.100182 -4.352e-05 0)
(0.100156 -6.62408e-05 0)
(0.100116 -8.16736e-05 0)
(0.100073 -8.57147e-05 0)
(0.100028 -8.2233e-05 0)
(0.0999984 -7.12476e-05 0)
(0.0999702 -6.3706e-05 0)
(0.0999645 -5.40668e-05 0)
(0.0999419 -6.63833e-05 0)
(0.100004 3.71378e-06 0)
(0.100011 1.17536e-05 0)
(0.100022 2.00589e-05 0)
(0.100037 2.66511e-05 0)
(0.100055 3.06472e-05 0)
(0.100075 3.4061e-05 0)
(0.100097 3.83732e-05 0)
(0.10012 4.07436e-05 0)
(0.100142 3.62394e-05 0)
(0.100157 2.39116e-05 0)
(0.10016 7.46266e-06 0)
(0.10015 -8.26719e-06 0)
(0.10013 -1.98667e-05 0)
(0.100099 -2.83088e-05 0)
(0.100064 -3.16892e-05 0)
(0.100024 -3.15953e-05 0)
(0.0999945 -2.53347e-05 0)
(0.0999635 -1.96432e-05 0)
(0.0999549 -1.0559e-05 0)
(0.09993 -1.85494e-05 0)
(0.100005 -3.21173e-07 0)
(0.100013 -6.63692e-07 0)
(0.100024 -5.44214e-07 0)
(0.100039 -6.40447e-07 0)
(0.100057 -1.42194e-06 0)
(0.100077 -2.47944e-06 0)
(0.100096 -3.16453e-06 0)
(0.100117 -4.27094e-06 0)
(0.100138 -6.87365e-06 0)
(0.10015 -1.16834e-05 0)
(0.100152 -1.73797e-05 0)
(0.10014 -2.32215e-05 0)
(0.100121 -2.83072e-05 0)
(0.100093 -3.33394e-05 0)
(0.100064 -3.60015e-05 0)
(0.100027 -3.78988e-05 0)
(0.100001 -3.58895e-05 0)
(0.0999649 -3.60413e-05 0)
(0.0999567 -3.21033e-05 0)
(0.0999189 -4.04904e-05 0)
)
;

boundaryField
{
    sides
    {
        type            calculated;
        value           nonuniform List<vector> 
40
(
(0.100005 0 0)
(0.100013 0 0)
(0.100024 0 0)
(0.100039 0 0)
(0.100057 0 0)
(0.100077 0 0)
(0.100096 0 0)
(0.100117 0 0)
(0.100138 0 0)
(0.10015 0 0)
(0.100152 0 0)
(0.10014 0 0)
(0.100121 0 0)
(0.100093 0 0)
(0.100064 0 0)
(0.100027 0 0)
(0.100001 0 0)
(0.0999649 0 0)
(0.0999567 0 0)
(0.0999189 0 0)
(0.0999923 0 0)
(0.0999993 0 0)
(0.10001 0 0)
(0.100026 0 0)
(0.100046 0 0)
(0.100066 0 0)
(0.100087 0 0)
(0.10011 0 0)
(0.100131 0 0)
(0.100147 0 0)
(0.100151 0 0)
(0.100145 0 0)
(0.100131 0 0)
(0.100111 0 0)
(0.100087 0 0)
(0.100064 0 0)
(0.100042 0 0)
(0.100031 0 0)
(0.100027 0 0)
(0.100038 0 0)
)
;
    }
    inlet
    {
        type            calculated;
        value           nonuniform List<vector> 
20
(
(0.0999917 0 0)
(0.0999922 0 0)
(0.099992 0 0)
(0.0999913 0 0)
(0.0999903 0 0)
(0.099989 0 0)
(0.0999876 0 0)
(0.0999863 0 0)
(0.0999854 0 0)
(0.0999854 0 0)
(0.0999861 0 0)
(0.0999873 0 0)
(0.0999895 0 0)
(0.099992 0 0)
(0.0999947 0 0)
(0.0999973 0 0)
(0.0999996 0 0)
(0.100002 0 0)
(0.100003 0 0)
(0.100005 0 0)
)
;
    }
    outlet
    {
        type            calculated;
        value           nonuniform List<vector> 
20
(
(0.100038 -2.64251e-05 0)
(0.100032 7.23523e-06 0)
(0.100033 -1.21118e-05 0)
(0.100035 -5.19565e-07 0)
(0.100042 1.56814e-05 0)
(0.100051 4.85313e-06 0)
(0.100061 5.28939e-05 0)
(0.100079 1.04047e-05 0)
(0.100047 2.52194e-05 0)
(0.0998428 -1.67674e-05 0)
(0.0998377 -8.65585e-05 0)
(0.100029 -0.000122307 0)
(0.100049 -0.000104157 0)
(0.100019 -0.000148161 0)
(0.0999974 -8.14308e-05 0)
(0.0999756 -0.000107616 0)
(0.0999568 -5.69793e-05 0)
(0.0999411 -6.63827e-05 0)
(0.0999292 -1.85492e-05 0)
(0.0999177 -4.04899e-05 0)
)
;
    }
    frontAndBack
    {
        type            empty;
    }
}


// ************************************************************************* //
