/*--------------------------------*- C++ -*----------------------------------*\
  =========                 |
  \\      /  F ield         | OpenFOAM: The Open Source CFD Toolbox
   \\    /   O peration     | Website:  https://openfoam.org
    \\  /    A nd           | Version:  9
     \\/     M anipulation  |
\*---------------------------------------------------------------------------*/
FoamFile
{
    format      ascii;
    class       surfaceScalarField;
    location    "66";
    object      ddtCorrDdt0(phi);
}
// * * * * * * * * * * * * * * * * * * * * * * * * * * * * * * * * * * * * * //

dimensions      [0 4 -2 0 0 0 0];

internalField   nonuniform List<scalar> 
760
(
1.91742e-12
-6.52171e-12
-1.37585e-11
-2.16355e-11
-1.95924e-11
-4.71463e-12
-1.04343e-12
2.35697e-11
-1.25018e-11
3.61105e-12
4.42038e-13
-8.36334e-12
-2.39152e-11
-3.27713e-11
-9.02099e-12
-1.80133e-11
1.27912e-13
-2.75876e-11
4.11475e-12
-1.67737e-11
-1.20589e-11
5.39092e-12
-3.41719e-11
-1.92083e-11
-1.14338e-11
1.37239e-11
8.54312e-12
5.02416e-12
3.01248e-11
1.7626e-11
1.45713e-11
2.00885e-11
-4.63848e-12
1.451e-11
1.13885e-11
1.50065e-12
2.11043e-11
-1.74083e-11
-4.99217e-12
-4.69941e-12
-1.30775e-11
-4.0012e-12
-2.46876e-11
4.75952e-12
-1.19463e-12
-1.26905e-11
1.2994e-11
-1.61473e-11
-2.54091e-12
-1.5009e-11
-1.88732e-11
-1.19187e-11
-2.38865e-11
-2.46887e-11
-4.08736e-11
1.13213e-12
-1.72389e-11
5.08774e-13
-2.71201e-11
-1.53768e-11
-1.74665e-12
-1.00658e-11
9.86179e-12
-2.34084e-11
-2.11599e-12
1.28661e-11
1.22538e-11
2.18643e-11
3.33887e-12
7.54541e-13
2.20624e-13
-1.00822e-11
5.70407e-12
-9.13642e-12
2.1824e-12
-8.9509e-12
-1.00555e-11
-1.05727e-11
-6.51904e-12
-9.29956e-12
1.57932e-11
-1.03711e-11
1.61654e-11
-1.03681e-11
-2.63853e-11
-1.93685e-11
-2.38239e-11
-1.47415e-11
-1.17508e-11
2.56052e-12
-2.13847e-11
-1.46585e-11
-1.24577e-11
-3.86093e-11
-2.29786e-11
-3.31899e-11
2.22395e-11
2.89846e-11
-3.66244e-11
-3.41139e-11
-1.66163e-11
6.35453e-11
-8.47701e-12
2.24814e-12
-6.10182e-12
-4.15754e-12
9.41746e-12
9.97307e-13
-2.94601e-12
-1.4517e-11
-2.76652e-11
-5.95937e-12
-3.35205e-11
-8.84983e-13
-4.84268e-12
-6.82432e-12
1.98045e-12
5.28614e-12
5.44311e-12
2.18417e-11
-6.82722e-12
7.97509e-12
-2.734e-11
-2.89557e-11
-4.23868e-11
-1.19891e-11
-7.65242e-12
-1.46314e-11
1.88295e-11
-3.37885e-11
-2.70202e-11
-7.04905e-12
-1.67049e-11
4.75114e-12
-3.18508e-11
-5.1778e-11
6.79e-11
6.18349e-11
8.95691e-11
-7.6163e-11
-2.91911e-11
-2.0133e-11
8.40507e-11
-1.20615e-11
8.50505e-12
-2.68544e-11
-1.66602e-11
-3.00229e-12
-5.13351e-12
1.85882e-12
-9.68996e-13
-2.04767e-11
-6.94011e-12
-2.96726e-11
-1.16028e-11
-3.96147e-13
9.04877e-12
1.48575e-11
1.26229e-11
-1.18737e-11
-8.98551e-12
-4.17764e-11
-1.44189e-11
-3.63134e-11
8.77047e-12
8.27575e-12
-4.39286e-11
2.66665e-13
-5.93497e-12
4.64388e-12
-4.02658e-11
-5.79466e-11
8.67763e-11
1.24332e-10
-7.90124e-11
-1.52632e-10
-3.9926e-11
1.26856e-10
8.11596e-11
-3.00758e-11
-9.84547e-11
-8.36936e-11
-6.0705e-11
5.04133e-11
-3.19729e-11
2.66972e-11
-1.0301e-11
-1.92446e-12
1.23521e-11
-3.26515e-13
-1.72781e-14
-2.01446e-11
-2.25056e-11
-3.69164e-11
-1.25935e-11
-1.63695e-12
1.13534e-11
-5.68446e-12
-1.6871e-11
-1.50171e-11
-3.69611e-11
7.99914e-12
-1.80891e-11
-4.24064e-12
-3.5334e-13
-2.54358e-11
1.12423e-11
-5.24323e-11
-3.35586e-11
1.17849e-10
7.21856e-11
-1.58565e-10
-1.09888e-10
2.09865e-10
8.98955e-11
-2.06874e-10
-3.68652e-10
6.01021e-11
2.2316e-10
8.93839e-11
-7.06387e-11
-9.1125e-11
-1.13994e-10
-8.82867e-11
2.05732e-12
-1.9161e-11
2.4753e-11
2.1999e-11
1.24102e-11
1.54394e-11
-1.96481e-11
-6.88169e-12
-4.19347e-11
-1.71824e-11
-1.76216e-11
-2.47906e-13
-1.78979e-11
-1.4582e-11
-8.63405e-12
-2.27398e-11
5.28374e-12
-1.02517e-11
3.37662e-12
1.71128e-13
-5.75041e-11
-1.28849e-11
4.10294e-11
2.28045e-11
2.93879e-11
-6.90384e-11
-8.35159e-11
-3.88082e-11
-1.16279e-10
1.85005e-10
4.72153e-10
1.7816e-09
-1.76905e-10
-3.89623e-10
5.82231e-11
1.03638e-10
3.38751e-11
4.07186e-13
-7.02134e-11
-3.93568e-11
-4.134e-11
2.45568e-12
5.06189e-12
8.35909e-12
1.37328e-11
-4.03475e-12
1.11262e-11
-2.94596e-11
-1.29744e-11
-2.57914e-11
-7.76268e-12
-1.92073e-11
-9.31728e-12
-5.23752e-12
-8.00441e-12
1.5674e-12
-6.19251e-12
-1.39393e-11
-1.37173e-11
-1.46262e-11
3.35996e-12
-1.10144e-11
-2.64472e-11
-1.6781e-11
-4.9223e-12
2.78106e-10
-4.19251e-11
-2.08853e-09
-4.48557e-10
-4.40707e-10
1.03134e-08
2.81089e-10
5.65778e-10
-7.20293e-11
-1.16182e-10
-4.50019e-11
-2.26518e-11
-3.87708e-11
-3.1683e-11
-3.11273e-11
3.14097e-12
1.75676e-12
3.0472e-11
7.55758e-12
1.25343e-11
1.51143e-11
-6.06338e-12
-1.25045e-11
-2.43671e-11
-6.06133e-12
-1.25143e-11
7.39153e-13
-5.0066e-12
-1.65633e-12
-1.65841e-11
-3.15564e-12
-3.81469e-12
-1.41495e-11
-1.89413e-11
-2.45787e-11
-2.39508e-11
1.92505e-11
-1.28356e-11
-4.45173e-11
-2.96497e-10
4.80828e-11
2.06359e-09
1.62828e-10
4.46726e-10
1.42286e-09
-3.07495e-10
-4.66926e-10
1.30242e-11
1.13209e-10
-3.81754e-11
2.79589e-11
-2.09832e-11
5.96054e-12
-1.43713e-11
1.7418e-11
-3.19001e-11
8.78033e-11
-5.05737e-12
1.59796e-11
-2.20997e-13
7.90813e-12
6.90132e-10
-1.61674e-11
1.59403e-12
-9.64842e-12
7.08991e-12
-4.8955e-12
1.45183e-12
-2.69904e-11
-6.21786e-12
-2.13808e-11
-7.17748e-12
1.86677e-11
-2.12892e-11
-5.09606e-11
-1.62864e-11
-3.01998e-11
1.13654e-10
4.64308e-11
-3.76803e-11
1.01552e-10
1.97624e-11
-5.3284e-10
-6.02698e-10
2.51592e-10
1.62298e-10
-7.00995e-11
-1.69196e-10
-6.89599e-11
-1.03381e-10
1.47716e-12
2.11992e-11
2.21318e-11
3.56799e-11
1.42051e-11
2.78267e-11
-2.10346e-11
1.26678e-11
7.05549e-12
8.89582e-12
-3.85091e-12
-9.67205e-12
4.52003e-12
-1.22242e-11
1.09488e-11
-9.54693e-12
1.73885e-12
-2.63074e-11
-5.45158e-12
-3.33857e-11
-3.25961e-12
7.41905e-12
1.97815e-12
4.97667e-11
-8.88442e-12
-6.7556e-11
-5.24677e-12
1.30994e-11
9.67084e-11
-2.21811e-10
-4.20736e-11
5.18285e-10
-1.47865e-09
-1.01939e-10
-3.378e-10
1.03939e-11
-4.07228e-11
8.05968e-11
1.53668e-11
3.78698e-11
1.6693e-11
-8.59152e-12
-1.22997e-12
-2.92103e-11
-1.39856e-11
-2.53109e-11
-7.1804e-12
-7.35785e-12
6.96993e-12
6.17848e-12
-3.16532e-12
1.82178e-12
-2.05148e-11
9.48123e-12
-1.39137e-11
9.68849e-12
-1.87294e-11
-4.57404e-12
-2.87895e-11
8.06664e-12
-4.905e-12
1.30447e-11
3.54941e-11
1.33184e-11
1.45661e-11
-6.62895e-11
6.94663e-11
6.33717e-11
-2.43572e-09
-1.25362e-10
2.06467e-09
6.00868e-08
3.34546e-10
5.48008e-10
9.51484e-11
8.75158e-11
5.10191e-11
6.3862e-11
1.76537e-11
-1.42143e-11
-2.69276e-11
-2.89165e-11
-2.51227e-11
-4.98797e-11
-1.03084e-11
-2.34579e-11
-5.82889e-12
7.44295e-12
7.9534e-12
7.99599e-13
-3.24522e-12
-2.29839e-11
5.43719e-12
-2.31019e-11
1.84022e-11
-6.68825e-13
1.07477e-11
-2.11624e-11
-1.77849e-13
-5.69479e-13
2.06573e-11
-3.28528e-11
6.3269e-12
1.76124e-11
1.60618e-11
-2.0375e-10
-9.31372e-11
2.62697e-09
1.52716e-10
-2.2039e-09
-2.4164e-09
-3.60797e-10
-2.51846e-10
1.02063e-11
9.09446e-11
-1.49466e-11
-1.55349e-11
-1.64966e-11
-2.02364e-11
-5.31229e-12
-2.70676e-11
-9.67617e-13
-3.3659e-11
1.42608e-11
-1.23012e-11
-9.9681e-13
1.38039e-11
8.96431e-12
3.40461e-12
-7.53579e-12
-1.78495e-11
5.39173e-12
-2.32204e-11
2.60187e-11
2.09026e-12
2.11165e-11
1.72396e-12
-1.35571e-13
-2.13282e-11
-1.01334e-11
-3.17254e-11
2.03863e-11
-6.99899e-11
2.86046e-11
1.27179e-10
2.69414e-11
-1.20893e-10
-8.19956e-11
-2.31904e-10
-1.10225e-10
4.4739e-11
2.98853e-11
-1.07587e-10
-8.51656e-11
-3.64174e-11
-6.8651e-12
-8.69208e-12
2.22961e-12
-2.51353e-12
-8.26045e-12
1.18496e-11
-1.0498e-11
2.38447e-11
9.56161e-12
-6.31179e-12
2.30681e-11
9.62747e-12
7.73773e-12
-7.78827e-12
-7.23521e-12
1.13666e-11
-1.87416e-11
2.91261e-11
2.62387e-12
2.30163e-11
-8.76969e-13
-9.70446e-12
-8.20974e-12
-2.06361e-11
-3.77153e-11
-6.66581e-12
-3.46582e-11
4.786e-11
-3.04478e-12
5.67272e-11
-2.53781e-11
-1.73883e-11
4.04141e-11
-1.0247e-10
-7.61887e-11
-7.24328e-11
-1.80531e-11
1.26437e-11
-2.17492e-12
2.96448e-11
1.35971e-12
2.90038e-11
3.08479e-12
1.31964e-11
1.12167e-11
4.62012e-12
1.08009e-11
2.11386e-11
-2.20258e-11
2.89224e-11
1.0146e-11
1.65011e-11
-5.99806e-12
1.83856e-12
1.95526e-11
-1.17707e-11
2.80957e-11
-5.13713e-12
1.39645e-11
-1.53439e-12
-1.54788e-11
-1.21556e-11
-2.47927e-11
-7.48889e-12
-2.67925e-12
-2.9822e-11
2.75854e-11
-2.35389e-11
5.07988e-11
3.95668e-12
4.68911e-11
-1.73904e-11
1.3884e-11
-7.4771e-12
2.46547e-11
6.98016e-12
4.00071e-11
1.9317e-11
4.72599e-11
9.96832e-12
3.16057e-11
-1.06853e-12
5.13591e-12
1.24419e-12
-2.22624e-12
-7.05465e-12
1.39167e-11
-3.75711e-11
2.08624e-11
6.34097e-12
2.82892e-11
8.53957e-14
5.55756e-12
1.21799e-11
-1.11528e-11
2.02976e-11
-1.20569e-11
8.38971e-12
-6.13515e-12
-8.38399e-12
-7.94788e-12
-1.11641e-11
-8.85185e-14
8.9996e-12
-1.23331e-11
2.28231e-11
-1.9594e-11
2.76856e-11
-1.27977e-11
2.43059e-11
-1.23856e-11
1.53397e-12
-4.94787e-13
2.05551e-11
1.73625e-11
2.6659e-11
1.99059e-11
1.99231e-11
2.16297e-13
1.25835e-12
-3.40656e-12
-1.00697e-11
-2.17357e-12
-1.66032e-11
-1.66995e-11
-1.49183e-11
-4.09887e-11
-9.02758e-12
-5.45243e-12
2.51813e-11
1.29385e-11
7.53407e-12
-5.16902e-12
-1.50619e-11
-8.36651e-13
-1.58604e-11
1.37259e-11
-9.38722e-12
1.11571e-11
-4.59324e-12
9.00631e-12
-1.51348e-12
1.49318e-11
-8.23864e-12
1.74157e-11
-1.6735e-11
9.43307e-12
-1.61904e-11
3.78244e-13
-1.42214e-11
-1.70866e-12
-9.66233e-12
-4.36117e-12
1.58448e-12
-1.88754e-12
4.68073e-12
-1.0938e-11
2.05633e-12
-1.79285e-11
-1.34018e-12
-1.61517e-11
-1.07533e-11
-2.35301e-11
-1.87049e-11
-3.74531e-11
-2.16579e-11
-3.83391e-11
-1.8539e-11
-5.06464e-12
1.63173e-11
6.24793e-13
-9.70624e-12
-8.31823e-12
-1.22506e-11
-1.59883e-11
9.3053e-12
-1.02904e-11
1.91061e-11
-3.47657e-12
1.52271e-11
-2.1744e-12
1.43615e-11
-8.72828e-12
9.05273e-12
-1.48567e-11
3.62157e-12
-1.78055e-11
-5.00373e-12
-1.7637e-11
-8.59812e-12
-1.80011e-11
-1.46261e-11
-1.21406e-11
-1.37952e-11
4.93032e-13
-1.63085e-11
9.79301e-12
-1.72619e-11
-3.8518e-12
-1.17569e-11
-2.90132e-11
-1.57071e-11
-2.35844e-11
-3.17672e-11
9.42453e-12
-3.76138e-11
-1.82983e-11
-3.56977e-11
-1.14614e-11
8.60943e-13
-9.20993e-12
-1.08789e-11
-2.35043e-12
-4.2714e-12
-6.89473e-12
-1.05783e-11
-1.043e-11
-1.21597e-11
-1.94683e-11
-2.00864e-11
-4.86038e-12
1.42908e-11
-2.26111e-12
-3.84088e-11
-2.76996e-11
3.32025e-11
)
;

boundaryField
{
    sides
    {
        type            calculated;
        value           uniform 0;
    }
    inlet
    {
        type            calculated;
        value           uniform 0;
    }
    outlet
    {
        type            calculated;
        value           nonuniform List<scalar> 
20
(
1.01378e-11
4.46862e-12
5.30829e-12
-2.70517e-11
-3.40639e-11
-1.51976e-11
1.71488e-11
3.63339e-11
5.07363e-11
-1.65617e-11
-5.86637e-12
-1.00456e-11
-1.66397e-11
-3.14743e-11
-4.77035e-11
-5.85027e-11
-5.34478e-11
-2.25654e-11
2.76229e-11
6.8793e-11
)
;
    }
    frontAndBack
    {
        type            empty;
        value           nonuniform List<scalar> 0();
    }
}


// ************************************************************************* //
