/*--------------------------------*- C++ -*----------------------------------*\
  =========                 |
  \\      /  F ield         | OpenFOAM: The Open Source CFD Toolbox
   \\    /   O peration     | Website:  https://openfoam.org
    \\  /    A nd           | Version:  9
     \\/     M anipulation  |
\*---------------------------------------------------------------------------*/
FoamFile
{
    format      ascii;
    class       volVectorField;
    location    "66";
    object      ddtCorrDdt0(hU);
}
// * * * * * * * * * * * * * * * * * * * * * * * * * * * * * * * * * * * * * //

dimensions      [0 2 -2 0 0 0 0];

internalField   nonuniform List<vector> 
400
(
(1.80903e-09 -7.76025e-10 0)
(-1.36616e-09 -2.23169e-09 0)
(-2.49554e-09 -1.10658e-09 0)
(-2.24769e-09 2.00297e-09 0)
(-1.71473e-09 1.08377e-09 0)
(-1.93817e-09 -8.99524e-11 0)
(-2.65318e-09 -2.90598e-09 0)
(-3.07269e-09 -2.40053e-09 0)
(1.22078e-10 -3.4412e-09 0)
(-5.43446e-12 -2.21346e-09 0)
(-4.62916e-10 -1.71574e-09 0)
(-4.81679e-09 -1.84917e-09 0)
(-4.522e-09 8.39697e-10 0)
(-3.13615e-10 2.01805e-10 0)
(3.19633e-09 1.50939e-09 0)
(4.95687e-09 1.72683e-09 0)
(1.26279e-09 1.15642e-09 0)
(-2.15798e-11 1.16787e-09 0)
(4.16622e-09 1.78629e-10 0)
(2.62089e-09 -9.58088e-10 0)
(1.28067e-09 -2.00782e-09 0)
(-3.76826e-10 -4.68803e-09 0)
(-4.80653e-10 -1.45089e-09 0)
(-1.02835e-09 3.20646e-09 0)
(-2.39925e-09 1.0216e-09 0)
(-3.40656e-09 -1.64616e-09 0)
(-3.30372e-09 -5.28877e-09 0)
(-3.27856e-09 -6.48371e-09 0)
(-2.32674e-09 -5.57319e-09 0)
(1.21726e-09 -4.91402e-09 0)
(-2.6759e-09 -6.91347e-10 0)
(-1.81611e-09 -1.91965e-09 0)
(-3.65593e-09 1.74053e-11 0)
(-1.56111e-09 1.17391e-09 0)
(3.70551e-09 1.711e-09 0)
(2.5669e-09 1.75604e-09 0)
(-7.38832e-10 1.64512e-09 0)
(-2.25753e-09 -7.63964e-10 0)
(-1.89413e-09 -4.50103e-09 0)
(-3.77318e-10 -2.36015e-09 0)
(1.23255e-09 -2.14197e-09 0)
(1.23246e-09 -3.64557e-09 0)
(1.33361e-09 -1.50483e-09 0)
(-4.69427e-10 -6.04275e-10 0)
(-3.71762e-09 -1.28191e-09 0)
(-3.65098e-09 -1.3318e-09 0)
(-4.60637e-09 -3.91521e-09 0)
(-2.34885e-09 -8.09979e-09 0)
(-4.14901e-09 -5.31083e-09 0)
(2.27162e-10 -2.56024e-10 0)
(-4.70156e-10 -1.97381e-09 0)
(-7.14593e-09 6.05086e-09 0)
(-1.60549e-09 -8.31075e-10 0)
(-2.21779e-09 3.02136e-10 0)
(4.384e-10 2.54408e-10 0)
(1.67413e-09 -1.50683e-09 0)
(-2.58266e-09 -1.5861e-10 0)
(-7.1281e-09 -5.10376e-10 0)
(-4.55016e-09 -2.6979e-09 0)
(8.60784e-10 -7.98849e-10 0)
(1.23101e-09 -3.97483e-10 0)
(2.32251e-09 -1.9968e-09 0)
(1.708e-09 -3.91186e-09 0)
(-9.47268e-10 -5.88781e-09 0)
(-2.63562e-09 -2.04832e-09 0)
(-4.37874e-09 1.98084e-09 0)
(-3.57398e-09 -4.22229e-09 0)
(-5.66471e-09 -5.51307e-09 0)
(2.81175e-09 -6.54814e-09 0)
(-9.62148e-09 9.10417e-09 0)
(5.18095e-09 4.44113e-09 0)
(-2.11109e-09 3.13491e-09 0)
(-1.20918e-08 8.80458e-09 0)
(-1.73206e-09 6.04914e-11 0)
(-4.1343e-09 -1.81917e-09 0)
(-2.58409e-09 -2.11506e-09 0)
(6.35392e-10 -8.68301e-10 0)
(-2.34976e-09 1.99166e-10 0)
(-6.03565e-09 3.48513e-10 0)
(-4.8826e-09 9.83156e-10 0)
(9.40558e-11 1.98148e-09 0)
(1.66904e-09 -1.98453e-09 0)
(1.77634e-10 -6.87363e-09 0)
(-6.3569e-10 -7.73541e-09 0)
(-1.45528e-09 -1.04711e-10 0)
(-3.4541e-09 1.78641e-09 0)
(-4.46024e-09 -2.41574e-09 0)
(-2.98043e-09 -7.07899e-09 0)
(-5.85245e-10 8.30116e-09 0)
(8.8521e-09 -5.51677e-09 0)
(-2.34421e-08 2.09422e-08 0)
(1.37729e-08 -6.42657e-09 0)
(-3.56352e-09 8.42046e-10 0)
(-1.90888e-08 6.48682e-09 0)
(-7.81139e-09 5.38155e-10 0)
(-3.4528e-09 -9.16506e-10 0)
(3.01174e-10 -2.9455e-10 0)
(5.59157e-10 -2.4412e-09 0)
(-2.61148e-09 -3.95253e-09 0)
(-5.00832e-09 -5.71489e-10 0)
(-1.45271e-09 2.65742e-09 0)
(-7.53623e-10 -2.73118e-09 0)
(-1.31875e-09 -7.80614e-09 0)
(-4.42076e-10 -5.52725e-09 0)
(-5.19707e-10 6.25156e-10 0)
(-2.69232e-09 1.1571e-09 0)
(-5.6342e-09 -2.90824e-09 0)
(6.1981e-09 -5.15773e-11 0)
(-1.09608e-08 5.42556e-09 0)
(1.3141e-08 -6.4811e-09 0)
(1.93901e-10 -2.10108e-08 0)
(-2.3823e-08 1.37493e-08 0)
(2.51932e-08 -1.57136e-08 0)
(-2.03115e-09 -3.94696e-09 0)
(-2.09701e-08 3.74949e-09 0)
(-1.02744e-08 2.4786e-09 0)
(5.55484e-10 1.3081e-09 0)
(4.00273e-09 -3.36831e-09 0)
(1.14398e-09 -6.84798e-09 0)
(-2.38704e-09 -2.66716e-09 0)
(-2.2267e-09 1.26731e-09 0)
(-2.83783e-09 -2.9125e-09 0)
(-2.43273e-09 -5.98751e-09 0)
(-5.91193e-10 -2.95425e-09 0)
(-3.60839e-10 -6.53825e-11 0)
(-3.7765e-09 -7.33233e-11 0)
(1.02661e-09 -1.19332e-09 0)
(-2.64824e-09 2.50676e-10 0)
(1.15068e-08 -1.38141e-08 0)
(-5.36478e-08 2.88694e-08 0)
(7.52755e-08 -8.27208e-08 0)
(1.49392e-08 -1.12158e-09 0)
(-1.71997e-08 6.35542e-09 0)
(1.4739e-08 -1.1213e-08 0)
(-4.59513e-09 -3.25411e-09 0)
(-1.29999e-08 3.17755e-09 0)
(-3.8041e-09 2.94188e-09 0)
(2.61327e-09 -2.6368e-09 0)
(3.24558e-09 -7.28107e-09 0)
(2.22211e-09 -3.0421e-09 0)
(-1.60679e-09 -6.56185e-10 0)
(-3.71673e-09 -2.22939e-09 0)
(-2.65131e-09 -3.14523e-09 0)
(-1.2842e-09 -1.60133e-09 0)
(-1.28966e-09 -1.31853e-09 0)
(-2.05363e-09 -1.14654e-09 0)
(-2.43287e-09 4.92028e-10 0)
(-1.01978e-09 -9.23769e-09 0)
(1.49576e-08 -1.11395e-08 0)
(-4.27186e-08 -2.4854e-08 0)
(-5.18013e-07 9.25677e-08 0)
(1.36375e-07 -2.51731e-09 0)
(8.77558e-09 -4.47417e-09 0)
(-1.66008e-08 -4.62502e-09 0)
(-6.05725e-09 -8.18705e-09 0)
(-7.87462e-09 -5.35808e-11 0)
(-3.21012e-09 5.35078e-09 0)
(1.8008e-09 1.11928e-09 0)
(2.97979e-09 -3.35376e-09 0)
(4.35416e-09 -2.32831e-09 0)
(-5.56692e-10 -1.34749e-09 0)
(-2.95209e-09 -8.50655e-10 0)
(-2.63285e-09 -1.04028e-09 0)
(-2.39514e-09 -7.40508e-10 0)
(-2.22335e-09 -2.42893e-09 0)
(-2.2984e-09 -2.48598e-09 0)
(-3.57815e-09 -3.50399e-10 0)
(-4.21265e-09 -5.54347e-09 0)
(-1.98724e-08 -4.54563e-09 0)
(3.4792e-08 -2.18457e-08 0)
(5.18492e-07 9.6449e-08 0)
(-1.36974e-07 -9.35692e-09 0)
(-1.72156e-08 -3.55128e-09 0)
(3.08473e-10 -2.41179e-09 0)
(-7.84671e-09 -4.32669e-09 0)
(-1.20547e-09 1.50551e-09 0)
(-8.70702e-09 4.90191e-09 0)
(-9.7272e-10 2.58845e-09 0)
(-2.53419e-10 -5.8674e-10 0)
(4.53982e-09 1.534e-09 0)
(2.43175e-10 -4.72798e-10 0)
(-1.96714e-09 6.97978e-10 0)
(-2.21628e-09 -4.04524e-11 0)
(-3.76579e-09 -7.96738e-10 0)
(-3.66992e-09 -1.79399e-09 0)
(-1.53571e-09 -4.51219e-09 0)
(-3.55762e-09 -8.30214e-10 0)
(-1.1653e-09 7.61108e-09 0)
(-1.58549e-08 1.32256e-09 0)
(5.11682e-08 2.24782e-08 0)
(-8.73869e-08 -9.60585e-08 0)
(-1.06154e-08 -8.77802e-09 0)
(2.29058e-08 -2.19726e-09 0)
(-1.94792e-08 -7.31388e-09 0)
(-6.09091e-09 2.30737e-09 0)
(1.19207e-09 5.91679e-09 0)
(7.35734e-09 4.18224e-09 0)
(-2.34717e-09 2.32547e-09 0)
(-9.07222e-10 9.59232e-10 0)
(-1.52962e-09 2.33184e-09 0)
(1.67816e-10 5.19569e-10 0)
(-1.39471e-09 1.76071e-09 0)
(-2.60671e-09 3.85951e-10 0)
(-4.37063e-09 -1.19021e-09 0)
(-4.94918e-09 -1.05291e-09 0)
(-1.80471e-09 -1.89651e-09 0)
(3.34686e-09 -2.60679e-09 0)
(-4.01626e-09 8.26992e-09 0)
(5.0599e-09 9.00378e-09 0)
(-4.67072e-08 8.04236e-09 0)
(6.13983e-08 -2.25957e-07 0)
(3.28362e-08 -1.12393e-08 0)
(-1.70489e-08 -1.34785e-08 0)
(1.31182e-08 -2.90657e-09 0)
(1.32944e-08 5.01268e-09 0)
(1.8871e-09 3.89921e-09 0)
(-4.71646e-09 1.51808e-09 0)
(-5.05676e-09 8.27869e-10 0)
(-2.76946e-09 2.04346e-09 0)
(-1.68177e-09 5.09249e-10 0)
(-5.3062e-11 6.05811e-10 0)
(-1.41946e-09 2.01845e-09 0)
(-3.2109e-09 1.23162e-09 0)
(-4.34825e-09 -1.05596e-09 0)
(-4.15175e-09 2.92489e-10 0)
(-2.5509e-09 1.38107e-09 0)
(2.40283e-09 1.30332e-09 0)
(4.86911e-10 -5.93528e-09 0)
(9.20123e-09 6.35961e-09 0)
(-2.10528e-07 -1.48239e-08 0)
(-9.48724e-08 2.72437e-07 0)
(2.91112e-07 1.98598e-08 0)
(2.95454e-08 5.8815e-09 0)
(1.32199e-08 8.34566e-09 0)
(7.38349e-09 -1.48139e-09 0)
(-1.95238e-09 -6.65972e-09 0)
(-5.88383e-09 -6.78667e-09 0)
(-3.27363e-09 -3.00674e-09 0)
(-8.31745e-10 1.74638e-09 0)
(-2.02986e-09 1.58866e-09 0)
(-6.48899e-11 -5.76205e-11 0)
(-1.53855e-09 1.50576e-09 0)
(-3.57864e-09 2.83055e-09 0)
(-3.41943e-09 6.31661e-10 0)
(-2.70973e-09 5.5968e-10 0)
(-1.68988e-09 3.20197e-09 0)
(-3.63781e-09 2.67614e-09 0)
(1.10152e-09 -3.50813e-09 0)
(-1.74106e-08 -9.57183e-09 0)
(2.10905e-07 -3.30261e-09 0)
(1.11605e-07 2.35693e-07 0)
(-3.19785e-07 2.78759e-08 0)
(-1.57518e-08 1.31085e-08 0)
(2.43709e-09 1.59203e-09 0)
(-5.14246e-09 -5.58377e-09 0)
(-2.07492e-09 -9.6401e-09 0)
(-9.4859e-10 -9.00481e-09 0)
(1.64366e-09 -3.49405e-09 0)
(1.94818e-09 2.25335e-09 0)
(-2.21861e-09 1.72801e-09 0)
(5.88534e-11 -1.03808e-09 0)
(-9.90803e-10 1.09323e-09 0)
(-3.16818e-09 4.42102e-09 0)
(-2.41935e-09 3.13261e-09 0)
(-8.81527e-10 -8.4625e-11 0)
(-2.02166e-09 9.72403e-10 0)
(-4.74192e-09 2.67877e-09 0)
(-6.57282e-09 4.22743e-09 0)
(-1.3984e-09 -4.56774e-09 0)
(2.36736e-08 1.19802e-08 0)
(-7.49665e-08 -2.4345e-07 0)
(5.17215e-09 -2.1044e-08 0)
(-9.50654e-09 1.97954e-09 0)
(-1.58649e-08 -1.58581e-09 0)
(-3.59908e-09 -1.30282e-09 0)
(-1.21958e-09 -3.71354e-09 0)
(1.0508e-09 -4.84402e-09 0)
(4.11317e-09 -2.50722e-10 0)
(1.59979e-09 3.63687e-09 0)
(-3.9218e-09 1.75658e-09 0)
(1.64247e-10 -1.58731e-09 0)
(2.05443e-10 1.58471e-09 0)
(-1.89683e-09 5.47123e-09 0)
(-1.55749e-09 4.37848e-09 0)
(-4.75256e-10 -8.9374e-10 0)
(-1.29268e-09 -2.88069e-09 0)
(-4.34852e-09 1.37772e-09 0)
(-6.4482e-09 7.50536e-09 0)
(-8.87941e-10 9.64208e-09 0)
(-9.8102e-09 -9.55743e-09 0)
(7.65954e-09 -1.49465e-08 0)
(-6.58702e-09 -5.86677e-09 0)
(-1.01429e-08 -7.19511e-09 0)
(-1.02769e-09 3.27235e-09 0)
(-1.85719e-11 3.97687e-09 0)
(5.63906e-10 9.63387e-10 0)
(1.8565e-09 -5.80965e-10 0)
(2.31949e-09 2.79236e-09 0)
(-2.00315e-09 4.89056e-09 0)
(-6.51016e-09 1.85646e-09 0)
(5.77174e-11 -1.48536e-09 0)
(1.98238e-09 2.89355e-09 0)
(-6.69174e-10 5.7135e-09 0)
(-9.86296e-10 3.81228e-09 0)
(-1.04928e-09 -2.33654e-09 0)
(-1.15147e-09 -4.35251e-09 0)
(-2.78042e-09 -8.00151e-10 0)
(-3.21519e-09 7.49406e-09 0)
(-5.01938e-09 1.03998e-08 0)
(-2.13801e-09 3.77736e-09 0)
(-9.06025e-10 1.70673e-09 0)
(-3.61559e-09 -2.76259e-09 0)
(-1.89974e-10 5.46296e-09 0)
(2.74224e-09 7.9694e-09 0)
(3.8082e-09 6.63032e-09 0)
(1.29875e-09 2.20828e-09 0)
(-4.98532e-11 1.34226e-10 0)
(-1.05239e-09 3.25904e-09 0)
(-5.42298e-09 4.95192e-09 0)
(-8.72133e-09 1.66103e-09 0)
(6.46713e-10 -6.42641e-10 0)
(3.16827e-09 3.05939e-09 0)
(2.05532e-11 4.83193e-09 0)
(-1.45141e-09 2.40611e-09 0)
(-1.51339e-09 -2.2024e-09 0)
(-1.76162e-09 -3.55119e-09 0)
(-1.20648e-09 6.04237e-10 0)
(-1.93028e-09 5.07598e-09 0)
(-2.52489e-09 7.78924e-09 0)
(-2.72468e-09 6.36487e-09 0)
(-2.99855e-09 2.68895e-09 0)
(-1.84207e-09 3.94611e-09 0)
(1.46107e-09 6.61576e-09 0)
(4.417e-09 6.79443e-09 0)
(2.51242e-09 3.29727e-09 0)
(1.76109e-11 -6.38185e-10 0)
(-6.01507e-10 -2.04592e-09 0)
(-2.72685e-09 -1.4589e-10 0)
(-6.54204e-09 1.35568e-09 0)
(-8.47845e-09 2.23389e-10 0)
(1.90174e-09 1.62874e-09 0)
(2.41832e-09 1.18003e-09 0)
(-3.97104e-10 1.85397e-09 0)
(-1.94936e-09 1.77414e-09 0)
(-2.14318e-09 -1.02967e-10 0)
(-1.87372e-09 -3.61469e-10 0)
(-1.26918e-09 2.58668e-09 0)
(-1.2769e-09 4.48494e-09 0)
(-1.97255e-09 4.17784e-09 0)
(-2.87686e-09 2.1631e-09 0)
(-3.56203e-09 1.68776e-10 0)
(-2.68337e-09 1.11043e-09 0)
(-8.49821e-10 2.33599e-09 0)
(8.94114e-10 6.80908e-10 0)
(9.2347e-10 -2.09321e-09 0)
(5.59418e-10 -2.99121e-09 0)
(-1.16792e-09 -4.09257e-09 0)
(-3.78729e-09 -5.13057e-09 0)
(-4.41369e-09 -4.61959e-09 0)
(-3.78254e-09 -2.3207e-09 0)
(2.08472e-09 3.53891e-09 0)
(-1.14985e-09 -6.08223e-10 0)
(-1.53293e-09 -1.73668e-09 0)
(-1.84354e-09 1.03268e-09 0)
(-2.07288e-09 2.1227e-09 0)
(-1.68655e-09 2.37083e-09 0)
(-1.08299e-09 3.53095e-09 0)
(-1.2342e-09 3.59664e-09 0)
(-1.79362e-09 2.206e-09 0)
(-2.83352e-09 4.36502e-11 0)
(-3.98985e-09 -1.55878e-09 0)
(-4.1113e-09 -1.60547e-09 0)
(-2.86762e-09 -1.44026e-09 0)
(-7.7265e-10 -2.84817e-09 0)
(9.96818e-10 -3.98697e-09 0)
(4.78521e-10 -3.43201e-09 0)
(-3.11454e-09 -4.0544e-09 0)
(-5.30366e-09 -6.25363e-09 0)
(-1.62013e-09 -6.94697e-09 0)
(3.83659e-09 -3.50092e-09 0)
(1.50205e-09 1.91856e-09 0)
(-4.75457e-09 -5.62495e-10 0)
(-2.66878e-09 -1.58405e-09 0)
(-1.20473e-09 1.64395e-10 0)
(-1.44759e-09 1.4629e-09 0)
(-1.26747e-09 1.61787e-09 0)
(-1.02212e-09 1.78453e-09 0)
(-1.0697e-09 1.34558e-09 0)
(-1.34411e-09 7.93712e-10 0)
(-1.8867e-09 -1.05945e-10 0)
(-2.16677e-09 -6.16358e-10 0)
(-3.56665e-09 -5.36273e-10 0)
(-3.89408e-09 -7.68032e-10 0)
(-2.19043e-09 -1.52149e-09 0)
(5.769e-10 -2.03485e-09 0)
(5.4697e-10 -1.61606e-09 0)
(-3.78798e-09 -1.625e-09 0)
(-5.74453e-09 -2.60094e-09 0)
(5.3041e-10 -3.16458e-09 0)
(9.7357e-09 -1.64111e-09 0)
)
;

boundaryField
{
    sides
    {
        type            calculated;
        value           nonuniform List<vector> 
40
(
(1.50205e-09 0 0)
(-4.75457e-09 0 0)
(-2.66878e-09 0 0)
(-1.20473e-09 0 0)
(-1.44759e-09 0 0)
(-1.26747e-09 0 0)
(-1.02212e-09 0 0)
(-1.0697e-09 0 0)
(-1.34411e-09 0 0)
(-1.8867e-09 0 0)
(-2.16677e-09 0 0)
(-3.56665e-09 0 0)
(-3.89408e-09 0 0)
(-2.19043e-09 0 0)
(5.769e-10 0 0)
(5.4697e-10 0 0)
(-3.78798e-09 0 0)
(-5.74453e-09 0 0)
(5.3041e-10 0 0)
(9.7357e-09 0 0)
(1.80903e-09 0 0)
(-1.36616e-09 0 0)
(-2.49554e-09 0 0)
(-2.24769e-09 0 0)
(-1.71473e-09 0 0)
(-1.93817e-09 0 0)
(-2.65318e-09 0 0)
(-3.07269e-09 0 0)
(1.22078e-10 0 0)
(-5.43446e-12 0 0)
(-4.62916e-10 0 0)
(-4.81679e-09 0 0)
(-4.522e-09 0 0)
(-3.13615e-10 0 0)
(3.19633e-09 0 0)
(4.95687e-09 0 0)
(1.26279e-09 0 0)
(-2.15798e-11 0 0)
(4.16622e-09 0 0)
(2.62089e-09 0 0)
)
;
    }
    inlet
    {
        type            calculated;
        value           uniform (0 0 0);
    }
    outlet
    {
        type            calculated;
        value           nonuniform List<vector> 
20
(
(2.62089e-09 -9.58088e-10 0)
(-3.77318e-10 -2.36015e-09 0)
(8.60784e-10 -7.98849e-10 0)
(-4.8826e-09 9.83156e-10 0)
(-5.00832e-09 -5.71489e-10 0)
(-2.38704e-09 -2.66716e-09 0)
(2.22211e-09 -3.0421e-09 0)
(4.35416e-09 -2.32831e-09 0)
(4.53982e-09 1.534e-09 0)
(-1.52962e-09 2.33184e-09 0)
(-1.68177e-09 5.09249e-10 0)
(-2.02986e-09 1.58866e-09 0)
(-2.21861e-09 1.72801e-09 0)
(-3.9218e-09 1.75658e-09 0)
(-6.51016e-09 1.85646e-09 0)
(-8.72133e-09 1.66103e-09 0)
(-8.47845e-09 2.23389e-10 0)
(-3.78254e-09 -2.3207e-09 0)
(3.83659e-09 -3.50092e-09 0)
(9.7357e-09 -1.64111e-09 0)
)
;
    }
    frontAndBack
    {
        type            empty;
    }
}


// ************************************************************************* //
