/*--------------------------------*- C++ -*----------------------------------*\
  =========                 |
  \\      /  F ield         | OpenFOAM: The Open Source CFD Toolbox
   \\    /   O peration     | Website:  https://openfoam.org
    \\  /    A nd           | Version:  9
     \\/     M anipulation  |
\*---------------------------------------------------------------------------*/
FoamFile
{
    format      ascii;
    class       volScalarField;
    location    "66";
    object      h_0;
}
// * * * * * * * * * * * * * * * * * * * * * * * * * * * * * * * * * * * * * //

dimensions      [0 1 0 0 0 0 0];

internalField   nonuniform List<scalar> 
400
(
0.0100004
0.0100003
0.0100002
0.0100001
0.00999992
0.0099997
0.00999947
0.00999923
0.00999902
0.00999886
0.00999877
0.00999878
0.0099989
0.00999911
0.00999938
0.00999965
0.00999987
0.01
0.0100001
0.01
0.0100003
0.0100003
0.0100002
0.01
0.00999983
0.00999961
0.00999935
0.00999909
0.00999884
0.00999864
0.00999853
0.00999856
0.00999871
0.00999897
0.00999927
0.00999956
0.00999978
0.00999991
0.00999996
0.00999999
0.0100003
0.0100003
0.0100002
0.01
0.00999983
0.00999959
0.00999931
0.009999
0.0099987
0.00999846
0.00999832
0.00999833
0.00999851
0.00999884
0.00999925
0.00999964
0.00999992
0.0100001
0.0100001
0.01
0.0100004
0.0100003
0.0100002
0.0100001
0.00999987
0.0099996
0.00999926
0.00999886
0.00999845
0.00999807
0.00999786
0.00999787
0.00999819
0.00999871
0.00999929
0.00999974
0.00999995
0.00999998
0.00999996
0.00999996
0.0100005
0.0100004
0.0100003
0.0100002
0.00999998
0.00999966
0.00999924
0.00999872
0.00999814
0.00999755
0.00999716
0.00999718
0.00999767
0.00999856
0.00999952
0.0100002
0.0100004
0.0100003
0.0100001
0.00999999
0.0100006
0.0100006
0.0100005
0.0100004
0.0100002
0.00999984
0.00999932
0.0099986
0.00999772
0.0099969
0.00999629
0.00999627
0.00999704
0.0099984
0.00999972
0.0100004
0.0100005
0.0100002
0.00999993
0.00999991
0.0100008
0.0100008
0.0100007
0.0100007
0.0100005
0.0100002
0.00999965
0.00999865
0.00999713
0.00999537
0.00999418
0.00999451
0.00999669
0.00999947
0.0100013
0.0100015
0.0100008
0.01
0.00999974
0.00999987
0.0100009
0.0100009
0.010001
0.0100011
0.010001
0.0100008
0.0100003
0.00999927
0.00999737
0.00999427
0.00999054
0.00999022
0.00999447
0.0100002
0.0100033
0.0100031
0.0100013
0.00999985
0.00999949
0.00999983
0.010001
0.0100011
0.0100013
0.0100015
0.0100018
0.0100019
0.0100014
0.00999948
0.0099955
0.00998975
0.00998673
0.00998973
0.00999803
0.0100037
0.0100044
0.0100024
0.0100003
0.00999934
0.00999944
0.00999988
0.010001
0.0100011
0.0100014
0.0100019
0.0100026
0.010004
0.0100059
0.0100078
0.0100049
0.00897847
0.00895238
0.00997585
0.0100088
0.0100178
0.0100104
0.0100023
0.00999885
0.0099989
0.00999978
0.0100001
0.0100009
0.0100011
0.0100013
0.0100018
0.0100026
0.010004
0.0100058
0.0100078
0.0100048
0.00897844
0.00895243
0.0099758
0.0100088
0.0100178
0.0100104
0.0100023
0.00999884
0.00999888
0.00999975
0.0100001
0.0100008
0.0100009
0.0100011
0.0100013
0.0100016
0.0100017
0.0100012
0.00999928
0.0099953
0.00998953
0.00998684
0.00998959
0.00999792
0.0100036
0.0100043
0.0100023
0.0100002
0.00999932
0.00999945
0.00999989
0.0100006
0.0100006
0.0100007
0.0100007
0.0100007
0.0100005
0.01
0.00999897
0.0099971
0.00999405
0.00999
0.00998996
0.00999422
0.00999993
0.0100031
0.0100029
0.0100011
0.00999977
0.00999946
0.00999982
0.0100003
0.0100003
0.0100003
0.0100002
0.0100001
0.00999977
0.0099992
0.00999821
0.00999672
0.00999494
0.00999374
0.00999414
0.00999633
0.00999917
0.0100011
0.0100013
0.0100006
0.0099999
0.00999963
0.00999983
0.00999999
0.00999997
0.0099999
0.00999979
0.00999959
0.00999926
0.00999874
0.00999804
0.0099972
0.00999639
0.00999583
0.00999582
0.00999664
0.00999804
0.00999939
0.0100001
0.0100002
0.00999999
0.00999981
0.00999988
0.00999973
0.00999968
0.0099996
0.00999946
0.00999925
0.00999894
0.00999854
0.00999803
0.00999747
0.00999691
0.00999653
0.00999659
0.00999712
0.00999805
0.00999904
0.00999974
0.01
0.00999998
0.0099999
0.00999993
0.00999949
0.00999944
0.00999935
0.00999921
0.00999901
0.00999874
0.00999841
0.00999803
0.00999764
0.00999732
0.00999715
0.0099972
0.00999754
0.00999812
0.00999877
0.00999931
0.00999963
0.00999977
0.00999983
0.00999992
0.00999929
0.00999924
0.00999915
0.00999901
0.00999883
0.0099986
0.00999832
0.00999803
0.00999774
0.00999751
0.0099974
0.00999746
0.00999771
0.00999811
0.00999859
0.00999904
0.00999939
0.00999962
0.00999978
0.00999991
0.00999913
0.00999909
0.00999901
0.00999888
0.00999871
0.0099985
0.00999827
0.00999803
0.00999782
0.00999766
0.00999759
0.00999764
0.00999783
0.00999815
0.00999855
0.00999894
0.00999929
0.00999956
0.00999976
0.00999992
0.009999
0.00999896
0.00999887
0.00999873
0.00999856
0.00999837
0.00999815
0.00999793
0.00999774
0.0099976
0.00999755
0.00999762
0.0099978
0.00999808
0.00999842
0.00999878
0.00999912
0.0099994
0.00999966
0.00999987
)
;

boundaryField
{
    sides
    {
        type            zeroGradient;
    }
    inlet
    {
        type            zeroGradient;
    }
    outlet
    {
        type            fixedValue;
        value           uniform 0.01;
    }
    frontAndBack
    {
        type            empty;
    }
}


// ************************************************************************* //
