/*--------------------------------*- C++ -*----------------------------------*\
  =========                 |
  \\      /  F ield         | OpenFOAM: The Open Source CFD Toolbox
   \\    /   O peration     | Website:  https://openfoam.org
    \\  /    A nd           | Version:  9
     \\/     M anipulation  |
\*---------------------------------------------------------------------------*/
FoamFile
{
    format      ascii;
    class       volVectorField;
    location    "66";
    object      hU_0;
}
// * * * * * * * * * * * * * * * * * * * * * * * * * * * * * * * * * * * * * //

dimensions      [0 2 -1 0 0 0 0];

internalField   nonuniform List<vector> 
400
(
(0.001 -2.4475e-08 0)
(0.00100004 -7.07832e-08 0)
(0.00100012 -1.13311e-07 0)
(0.00100024 -1.5197e-07 0)
(0.00100039 -1.86663e-07 0)
(0.00100058 -2.16473e-07 0)
(0.00100078 -2.37068e-07 0)
(0.00100099 -2.45518e-07 0)
(0.00100118 -2.36368e-07 0)
(0.00100133 -2.11312e-07 0)
(0.0010014 -1.69259e-07 0)
(0.0010014 -1.2947e-07 0)
(0.00100129 -9.99954e-08 0)
(0.00100111 -9.372e-08 0)
(0.00100087 -9.99612e-08 0)
(0.00100065 -1.35973e-07 0)
(0.00100044 -1.5722e-07 0)
(0.00100034 -2.01962e-07 0)
(0.00100026 -1.89439e-07 0)
(0.00100033 -2.68734e-07 0)
(0.001 -2.73806e-08 0)
(0.00100005 -7.96269e-08 0)
(0.00100013 -1.28495e-07 0)
(0.00100026 -1.7298e-07 0)
(0.00100042 -2.11863e-07 0)
(0.00100062 -2.39889e-07 0)
(0.00100084 -2.46523e-07 0)
(0.00100108 -2.21091e-07 0)
(0.0010013 -1.54999e-07 0)
(0.00100147 -4.82044e-08 0)
(0.00100156 9.22838e-08 0)
(0.00100154 2.45014e-07 0)
(0.00100141 3.8717e-07 0)
(0.00100119 4.7529e-07 0)
(0.00100093 5.04526e-07 0)
(0.00100067 4.51323e-07 0)
(0.00100048 3.7694e-07 0)
(0.00100037 2.54729e-07 0)
(0.00100033 2.04101e-07 0)
(0.00100029 8.1152e-08 0)
(0.001 -5.36742e-08 0)
(0.00100004 -1.6035e-07 0)
(0.00100013 -2.66944e-07 0)
(0.00100026 -3.72195e-07 0)
(0.00100043 -4.72102e-07 0)
(0.00100064 -5.55633e-07 0)
(0.0010009 -6.04787e-07 0)
(0.00100117 -5.98882e-07 0)
(0.00100143 -5.18408e-07 0)
(0.00100164 -3.52429e-07 0)
(0.00100176 -1.11159e-07 0)
(0.00100176 1.59683e-07 0)
(0.00100159 3.98932e-07 0)
(0.00100131 5.18704e-07 0)
(0.00100095 4.99187e-07 0)
(0.00100062 3.53553e-07 0)
(0.00100037 2.01706e-07 0)
(0.00100026 4.35886e-08 0)
(0.00100022 -4.3662e-09 0)
(0.0010003 -1.1687e-07 0)
(0.001 -7.47711e-08 0)
(0.00100004 -2.23711e-07 0)
(0.00100013 -3.74734e-07 0)
(0.00100026 -5.29019e-07 0)
(0.00100045 -6.79761e-07 0)
(0.00100069 -8.1066e-07 0)
(0.001001 -8.90782e-07 0)
(0.00100134 -8.86997e-07 0)
(0.00100171 -7.55886e-07 0)
(0.00100203 -4.74513e-07 0)
(0.00100222 -2.44738e-08 0)
(0.00100219 4.90945e-07 0)
(0.00100192 9.34485e-07 0)
(0.00100146 1.13843e-06 0)
(0.00100097 1.05472e-06 0)
(0.00100058 7.43106e-07 0)
(0.00100041 4.2258e-07 0)
(0.00100035 1.67854e-07 0)
(0.0010004 1.01788e-07 0)
(0.00100035 1.36758e-09 0)
(0.001 -9.17974e-08 0)
(0.00100004 -2.7911e-07 0)
(0.00100012 -4.76977e-07 0)
(0.00100025 -6.93061e-07 0)
(0.00100044 -9.20359e-07 0)
(0.00100072 -1.14024e-06 0)
(0.00100109 -1.30095e-06 0)
(0.00100155 -1.33859e-06 0)
(0.00100207 -1.175e-06 0)
(0.00100257 -7.76631e-07 0)
(0.0010029 -1.70565e-07 0)
(0.00100288 5.77143e-07 0)
(0.00100244 1.23001e-06 0)
(0.00100167 1.51128e-06 0)
(0.00100086 1.37554e-06 0)
(0.00100031 9.64926e-07 0)
(0.00100013 5.80439e-07 0)
(0.00100022 3.1253e-07 0)
(0.00100037 2.62819e-07 0)
(0.00100043 1.69552e-07 0)
(0.001 -1.03564e-07 0)
(0.00100003 -3.19287e-07 0)
(0.00100009 -5.62356e-07 0)
(0.00100019 -8.44168e-07 0)
(0.00100038 -1.17258e-06 0)
(0.00100068 -1.52634e-06 0)
(0.00100115 -1.86146e-06 0)
(0.00100178 -2.05546e-06 0)
(0.00100254 -1.90968e-06 0)
(0.00100326 -1.19858e-06 0)
(0.00100377 8.64154e-08 0)
(0.00100378 1.54142e-06 0)
(0.00100309 2.43258e-06 0)
(0.00100192 2.30532e-06 0)
(0.00100082 1.43098e-06 0)
(0.00100019 4.9286e-07 0)
(0.00100017 1.24469e-08 0)
(0.00100037 -8.69249e-08 0)
(0.00100064 6.07714e-08 0)
(0.00100055 5.14643e-08 0)
(0.001 -1.02437e-07 0)
(0.001 -3.34049e-07 0)
(0.00100002 -6.02239e-07 0)
(0.00100008 -9.61595e-07 0)
(0.00100021 -1.39233e-06 0)
(0.00100048 -1.94778e-06 0)
(0.001001 -2.49144e-06 0)
(0.00100188 -3.08483e-06 0)
(0.00100321 -3.23279e-06 0)
(0.00100473 -2.87843e-06 0)
(0.00100574 -6.70943e-07 0)
(0.00100535 2.55608e-06 0)
(0.0010035 4.82499e-06 0)
(0.00100112 4.73538e-06 0)
(0.000999608 3.02892e-06 0)
(0.000999373 1.26449e-06 0)
(0.00100001 4.30424e-07 0)
(0.00100056 3.24968e-07 0)
(0.00100093 5.62582e-07 0)
(0.00100066 5.35478e-07 0)
(0.000999995 -9.23289e-08 0)
(0.000999968 -2.89195e-07 0)
(0.000999907 -5.77278e-07 0)
(0.000999876 -9.56422e-07 0)
(0.000999879 -1.57752e-06 0)
(0.0010001 -2.34632e-06 0)
(0.0010005 -3.40406e-06 0)
(0.00100152 -4.12458e-06 0)
(0.00100308 -4.37309e-06 0)
(0.00100601 -2.5518e-06 0)
(0.00100911 7.49301e-07 0)
(0.00100915 4.25906e-06 0)
(0.0010055 4.7143e-06 0)
(0.00100074 2.77964e-06 0)
(0.000998152 7.34718e-07 0)
(0.000998276 -2.74422e-07 0)
(0.000999801 -2.86182e-07 0)
(0.00100088 -1.11443e-08 0)
(0.00100133 2.12169e-07 0)
(0.00100085 1.03888e-07 0)
(0.000999995 -4.91349e-08 0)
(0.000999914 -2.04137e-07 0)
(0.000999755 -3.86675e-07 0)
(0.000999531 -7.34704e-07 0)
(0.000999288 -1.33858e-06 0)
(0.000999211 -2.48259e-06 0)
(0.000999707 -4.68873e-06 0)
(0.00100139 -8.0683e-06 0)
(0.00100491 -1.32855e-05 0)
(0.00100958 -1.49142e-05 0)
(0.00101188 3.83789e-06 0)
(0.00100893 1.87226e-05 0)
(0.00100222 1.57782e-05 0)
(0.000997568 5.74006e-06 0)
(0.000996888 -3.16467e-07 0)
(0.000998464 -1.26336e-06 0)
(0.00100027 -9.50908e-08 0)
(0.00100101 6.33369e-07 0)
(0.00100107 6.51872e-07 0)
(0.00100054 2.44489e-07 0)
(0.000999804 -1.98597e-08 0)
(0.00100017 -6.68227e-08 0)
(0.000999215 -1.51439e-07 0)
(0.000999904 -2.48684e-07 0)
(0.000997521 -5.92364e-07 0)
(0.000998843 -1.13204e-06 0)
(0.000993347 -2.88462e-06 0)
(0.00099753 -5.59269e-06 0)
(0.000991667 -1.15406e-05 0)
(0.000915831 -1.27032e-05 0)
(0.000951464 2.75087e-07 0)
(0.00101023 1.46428e-05 0)
(0.000990951 1.30847e-05 0)
(0.000983976 5.14179e-06 0)
(0.000989588 1.94994e-07 0)
(0.000996283 -7.81226e-07 0)
(0.000999239 -1.11909e-07 0)
(0.000999414 2.47821e-07 0)
(0.000998649 1.74665e-07 0)
(0.000998506 -1.84252e-07 0)
(0.000999804 1.29535e-08 0)
(0.00100017 4.59262e-08 0)
(0.000999214 1.17386e-07 0)
(0.000999902 1.99537e-07 0)
(0.000997519 5.28965e-07 0)
(0.000998838 1.05142e-06 0)
(0.000993339 2.78654e-06 0)
(0.000997519 5.47365e-06 0)
(0.000991651 1.13994e-05 0)
(0.000915809 1.25507e-05 0)
(0.000951435 -4.72303e-07 0)
(0.0010102 -1.49027e-05 0)
(0.000990948 -1.3406e-05 0)
(0.000983968 -5.53381e-06 0)
(0.000989568 -6.47755e-07 0)
(0.000996244 2.48209e-07 0)
(0.000999197 -4.71934e-07 0)
(0.000999368 -1.00179e-06 0)
(0.000998634 -9.87772e-07 0)
(0.000998456 -8.88094e-07 0)
(0.000999995 4.25915e-08 0)
(0.000999914 1.8398e-07 0)
(0.000999754 3.53251e-07 0)
(0.00099953 6.86514e-07 0)
(0.000999285 1.27591e-06 0)
(0.00099921 2.40224e-06 0)
(0.000999702 4.59074e-06 0)
(0.00100139 7.9437e-06 0)
(0.0010049 1.31306e-05 0)
(0.00100958 1.47167e-05 0)
(0.00101192 -4.06245e-06 0)
(0.00100891 -1.90077e-05 0)
(0.00100214 -1.60955e-05 0)
(0.000997478 -6.12383e-06 0)
(0.000996815 -8.57869e-08 0)
(0.000998401 7.74392e-07 0)
(0.00100017 -4.26804e-07 0)
(0.00100085 -1.30377e-06 0)
(0.00100088 -1.37819e-06 0)
(0.00100037 -1.25041e-06 0)
(0.000999996 8.62687e-08 0)
(0.000999967 2.70142e-07 0)
(0.000999905 5.445e-07 0)
(0.000999871 9.09258e-07 0)
(0.00099987 1.51306e-06 0)
(0.00100008 2.26278e-06 0)
(0.00100048 3.2965e-06 0)
(0.00100149 3.993e-06 0)
(0.00100303 4.20965e-06 0)
(0.00100595 2.36143e-06 0)
(0.00100899 -9.78112e-07 0)
(0.00100906 -4.54202e-06 0)
(0.00100543 -5.02104e-06 0)
(0.00100067 -3.13157e-06 0)
(0.000998059 -1.13346e-06 0)
(0.000998136 -2.52714e-07 0)
(0.000999624 -3.2182e-07 0)
(0.00100064 -7.39417e-07 0)
(0.00100106 -9.66124e-07 0)
(0.00100055 -1.07392e-06 0)
(0.001 9.66441e-08 0)
(0.001 3.15748e-07 0)
(0.00100002 5.7113e-07 0)
(0.00100007 9.1655e-07 0)
(0.0010002 1.33323e-06 0)
(0.00100046 1.87238e-06 0)
(0.00100097 2.4017e-06 0)
(0.00100185 2.97731e-06 0)
(0.00100318 3.11224e-06 0)
(0.00100469 2.73207e-06 0)
(0.00100568 5.041e-07 0)
(0.00100528 -2.74874e-06 0)
(0.00100338 -5.07558e-06 0)
(0.00100097 -5.07044e-06 0)
(0.000999411 -3.45045e-06 0)
(0.000999124 -1.79493e-06 0)
(0.000999747 -1.01979e-06 0)
(0.00100026 -1.05686e-06 0)
(0.00100062 -1.3063e-06 0)
(0.00100024 -1.51589e-06 0)
(0.001 9.79089e-08 0)
(0.00100003 3.0283e-07 0)
(0.00100008 5.34991e-07 0)
(0.00100018 8.04757e-07 0)
(0.00100036 1.12118e-06 0)
(0.00100066 1.46069e-06 0)
(0.00100112 1.78075e-06 0)
(0.00100174 1.95299e-06 0)
(0.00100248 1.7839e-06 0)
(0.00100317 1.03555e-06 0)
(0.00100366 -2.7652e-07 0)
(0.00100363 -1.77861e-06 0)
(0.00100292 -2.7072e-06 0)
(0.00100171 -2.63035e-06 0)
(0.00100058 -1.7792e-06 0)
(0.000999906 -8.95833e-07 0)
(0.00099986 -4.2614e-07 0)
(0.000999983 -4.45818e-07 0)
(0.00100022 -6.15661e-07 0)
(0.00100001 -8.49024e-07 0)
(0.001 8.63163e-08 0)
(0.00100004 2.64665e-07 0)
(0.00100011 4.53783e-07 0)
(0.00100024 6.60401e-07 0)
(0.00100043 8.77162e-07 0)
(0.0010007 1.08535e-06 0)
(0.00100106 1.23193e-06 0)
(0.0010015 1.25426e-06 0)
(0.001002 1.07402e-06 0)
(0.00100248 6.57497e-07 0)
(0.0010028 1.97691e-08 0)
(0.00100275 -7.66912e-07 0)
(0.00100228 -1.44667e-06 0)
(0.00100146 -1.77281e-06 0)
(0.00100062 -1.66821e-06 0)
(0.00100001 -1.34859e-06 0)
(0.000999794 -1.02822e-06 0)
(0.000999767 -9.34633e-07 0)
(0.000999886 -9.44407e-07 0)
(0.00099977 -1.10881e-06 0)
(0.001 7.00854e-08 0)
(0.00100004 2.10516e-07 0)
(0.00100012 3.53612e-07 0)
(0.00100025 4.99893e-07 0)
(0.00100043 6.43033e-07 0)
(0.00100066 7.66147e-07 0)
(0.00100095 8.39053e-07 0)
(0.00100129 8.2691e-07 0)
(0.00100163 6.91227e-07 0)
(0.00100191 4.06052e-07 0)
(0.00100206 -4.62188e-08 0)
(0.001002 -5.73553e-07 0)
(0.00100171 -1.03317e-06 0)
(0.0010012 -1.28066e-06 0)
(0.00100065 -1.23032e-06 0)
(0.00100016 -9.94852e-07 0)
(0.000999915 -7.0067e-07 0)
(0.000999741 -5.54286e-07 0)
(0.000999754 -4.86075e-07 0)
(0.000999563 -5.98462e-07 0)
(0.001 5.18606e-08 0)
(0.00100004 1.50849e-07 0)
(0.00100012 2.46016e-07 0)
(0.00100025 3.36778e-07 0)
(0.00100041 4.20028e-07 0)
(0.00100062 4.83376e-07 0)
(0.00100086 5.09907e-07 0)
(0.00100112 4.74415e-07 0)
(0.00100137 3.61565e-07 0)
(0.00100157 1.55714e-07 0)
(0.00100167 -1.15992e-07 0)
(0.00100161 -4.19263e-07 0)
(0.00100139 -6.79955e-07 0)
(0.00100104 -8.42165e-07 0)
(0.00100064 -8.51097e-07 0)
(0.00100022 -7.71371e-07 0)
(0.00099995 -6.36839e-07 0)
(0.00099969 -5.94421e-07 0)
(0.00099963 -5.60209e-07 0)
(0.000999389 -6.84677e-07 0)
(0.001 3.61058e-08 0)
(0.00100004 1.05707e-07 0)
(0.00100011 1.73795e-07 0)
(0.00100023 2.39816e-07 0)
(0.00100038 3.00617e-07 0)
(0.00100056 3.49549e-07 0)
(0.00100077 3.76276e-07 0)
(0.00100097 3.69921e-07 0)
(0.00100116 3.20461e-07 0)
(0.0010013 2.24556e-07 0)
(0.00100136 8.70575e-08 0)
(0.00100131 -6.90575e-08 0)
(0.00100115 -2.04909e-07 0)
(0.00100086 -2.97019e-07 0)
(0.00100054 -3.12875e-07 0)
(0.00100017 -2.82261e-07 0)
(0.000999901 -2.01891e-07 0)
(0.000999615 -1.66964e-07 0)
(0.000999519 -1.17526e-07 0)
(0.000999252 -1.98244e-07 0)
(0.001 -3.43557e-09 0)
(0.00100004 -9.45398e-09 0)
(0.00100012 -1.31845e-08 0)
(0.00100024 -1.55263e-08 0)
(0.00100038 -1.78121e-08 0)
(0.00100056 -2.3074e-08 0)
(0.00100075 -3.34808e-08 0)
(0.00100094 -5.29521e-08 0)
(0.00100112 -8.13828e-08 0)
(0.00100123 -1.21817e-07 0)
(0.00100128 -1.69261e-07 0)
(0.00100122 -2.30605e-07 0)
(0.00100107 -2.90009e-07 0)
(0.00100081 -3.41127e-07 0)
(0.00100053 -3.59784e-07 0)
(0.00100018 -3.68056e-07 0)
(0.000999947 -3.42013e-07 0)
(0.000999611 -3.52113e-07 0)
(0.000999524 -3.27436e-07 0)
(0.000999133 -4.10534e-07 0)
)
;

boundaryField
{
    sides
    {
        type            slip;
    }
    inlet
    {
        type            fixedValue;
        value           uniform (0.001 0 0);
    }
    outlet
    {
        type            zeroGradient;
    }
    frontAndBack
    {
        type            empty;
    }
}


// ************************************************************************* //
