/*--------------------------------*- C++ -*----------------------------------*\
  =========                 |
  \\      /  F ield         | OpenFOAM: The Open Source CFD Toolbox
   \\    /   O peration     | Website:  https://openfoam.org
    \\  /    A nd           | Version:  9
     \\/     M anipulation  |
\*---------------------------------------------------------------------------*/
FoamFile
{
    format      ascii;
    class       surfaceScalarField;
    location    "66";
    object      phi_0;
}
// * * * * * * * * * * * * * * * * * * * * * * * * * * * * * * * * * * * * * //

dimensions      [0 4 -1 0 0 0 0];

internalField   nonuniform List<scalar> 
760
(
5.00009e-06
-9.52671e-11
5.0004e-06
-3.08974e-10
5.00091e-06
-5.1421e-10
5.00161e-06
-7.01321e-10
5.00249e-06
-8.68468e-10
5.0035e-06
-1.00074e-09
5.00456e-06
-1.06156e-09
5.00557e-06
-1.01632e-09
5.0064e-06
-8.34545e-10
5.00692e-06
-5.25891e-10
5.00705e-06
-1.29469e-10
5.00665e-06
3.85754e-10
5.0058e-06
8.43623e-10
5.0047e-06
1.09636e-09
5.00353e-06
1.16905e-09
5.00257e-06
9.49191e-10
5.00186e-06
7.07892e-10
5.00162e-06
2.33808e-10
5.00151e-06
9.9388e-11
-3.92986e-10
5.00012e-06
-2.18705e-10
5.00045e-06
-6.39408e-10
5.00098e-06
-1.04647e-09
5.00172e-06
-1.43615e-09
5.00265e-06
-1.79776e-09
5.00374e-06
-2.09257e-09
5.00493e-06
-2.25134e-09
5.00611e-06
-2.19691e-09
5.00713e-06
-1.85609e-09
5.00777e-06
-1.17305e-09
5.00775e-06
-1.04428e-10
5.00726e-06
8.70293e-10
5.00627e-06
1.82753e-09
5.00496e-06
2.40475e-09
5.00369e-06
2.44065e-09
5.00278e-06
1.85438e-09
5.00225e-06
1.23544e-09
5.00192e-06
5.65571e-10
5.00165e-06
3.595e-10
-1.47763e-10
5.00011e-06
-3.28737e-10
5.00043e-06
-9.59757e-10
5.00096e-06
-1.57591e-09
5.00172e-06
-2.19783e-09
5.00272e-06
-2.79965e-09
5.00394e-06
-3.31804e-09
5.00532e-06
-3.62981e-09
5.00672e-06
-3.59977e-09
5.00793e-06
-3.06104e-09
5.00872e-06
-1.96549e-09
5.00893e-06
-3.14613e-10
5.00826e-06
1.55331e-09
5.00687e-06
3.20825e-09
5.00516e-06
4.1236e-09
5.00351e-06
4.08826e-09
5.00231e-06
3.05235e-09
5.00166e-06
1.8793e-09
5.00148e-06
7.53352e-10
5.00145e-06
3.91808e-10
-2.19261e-10
5.0001e-06
-4.27282e-10
5.00041e-06
-1.26796e-09
5.00095e-06
-2.11153e-09
5.00175e-06
-3.00264e-09
5.00285e-06
-3.9099e-09
5.00429e-06
-4.75176e-09
5.00601e-06
-5.36023e-09
5.00795e-06
-5.53402e-09
5.00984e-06
-4.95224e-09
5.01108e-06
-3.18797e-09
5.0112e-06
-4.39429e-10
5.00999e-06
2.76622e-09
5.00765e-06
5.55987e-09
5.00515e-06
6.63051e-09
5.00348e-06
5.76163e-09
5.0027e-06
3.82791e-09
5.00248e-06
2.10349e-09
5.00231e-06
9.26598e-10
5.002e-06
7.09993e-10
3.45535e-10
5.00008e-06
-5.05649e-10
5.00034e-06
-1.52521e-09
5.00084e-06
-2.60681e-09
5.00163e-06
-3.80815e-09
5.00286e-06
-5.13228e-09
5.00457e-06
-6.47039e-09
5.00679e-06
-7.58441e-09
5.00941e-06
-8.15469e-09
5.01239e-06
-7.91294e-09
5.01478e-06
-5.58023e-09
5.01483e-06
-4.57503e-10
5.01284e-06
4.73668e-09
5.00867e-06
9.74386e-09
5.0046e-06
1.07157e-08
5.00224e-06
8.12016e-09
5.00175e-06
4.32595e-09
5.00205e-06
1.80257e-09
5.00226e-06
7.18044e-10
5.00202e-06
9.57955e-10
6.36675e-10
5.00004e-06
-5.44214e-10
5.0002e-06
-1.68028e-09
5.00054e-06
-2.94889e-09
5.00121e-06
-4.48107e-09
5.00241e-06
-6.3321e-09
5.00452e-06
-8.58303e-09
5.00759e-06
-1.06634e-08
5.01167e-06
-1.22236e-08
5.01554e-06
-1.17576e-08
5.01901e-06
-9.07555e-09
5.02021e-06
-1.65361e-09
5.01603e-06
8.93964e-09
5.0095e-06
1.62406e-08
5.00421e-06
1.60071e-08
5.00218e-06
1.01662e-08
5.0025e-06
4.0044e-09
5.00328e-06
1.03001e-09
5.0034e-06
5.94242e-10
5.0028e-06
1.55365e-09
1.43161e-09
4.99998e-06
-5.23261e-10
4.99994e-06
-1.63788e-09
5.00003e-06
-3.04103e-09
5.00036e-06
-4.81073e-09
5.00122e-06
-7.19165e-09
5.00292e-06
-1.02838e-08
5.00679e-06
-1.45429e-08
5.01393e-06
-1.93369e-08
5.02374e-06
-2.16108e-08
5.03095e-06
-1.62203e-08
5.02873e-06
4.14054e-10
5.01673e-06
2.09416e-08
5.00418e-06
2.87993e-08
4.99873e-06
2.14461e-08
5.00058e-06
8.31475e-09
5.00286e-06
1.73126e-09
5.00373e-06
1.61535e-10
5.00367e-06
6.47869e-10
5.00305e-06
2.16865e-09
1.68952e-09
4.99987e-06
-3.89553e-10
4.99955e-06
-1.32326e-09
4.99912e-06
-2.61316e-09
4.99885e-06
-4.54029e-09
4.99933e-06
-7.66716e-09
5.00036e-06
-1.13108e-08
5.00364e-06
-1.78295e-08
5.00982e-06
-2.55153e-08
5.02489e-06
-3.66638e-08
5.05613e-06
-4.75282e-08
5.05008e-06
7.6554e-09
5.02316e-06
4.77399e-08
4.99817e-06
5.37845e-08
4.9935e-06
2.61285e-08
4.99947e-06
2.34314e-09
5.00409e-06
-2.87676e-09
5.00492e-06
-6.71244e-10
5.00373e-06
1.83026e-09
5.00351e-06
2.38392e-09
9.75886e-10
4.99977e-06
-1.58589e-10
4.99915e-06
-7.06785e-10
4.99792e-06
-1.37974e-09
4.99611e-06
-2.73091e-09
4.99402e-06
-5.57681e-09
4.99374e-06
-1.1033e-08
4.99945e-06
-2.3539e-08
5.01713e-06
-4.31973e-08
5.05569e-06
-7.52343e-08
5.06682e-06
-5.85684e-08
5.04969e-06
2.36056e-08
4.99652e-06
1.01046e-07
4.98931e-06
6.10104e-08
4.99592e-06
1.95376e-08
5.0002e-06
-1.93469e-09
5.00294e-06
-5.6158e-09
5.00253e-06
-2.39472e-10
5.00185e-06
2.51255e-09
5.00255e-06
1.67944e-09
7.84876e-11
4.99986e-06
-1.71191e-11
4.9992e-06
-5.21697e-11
4.99791e-06
-8.64976e-11
4.99531e-06
-1.28297e-10
4.9899e-06
-1.69493e-10
4.97909e-06
-2.19869e-10
4.95582e-06
-2.72846e-10
4.91294e-06
-3.30828e-10
4.83814e-06
-3.84706e-10
4.77996e-06
-4.54285e-10
4.8043e-06
-5.55506e-10
4.90604e-06
-7.15935e-10
4.96779e-06
-7.45202e-10
4.98823e-06
-8.9242e-10
4.98746e-06
-1.15589e-09
4.98327e-06
-1.42512e-09
4.98457e-06
-1.55678e-09
4.98891e-06
-1.82774e-09
4.99248e-06
-1.8922e-09
-2.58169e-09
4.99986e-06
1.25253e-10
4.9992e-06
6.01646e-10
4.9979e-06
1.21085e-09
4.9953e-06
2.47945e-09
4.98988e-06
5.24824e-09
4.97905e-06
1.0604e-08
4.95577e-06
2.30171e-08
4.9129e-06
4.25444e-08
4.83803e-06
7.44604e-08
4.77975e-06
5.7857e-08
4.80426e-06
-2.52139e-08
4.90599e-06
-1.02458e-07
4.96778e-06
-6.25052e-08
4.98807e-06
-2.11963e-08
4.98736e-06
-4.55094e-10
4.98294e-06
2.99514e-09
4.98444e-06
-3.04982e-09
4.98889e-06
-6.28184e-09
4.99235e-06
-5.35396e-09
-4.98198e-09
4.99977e-06
3.57542e-10
4.99914e-06
1.22271e-09
4.99791e-06
2.44178e-09
4.9961e-06
4.29179e-09
4.99402e-06
7.33065e-09
4.99373e-06
1.08929e-08
4.99943e-06
1.73275e-08
5.01708e-06
2.48997e-08
5.05563e-06
3.59004e-08
5.0671e-06
4.63347e-08
5.0496e-06
-7.59792e-09
4.9961e-06
-4.91066e-08
4.98885e-06
-5.52671e-08
4.99569e-06
-2.80542e-08
5.00011e-06
-4.87605e-09
5.00232e-06
7.84253e-10
5.00166e-06
-2.38929e-09
5.00091e-06
-5.52782e-09
5.00169e-06
-6.13413e-09
-5.95175e-09
4.99987e-06
4.92894e-10
4.99955e-06
1.5414e-09
4.99911e-06
2.8769e-09
4.99883e-06
4.57383e-09
4.99927e-06
6.8859e-09
5.00027e-06
9.90077e-09
5.00348e-06
1.412e-08
5.0096e-06
1.87787e-08
5.02459e-06
2.09133e-08
5.05556e-06
1.54135e-08
5.04962e-06
-1.8214e-09
5.02284e-06
-2.21558e-08
4.99788e-06
-3.03101e-08
4.99316e-06
-2.33409e-08
4.99865e-06
-1.03534e-08
5.00346e-06
-4.02594e-09
5.00374e-06
-2.66847e-09
5.00236e-06
-4.15355e-09
5.00217e-06
-5.94294e-09
-6.53801e-09
4.99998e-06
5.15085e-10
4.99993e-06
1.59167e-09
5e-06
2.80035e-09
5.00031e-06
4.271e-09
5.00113e-06
6.06281e-09
5.0028e-06
8.24009e-09
5.00668e-06
1.02322e-08
5.01377e-06
1.16776e-08
5.02357e-06
1.11345e-08
5.0307e-06
8.26828e-09
5.0284e-06
6.4645e-10
5.01625e-06
-1.00268e-08
5.0035e-06
-1.75498e-08
4.99778e-06
-1.76063e-08
4.99942e-06
-1.19887e-08
5.00162e-06
-6.22104e-09
5.00241e-06
-3.46171e-09
5.00214e-06
-3.88168e-09
5.0012e-06
-5.00758e-09
-5.98097e-09
5.00004e-06
4.77462e-10
5.00018e-06
1.44808e-09
5.0005e-06
2.47996e-09
5.00115e-06
3.62555e-09
5.00232e-06
4.89309e-09
5.00439e-06
6.16535e-09
5.00742e-06
7.20825e-09
5.01139e-06
7.69606e-09
5.01513e-06
7.39072e-09
5.01853e-06
4.88718e-09
5.01956e-06
-3.95945e-10
5.01524e-06
-5.68383e-09
5.00855e-06
-1.08532e-08
5.00312e-06
-1.21714e-08
5.00088e-06
-9.75451e-09
5.00101e-06
-6.35181e-09
5.00156e-06
-4.00581e-09
5.00132e-06
-3.643e-09
5.00036e-06
-4.04391e-09
-4.98043e-09
5.00008e-06
4.00983e-10
5.00033e-06
1.20321e-09
5.0008e-06
2.01002e-09
5.00156e-06
2.85271e-09
5.00275e-06
3.7097e-09
5.00441e-06
4.50264e-09
5.00656e-06
5.05893e-09
5.00909e-06
5.15649e-09
5.01203e-06
4.45073e-09
5.01441e-06
2.50817e-09
5.01414e-06
-1.32622e-10
5.01209e-06
-3.62396e-09
5.00776e-06
-6.52436e-09
5.00349e-06
-7.90763e-09
5.00093e-06
-7.19459e-09
5.00013e-06
-5.55487e-09
5.0001e-06
-3.97945e-09
4.99988e-06
-3.41109e-09
4.99918e-06
-3.337e-09
-4.17419e-09
5.0001e-06
3.05714e-10
5.0004e-06
9.06368e-10
5.00091e-06
1.49757e-09
5.00167e-06
2.08359e-09
5.00273e-06
2.64489e-09
5.00412e-06
3.11604e-09
5.00579e-06
3.38991e-09
5.00763e-06
3.31595e-09
5.00933e-06
2.75279e-09
5.01027e-06
1.56922e-09
5.01043e-06
-3.00021e-10
5.00903e-06
-2.22599e-09
5.00651e-06
-4.00099e-09
5.00368e-06
-5.08031e-09
5.00154e-06
-5.06525e-09
5.00034e-06
-4.35712e-09
4.9997e-06
-3.33715e-09
4.99917e-06
-2.87374e-09
4.99846e-06
-2.61832e-09
-3.2162e-09
5.0001e-06
2.0543e-10
5.00042e-06
5.98499e-10
5.00093e-06
9.79661e-10
5.00166e-06
1.3479e-09
5.00261e-06
1.68818e-09
5.00378e-06
1.95279e-09
5.00509e-06
2.07395e-09
5.00645e-06
1.96243e-09
5.00765e-06
1.55844e-09
5.00839e-06
8.29392e-10
5.00821e-06
-1.23724e-10
5.00734e-06
-1.3507e-09
5.00571e-06
-2.37002e-09
5.00369e-06
-3.06479e-09
5.00179e-06
-3.17372e-09
5.00033e-06
-2.9e-09
4.99932e-06
-2.3183e-09
4.99853e-06
-2.0809e-09
4.99774e-06
-1.82569e-09
-2.27827e-09
5.00008e-06
1.19791e-10
5.00037e-06
3.07748e-10
5.00087e-06
4.89375e-10
5.00155e-06
6.6647e-10
5.00241e-06
8.28253e-10
5.00341e-06
9.49848e-10
5.00449e-06
9.99642e-10
5.00551e-06
9.39164e-10
5.00633e-06
7.3844e-10
5.00679e-06
3.63851e-10
5.00681e-06
-1.38245e-10
5.00608e-06
-6.22348e-10
5.0048e-06
-1.08623e-09
5.00316e-06
-1.4268e-09
5.00149e-06
-1.50209e-09
5.00002e-06
-1.43815e-09
4.99889e-06
-1.18224e-09
4.99793e-06
-1.1264e-09
4.99708e-06
-9.71741e-10
-1.42456e-09
5.00011e-06
5.00041e-06
5.00091e-06
5.00159e-06
5.00242e-06
5.00337e-06
5.00436e-06
5.0053e-06
5.00603e-06
5.00639e-06
5.00625e-06
5.00563e-06
5.00454e-06
5.00311e-06
5.00161e-06
5.00017e-06
4.99899e-06
4.99786e-06
4.99688e-06
)
;

boundaryField
{
    sides
    {
        type            calculated;
        value           uniform 0;
    }
    inlet
    {
        type            calculated;
        value           nonuniform List<scalar> 
20
(
-5e-06
-5e-06
-5e-06
-5e-06
-5e-06
-5e-06
-5e-06
-5e-06
-5e-06
-5e-06
-5e-06
-5e-06
-5e-06
-5e-06
-5e-06
-5e-06
-5e-06
-5e-06
-5e-06
-5e-06
)
;
    }
    outlet
    {
        type            calculated;
        value           nonuniform List<scalar> 
20
(
5.0019e-06
5.00141e-06
5.00153e-06
5.00144e-06
5.00173e-06
5.00201e-06
5.00279e-06
5.00422e-06
5.00344e-06
4.99514e-06
4.99475e-06
5.00266e-06
5.00275e-06
5.00064e-06
4.99936e-06
4.99838e-06
4.9975e-06
4.9968e-06
4.99622e-06
4.99546e-06
)
;
    }
    frontAndBack
    {
        type            empty;
        value           nonuniform List<scalar> 0();
    }
}


// ************************************************************************* //
