/*--------------------------------*- C++ -*----------------------------------*\
  =========                 |
  \\      /  F ield         | OpenFOAM: The Open Source CFD Toolbox
   \\    /   O peration     | Website:  https://openfoam.org
    \\  /    A nd           | Version:  9
     \\/     M anipulation  |
\*---------------------------------------------------------------------------*/
FoamFile
{
    format      ascii;
    class       volVectorField;
    location    "66";
    object      U;
}
// * * * * * * * * * * * * * * * * * * * * * * * * * * * * * * * * * * * * * //

dimensions      [0 1 -1 0 0 0 0];

internalField   nonuniform List<vector> 
400
(
(0.0999966 -2.45538e-06 0)
(0.100001 -7.09809e-06 0)
(0.10001 -1.13341e-05 0)
(0.100023 -1.51831e-05 0)
(0.10004 -1.86649e-05 0)
(0.100061 -2.16568e-05 0)
(0.100084 -2.37337e-05 0)
(0.100107 -2.45782e-05 0)
(0.100128 -2.36643e-05 0)
(0.100144 -2.11559e-05 0)
(0.100152 -1.69359e-05 0)
(0.100152 -1.2957e-05 0)
(0.10014 -9.98704e-06 0)
(0.10012 -9.36265e-06 0)
(0.100093 -9.9842e-06 0)
(0.100068 -1.35791e-05 0)
(0.100045 -1.57034e-05 0)
(0.100034 -2.01733e-05 0)
(0.100025 -1.89239e-05 0)
(0.100033 -2.68731e-05 0)
(0.0999971 -2.75548e-06 0)
(0.100002 -7.99893e-06 0)
(0.100012 -1.28518e-05 0)
(0.100026 -1.72835e-05 0)
(0.100044 -2.1197e-05 0)
(0.100066 -2.40171e-05 0)
(0.100091 -2.47013e-05 0)
(0.100117 -2.21716e-05 0)
(0.100141 -1.55447e-05 0)
(0.100161 -4.85451e-06 0)
(0.100171 9.23209e-06 0)
(0.100169 2.45178e-05 0)
(0.100154 3.87377e-05 0)
(0.100129 4.75572e-05 0)
(0.1001 5.04756e-05 0)
(0.100071 4.51542e-05 0)
(0.100051 3.77215e-05 0)
(0.100037 2.54881e-05 0)
(0.100033 2.03976e-05 0)
(0.100029 8.10734e-06 0)
(0.099997 -5.37781e-06 0)
(0.100002 -1.60571e-05 0)
(0.100011 -2.67099e-05 0)
(0.100025 -3.72438e-05 0)
(0.100045 -4.72372e-05 0)
(0.100068 -5.55796e-05 0)
(0.100097 -6.05284e-05 0)
(0.100127 -5.99592e-05 0)
(0.100156 -5.18995e-05 0)
(0.10018 -3.5221e-05 0)
(0.100193 -1.11199e-05 0)
(0.100192 1.60361e-05 0)
(0.100174 3.99298e-05 0)
(0.100142 5.18885e-05 0)
(0.100102 4.99339e-05 0)
(0.100066 3.53536e-05 0)
(0.100038 2.01786e-05 0)
(0.100026 4.36774e-06 0)
(0.100021 -4.47863e-07 0)
(0.100029 -1.16877e-05 0)
(0.0999964 -7.46684e-06 0)
(0.100001 -2.23826e-05 0)
(0.100011 -3.75223e-05 0)
(0.100025 -5.29673e-05 0)
(0.100046 -6.79921e-05 0)
(0.100073 -8.1057e-05 0)
(0.100107 -8.91274e-05 0)
(0.100146 -8.87643e-05 0)
(0.100186 -7.56262e-05 0)
(0.100222 -4.74115e-05 0)
(0.100243 -2.34934e-06 0)
(0.10024 4.91108e-05 0)
(0.100211 9.35388e-05 0)
(0.100159 0.000113886 0)
(0.100104 0.000105475 0)
(0.100061 7.43048e-05 0)
(0.100041 4.22612e-05 0)
(0.100035 1.67891e-05 0)
(0.100041 1.01742e-05 0)
(0.100035 1.40757e-07 0)
(0.0999954 -9.15447e-06 0)
(0.0999996 -2.79286e-05 0)
(0.100008 -4.77695e-05 0)
(0.100023 -6.93734e-05 0)
(0.100045 -9.20315e-05 0)
(0.100076 -0.000114016 0)
(0.100117 -0.00013013 0)
(0.100168 -0.000133926 0)
(0.100225 -0.000117444 0)
(0.100281 -7.77532e-05 0)
(0.100318 -1.69227e-05 0)
(0.100316 5.77316e-05 0)
(0.100267 0.000122971 0)
(0.100182 0.000151179 0)
(0.100091 0.000137579 0)
(0.100029 9.64962e-05 0)
(0.10001 5.80478e-05 0)
(0.100019 3.12228e-05 0)
(0.100036 2.62226e-05 0)
(0.100043 1.6936e-05 0)
(0.0999941 -1.0336e-05 0)
(0.0999969 -3.19566e-05 0)
(0.100003 -5.63034e-05 0)
(0.100016 -8.44566e-05 0)
(0.100036 -0.000117249 0)
(0.10007 -0.000152628 0)
(0.100122 -0.000186181 0)
(0.100193 -0.00020555 0)
(0.100277 -0.000191051 0)
(0.100357 -0.00011986 0)
(0.100414 8.335e-06 0)
(0.100415 0.000154264 0)
(0.100339 0.000243221 0)
(0.100208 0.000230476 0)
(0.100085 0.000143109 0)
(0.100015 4.93129e-05 0)
(0.100013 1.2637e-06 0)
(0.100035 -8.72895e-06 0)
(0.100065 5.99671e-06 0)
(0.100055 5.11124e-06 0)
(0.0999925 -1.02421e-05 0)
(0.0999928 -3.34334e-05 0)
(0.0999949 -6.02687e-05 0)
(0.100001 -9.6177e-05 0)
(0.100016 -0.000139228 0)
(0.100046 -0.00019477 0)
(0.100103 -0.000249154 0)
(0.100202 -0.000308546 0)
(0.10035 -0.000323477 0)
(0.100519 -0.000287872 0)
(0.100632 -6.73943e-05 0)
(0.100591 0.000255555 0)
(0.100383 0.000482715 0)
(0.100118 0.000473494 0)
(0.0999478 0.000302803 0)
(0.099922 0.000126448 0)
(0.0999929 4.30667e-05 0)
(0.100056 3.24713e-05 0)
(0.100095 5.61858e-05 0)
(0.100067 5.35157e-05 0)
(0.0999906 -9.24701e-06 0)
(0.0999873 -2.89391e-05 0)
(0.0999807 -5.7748e-05 0)
(0.099977 -9.56499e-05 0)
(0.0999775 -0.00015775 0)
(0.100001 -0.000234613 0)
(0.100047 -0.000340393 0)
(0.10016 -0.000412598 0)
(0.100335 -0.000437496 0)
(0.100659 -0.000255445 0)
(0.101007 7.54804e-05 0)
(0.101014 0.000426516 0)
(0.100606 0.000471688 0)
(0.100072 0.000277954 0)
(0.0997821 7.33983e-05 0)
(0.099797 -2.74411e-05 0)
(0.0999674 -2.85724e-05 0)
(0.100089 -1.10087e-06 0)
(0.100138 2.11888e-05 0)
(0.100087 1.03707e-05 0)
(0.0999895 -4.92779e-06 0)
(0.0999805 -2.04202e-05 0)
(0.0999628 -3.86733e-05 0)
(0.0999378 -7.34726e-05 0)
(0.0999107 -0.00013386 0)
(0.0999019 -0.000248224 0)
(0.0999567 -0.000468809 0)
(0.100144 -0.000806932 0)
(0.100536 -0.00132917 0)
(0.101062 -0.00149308 0)
(0.101323 0.000384799 0)
(0.100997 0.00187432 0)
(0.100241 0.0015781 0)
(0.0997202 0.000573778 0)
(0.0996447 -3.16639e-05 0)
(0.0998223 -0.000126301 0)
(0.100025 -9.46546e-06 0)
(0.100107 6.33733e-05 0)
(0.100113 6.51954e-05 0)
(0.100056 2.4464e-05 0)
(0.0999704 -1.98706e-06 0)
(0.100006 -6.67648e-06 0)
(0.0999077 -1.51463e-05 0)
(0.0999717 -2.48735e-05 0)
(0.0997259 -5.92443e-05 0)
(0.0998441 -0.000113192 0)
(0.0992765 -0.00028828 0)
(0.099675 -0.000558766 0)
(0.0991181 -0.00115349 0)
(0.102003 -0.00141479 0)
(0.106281 3.0148e-05 0)
(0.101267 0.00146751 0)
(0.099008 0.00130727 0)
(0.0982226 0.000513168 0)
(0.0988556 1.94543e-05 0)
(0.0996054 -7.80676e-05 0)
(0.0999354 -1.11498e-05 0)
(0.0999524 2.48151e-05 0)
(0.0998671 1.7483e-05 0)
(0.0998491 -1.8404e-05 0)
(0.099971 1.3052e-06 0)
(0.100006 4.60602e-06 0)
(0.0999083 1.17364e-05 0)
(0.0999722 1.99418e-05 0)
(0.0997262 5.28748e-05 0)
(0.0998442 0.000105079 0)
(0.0992764 0.000278485 0)
(0.0996746 0.000547034 0)
(0.099117 0.00113939 0)
(0.102001 0.00139789 0)
(0.106277 -5.3652e-05 0)
(0.101266 -0.00149422 0)
(0.099008 -0.00133956 0)
(0.0982225 -0.000552483 0)
(0.0988541 -6.46984e-05 0)
(0.0996018 2.48467e-05 0)
(0.0999313 -4.71807e-05 0)
(0.099948 -0.00010018 0)
(0.0998659 -9.87654e-05 0)
(0.0998443 -8.88031e-05 0)
(0.0999916 4.26854e-06 0)
(0.0999825 1.84141e-05 0)
(0.0999647 3.53285e-05 0)
(0.0999397 6.86397e-05 0)
(0.0999124 0.000127581 0)
(0.0999038 0.000240192 0)
(0.0999583 0.000459014 0)
(0.100146 0.000794382 0)
(0.100537 0.00131375 0)
(0.101063 0.00147323 0)
(0.101325 -0.000405879 0)
(0.100996 -0.00190228 0)
(0.100235 -0.00160983 0)
(0.0997123 -0.00061208 0)
(0.0996387 -8.55655e-06 0)
(0.0998175 7.73731e-05 0)
(0.100015 -4.27445e-05 0)
(0.100092 -0.000130423 0)
(0.100093 -0.00013782 0)
(0.100038 -0.000125031 0)
(0.099994 8.62803e-06 0)
(0.0999907 2.70287e-05 0)
(0.0999838 5.44716e-05 0)
(0.0999798 9.09295e-05 0)
(0.09998 0.00015131 0)
(0.100003 0.000226289 0)
(0.100048 0.000329653 0)
(0.100159 0.000399285 0)
(0.100332 0.000421061 0)
(0.100655 0.000236378 0)
(0.101 -9.7058e-05 0)
(0.101006 -0.000454206 0)
(0.100601 -0.00050221 0)
(0.100067 -0.000313081 0)
(0.0997752 -0.000113329 0)
(0.0997849 -2.53467e-05 0)
(0.0999512 -3.22723e-05 0)
(0.100067 -7.39871e-05 0)
(0.100112 -9.65976e-05 0)
(0.100057 -0.000107375 0)
(0.0999972 9.65762e-06 0)
(0.0999975 3.15887e-05 0)
(0.0999992 5.71555e-05 0)
(0.100005 9.16805e-05 0)
(0.100019 0.000133321 0)
(0.100049 0.000187246 0)
(0.100105 0.000240202 0)
(0.100203 0.00029781 0)
(0.100351 0.000311289 0)
(0.10052 0.000273323 0)
(0.100631 4.98661e-05 0)
(0.100586 -0.000275402 0)
(0.100375 -0.000507731 0)
(0.100105 -0.000507085 0)
(0.0999305 -0.000345022 0)
(0.0998991 -0.000179508 0)
(0.0999684 -0.000102026 0)
(0.100027 -0.000105691 0)
(0.100065 -0.000130587 0)
(0.100025 -0.000151565 0)
(0.1 9.78314e-06 0)
(0.100003 3.0302e-05 0)
(0.100009 5.35528e-05 0)
(0.100021 8.05118e-05 0)
(0.100041 0.000112105 0)
(0.100074 0.000146048 0)
(0.100124 0.000178112 0)
(0.100193 0.000195412 0)
(0.100276 0.000178489 0)
(0.100353 0.000103536 0)
(0.100408 -2.79915e-05 0)
(0.100405 -0.000178017 0)
(0.100326 -0.000270884 0)
(0.100191 -0.000263085 0)
(0.100064 -0.000177912 0)
(0.0999892 -8.95828e-05 0)
(0.0999837 -4.26207e-05 0)
(0.0999984 -4.45492e-05 0)
(0.100024 -6.15049e-05 0)
(0.100002 -8.48755e-05 0)
(0.100003 8.62596e-06 0)
(0.100007 2.64951e-05 0)
(0.100015 4.54313e-05 0)
(0.100029 6.60722e-05 0)
(0.10005 8.76934e-05 0)
(0.10008 0.000108502 0)
(0.10012 0.000123211 0)
(0.10017 0.000125533 0)
(0.100225 0.000107531 0)
(0.100279 6.57778e-05 0)
(0.100315 1.97382e-06 0)
(0.100309 -7.67614e-05 0)
(0.100256 -0.000144693 0)
(0.100166 -0.000177261 0)
(0.100072 -0.000166787 0)
(0.100003 -0.000134846 0)
(0.0999793 -0.000102819 0)
(0.0999769 -9.34294e-05 0)
(0.0999896 -9.43896e-05 0)
(0.0999776 -0.000110863 0)
(0.100005 7.00052e-06 0)
(0.10001 2.10803e-05 0)
(0.100019 3.54074e-05 0)
(0.100033 5.00171e-05 0)
(0.100053 6.42895e-05 0)
(0.100079 7.65954e-05 0)
(0.100111 8.39261e-05 0)
(0.100148 8.2767e-05 0)
(0.100186 6.92227e-05 0)
(0.100218 4.06766e-05 0)
(0.100235 -4.59152e-06 0)
(0.100228 -5.73502e-05 0)
(0.100196 -0.00010329 0)
(0.100139 -0.00012803 0)
(0.100077 -0.00012301 0)
(0.100023 -9.94942e-05 0)
(0.0999952 -7.00924e-05 0)
(0.0999764 -5.54387e-05 0)
(0.0999771 -4.86031e-05 0)
(0.099957 -5.98485e-05 0)
(0.100007 5.18093e-06 0)
(0.100012 1.50945e-05 0)
(0.100021 2.46336e-05 0)
(0.100035 3.37125e-05 0)
(0.100053 4.20158e-05 0)
(0.100076 4.83431e-05 0)
(0.100103 5.102e-05 0)
(0.100132 4.74901e-05 0)
(0.10016 3.62084e-05 0)
(0.100182 1.56009e-05 0)
(0.100193 -1.1598e-05 0)
(0.100186 -4.19279e-05 0)
(0.100162 -6.79882e-05 0)
(0.100122 -8.42148e-05 0)
(0.100078 -8.51255e-05 0)
(0.100032 -7.71651e-05 0)
(0.100001 -6.37331e-05 0)
(0.0999728 -5.95075e-05 0)
(0.0999651 -5.60758e-05 0)
(0.0999398 -6.84932e-05 0)
(0.100009 3.61496e-06 0)
(0.100013 1.05593e-05 0)
(0.100021 1.73862e-05 0)
(0.100034 2.40175e-05 0)
(0.100051 3.0096e-05 0)
(0.100071 3.49802e-05 0)
(0.100094 3.76576e-05 0)
(0.100117 3.70227e-05 0)
(0.100138 3.20676e-05 0)
(0.100153 2.24561e-05 0)
(0.10016 8.68254e-06 0)
(0.100155 -6.9289e-06 0)
(0.100137 -2.05093e-05 0)
(0.100105 -2.97252e-05 0)
(0.100068 -3.1315e-05 0)
(0.100027 -2.82518e-05 0)
(0.0999972 -2.02346e-05 0)
(0.0999659 -1.67722e-05 0)
(0.0999543 -1.18259e-05 0)
(0.099926 -1.98567e-05 0)
(0.10001 -3.3958e-07 0)
(0.100015 -9.55335e-07 0)
(0.100023 -1.32332e-06 0)
(0.100036 -1.53895e-06 0)
(0.100053 -1.76267e-06 0)
(0.100072 -2.29422e-06 0)
(0.100094 -3.33744e-06 0)
(0.100115 -5.28971e-06 0)
(0.100134 -8.13776e-06 0)
(0.100147 -1.21908e-05 0)
(0.100152 -1.69445e-05 0)
(0.100145 -2.30766e-05 0)
(0.100129 -2.90162e-05 0)
(0.1001 -3.41308e-05 0)
(0.100069 -3.59972e-05 0)
(0.10003 -3.68209e-05 0)
(0.100003 -3.42223e-05 0)
(0.099967 -3.52456e-05 0)
(0.0999559 -3.27781e-05 0)
(0.0999147 -4.10686e-05 0)
)
;

boundaryField
{
    sides
    {
        type            calculated;
        value           nonuniform List<vector> 
40
(
(0.10001 0 0)
(0.100015 0 0)
(0.100023 0 0)
(0.100036 0 0)
(0.100053 0 0)
(0.100072 0 0)
(0.100094 0 0)
(0.100115 0 0)
(0.100134 0 0)
(0.100147 0 0)
(0.100152 0 0)
(0.100145 0 0)
(0.100129 0 0)
(0.1001 0 0)
(0.100069 0 0)
(0.10003 0 0)
(0.100003 0 0)
(0.099967 0 0)
(0.0999559 0 0)
(0.0999147 0 0)
(0.0999966 0 0)
(0.100001 0 0)
(0.10001 0 0)
(0.100023 0 0)
(0.10004 0 0)
(0.100061 0 0)
(0.100084 0 0)
(0.100107 0 0)
(0.100128 0 0)
(0.100144 0 0)
(0.100152 0 0)
(0.100152 0 0)
(0.10014 0 0)
(0.10012 0 0)
(0.100093 0 0)
(0.100068 0 0)
(0.100045 0 0)
(0.100034 0 0)
(0.100025 0 0)
(0.100033 0 0)
)
;
    }
    inlet
    {
        type            calculated;
        value           nonuniform List<vector> 
20
(
(0.0999964 0 0)
(0.0999969 0 0)
(0.0999968 0 0)
(0.0999962 0 0)
(0.0999953 0 0)
(0.099994 0 0)
(0.0999925 0 0)
(0.099991 0 0)
(0.0999901 0 0)
(0.09999 0 0)
(0.0999907 0 0)
(0.0999921 0 0)
(0.0999944 0 0)
(0.0999972 0 0)
(0.1 0 0)
(0.100003 0 0)
(0.100005 0 0)
(0.100007 0 0)
(0.100009 0 0)
(0.10001 0 0)
)
;
    }
    outlet
    {
        type            calculated;
        value           nonuniform List<vector> 
20
(
(0.100033 -2.68733e-05 0)
(0.100029 8.10733e-06 0)
(0.10003 -1.16877e-05 0)
(0.100035 1.40756e-07 0)
(0.100043 1.6936e-05 0)
(0.100055 5.11119e-06 0)
(0.100066 5.3515e-05 0)
(0.100085 1.03705e-05 0)
(0.100054 2.44637e-05 0)
(0.0998506 -1.84043e-05 0)
(0.0998456 -8.88043e-05 0)
(0.100037 -0.00012503 0)
(0.100055 -0.000107373 0)
(0.100024 -0.000151563 0)
(0.100001 -8.48745e-05 0)
(0.0999769 -0.000110862 0)
(0.0999562 -5.9848e-05 0)
(0.0999389 -6.84926e-05 0)
(0.0999252 -1.98565e-05 0)
(0.0999133 -4.1068e-05 0)
)
;
    }
    frontAndBack
    {
        type            empty;
    }
}


// ************************************************************************* //
