/*--------------------------------*- C++ -*----------------------------------*\
  =========                 |
  \\      /  F ield         | OpenFOAM: The Open Source CFD Toolbox
   \\    /   O peration     | Website:  https://openfoam.org
    \\  /    A nd           | Version:  9
     \\/     M anipulation  |
\*---------------------------------------------------------------------------*/
FoamFile
{
    format      ascii;
    class       volScalarField;
    location    "0.005";
    object      rho;
}
// * * * * * * * * * * * * * * * * * * * * * * * * * * * * * * * * * * * * * //

dimensions      [0 -3 1 0 0 1 0];

internalField   nonuniform List<scalar> 
9100
(
3.56927e-05
3.56836e-05
3.56724e-05
3.56591e-05
3.56434e-05
3.56254e-05
3.56046e-05
3.55811e-05
3.55545e-05
3.55247e-05
3.54915e-05
3.54546e-05
3.54138e-05
3.53689e-05
3.53197e-05
3.52659e-05
3.52072e-05
3.51434e-05
3.50742e-05
3.49993e-05
3.49185e-05
3.48314e-05
3.47379e-05
3.46375e-05
3.45299e-05
3.44149e-05
3.4292e-05
3.41611e-05
3.40219e-05
3.3874e-05
3.37172e-05
3.35512e-05
3.33757e-05
3.31905e-05
3.29954e-05
3.27903e-05
3.25749e-05
3.2349e-05
3.21125e-05
3.18653e-05
3.16074e-05
3.13387e-05
3.10591e-05
3.07687e-05
3.04676e-05
3.01558e-05
2.98336e-05
2.9501e-05
2.91582e-05
2.88055e-05
2.84432e-05
2.80715e-05
2.76909e-05
2.73015e-05
2.69039e-05
2.64983e-05
2.60853e-05
2.56653e-05
2.52385e-05
2.48057e-05
3.56959e-05
3.5682e-05
3.56734e-05
3.56594e-05
3.56443e-05
3.56258e-05
3.56046e-05
3.55814e-05
3.55543e-05
3.55243e-05
3.54903e-05
3.54538e-05
3.54131e-05
3.5368e-05
3.53187e-05
3.52652e-05
3.52066e-05
3.51425e-05
3.50734e-05
3.49987e-05
3.4918e-05
3.48313e-05
3.4738e-05
3.46378e-05
3.45304e-05
3.44155e-05
3.42928e-05
3.41621e-05
3.40231e-05
3.38756e-05
3.37191e-05
3.35534e-05
3.33783e-05
3.31937e-05
3.29993e-05
3.27949e-05
3.25802e-05
3.23551e-05
3.21196e-05
3.18734e-05
3.16167e-05
3.13492e-05
3.10711e-05
3.07822e-05
3.04828e-05
3.01728e-05
2.98525e-05
2.95221e-05
2.91817e-05
2.88315e-05
2.84719e-05
2.81032e-05
2.77257e-05
2.73397e-05
2.69456e-05
2.65439e-05
2.61349e-05
2.57191e-05
2.52969e-05
2.48689e-05
3.56928e-05
3.56835e-05
3.56725e-05
3.56591e-05
3.56435e-05
3.56255e-05
3.56047e-05
3.55812e-05
3.55546e-05
3.55248e-05
3.54915e-05
3.54546e-05
3.54139e-05
3.53691e-05
3.53199e-05
3.52661e-05
3.52075e-05
3.51437e-05
3.50746e-05
3.49998e-05
3.49191e-05
3.48322e-05
3.47388e-05
3.46386e-05
3.45313e-05
3.44165e-05
3.4294e-05
3.41635e-05
3.40248e-05
3.38775e-05
3.37213e-05
3.3556e-05
3.33814e-05
3.31973e-05
3.30034e-05
3.27996e-05
3.25856e-05
3.23613e-05
3.21267e-05
3.18815e-05
3.16259e-05
3.13596e-05
3.10828e-05
3.07955e-05
3.04977e-05
3.01896e-05
2.98713e-05
2.95429e-05
2.92049e-05
2.88572e-05
2.85003e-05
2.81345e-05
2.77601e-05
2.73774e-05
2.69869e-05
2.65889e-05
2.6184e-05
2.57723e-05
2.53546e-05
2.49314e-05
3.56928e-05
3.56835e-05
3.56725e-05
3.56591e-05
3.56435e-05
3.56254e-05
3.56047e-05
3.55812e-05
3.55545e-05
3.55248e-05
3.54915e-05
3.54547e-05
3.5414e-05
3.53692e-05
3.53201e-05
3.52663e-05
3.52078e-05
3.51441e-05
3.5075e-05
3.50003e-05
3.49197e-05
3.48329e-05
3.47396e-05
3.46395e-05
3.45323e-05
3.44177e-05
3.42954e-05
3.41652e-05
3.40267e-05
3.38797e-05
3.37238e-05
3.35589e-05
3.33848e-05
3.32011e-05
3.30078e-05
3.28045e-05
3.25912e-05
3.23677e-05
3.2134e-05
3.18898e-05
3.16352e-05
3.13702e-05
3.10947e-05
3.08088e-05
3.05126e-05
3.02063e-05
2.98899e-05
2.95636e-05
2.92278e-05
2.88827e-05
2.85284e-05
2.81655e-05
2.77941e-05
2.74147e-05
2.70277e-05
2.66334e-05
2.62323e-05
2.58249e-05
2.54115e-05
2.4993e-05
3.56928e-05
3.56835e-05
3.56725e-05
3.56591e-05
3.56435e-05
3.56254e-05
3.56047e-05
3.55811e-05
3.55545e-05
3.55248e-05
3.54915e-05
3.54547e-05
3.5414e-05
3.53693e-05
3.53202e-05
3.52665e-05
3.5208e-05
3.51443e-05
3.50753e-05
3.50006e-05
3.49201e-05
3.48334e-05
3.47402e-05
3.46402e-05
3.45332e-05
3.44188e-05
3.42967e-05
3.41667e-05
3.40285e-05
3.38817e-05
3.37262e-05
3.35618e-05
3.33881e-05
3.32049e-05
3.30121e-05
3.28095e-05
3.25969e-05
3.23742e-05
3.21413e-05
3.18981e-05
3.16446e-05
3.13808e-05
3.11066e-05
3.08221e-05
3.05275e-05
3.02229e-05
2.99084e-05
2.95842e-05
2.92506e-05
2.89079e-05
2.85563e-05
2.81961e-05
2.78277e-05
2.74515e-05
2.70679e-05
2.66772e-05
2.628e-05
2.58766e-05
2.54675e-05
2.50536e-05
3.56928e-05
3.56835e-05
3.56725e-05
3.56591e-05
3.56435e-05
3.56254e-05
3.56047e-05
3.55811e-05
3.55545e-05
3.55248e-05
3.54915e-05
3.54547e-05
3.54141e-05
3.53693e-05
3.53203e-05
3.52666e-05
3.52081e-05
3.51445e-05
3.50755e-05
3.50009e-05
3.49205e-05
3.48339e-05
3.47408e-05
3.46409e-05
3.4534e-05
3.44197e-05
3.42979e-05
3.41681e-05
3.40301e-05
3.38837e-05
3.37286e-05
3.35645e-05
3.33912e-05
3.32085e-05
3.30163e-05
3.28143e-05
3.26024e-05
3.23805e-05
3.21485e-05
3.19063e-05
3.16539e-05
3.13912e-05
3.11183e-05
3.08353e-05
3.05423e-05
3.02394e-05
2.99267e-05
2.96046e-05
2.92732e-05
2.89328e-05
2.85837e-05
2.82263e-05
2.78608e-05
2.74878e-05
2.71075e-05
2.67204e-05
2.63269e-05
2.59275e-05
2.55226e-05
2.5113e-05
3.56928e-05
3.56835e-05
3.56725e-05
3.56591e-05
3.56435e-05
3.56254e-05
3.56046e-05
3.55811e-05
3.55545e-05
3.55248e-05
3.54916e-05
3.54548e-05
3.54142e-05
3.53694e-05
3.53204e-05
3.52667e-05
3.52083e-05
3.51447e-05
3.50758e-05
3.50013e-05
3.49209e-05
3.48343e-05
3.47413e-05
3.46415e-05
3.45348e-05
3.44207e-05
3.4299e-05
3.41694e-05
3.40317e-05
3.38856e-05
3.37308e-05
3.35671e-05
3.33942e-05
3.32121e-05
3.30204e-05
3.2819e-05
3.26078e-05
3.23867e-05
3.21555e-05
3.19142e-05
3.16629e-05
3.14014e-05
3.11298e-05
3.08483e-05
3.05568e-05
3.02556e-05
2.99448e-05
2.96246e-05
2.92954e-05
2.89573e-05
2.86107e-05
2.8256e-05
2.78934e-05
2.75234e-05
2.71464e-05
2.67627e-05
2.63729e-05
2.59773e-05
2.55765e-05
2.51712e-05
3.56928e-05
3.56835e-05
3.56725e-05
3.56591e-05
3.56435e-05
3.56254e-05
3.56046e-05
3.55811e-05
3.55545e-05
3.55248e-05
3.54916e-05
3.54548e-05
3.54143e-05
3.53695e-05
3.53205e-05
3.52669e-05
3.52084e-05
3.51449e-05
3.5076e-05
3.50016e-05
3.49212e-05
3.48348e-05
3.47419e-05
3.46422e-05
3.45355e-05
3.44216e-05
3.43001e-05
3.41707e-05
3.40333e-05
3.38874e-05
3.37329e-05
3.35696e-05
3.33972e-05
3.32155e-05
3.30243e-05
3.28235e-05
3.2613e-05
3.23926e-05
3.21623e-05
3.1922e-05
3.16717e-05
3.14113e-05
3.1141e-05
3.08608e-05
3.05709e-05
3.02713e-05
2.99623e-05
2.96442e-05
2.93171e-05
2.89813e-05
2.86372e-05
2.82851e-05
2.79253e-05
2.75582e-05
2.71844e-05
2.68041e-05
2.64178e-05
2.6026e-05
2.56292e-05
2.52281e-05
3.56928e-05
3.56835e-05
3.56725e-05
3.56591e-05
3.56435e-05
3.56254e-05
3.56046e-05
3.55811e-05
3.55545e-05
3.55248e-05
3.54917e-05
3.54549e-05
3.54143e-05
3.53696e-05
3.53206e-05
3.5267e-05
3.52086e-05
3.51451e-05
3.50763e-05
3.50019e-05
3.49216e-05
3.48352e-05
3.47424e-05
3.46428e-05
3.45363e-05
3.44225e-05
3.43012e-05
3.4172e-05
3.40348e-05
3.38892e-05
3.3735e-05
3.3572e-05
3.34e-05
3.32188e-05
3.30281e-05
3.28279e-05
3.26181e-05
3.23984e-05
3.21689e-05
3.19295e-05
3.16802e-05
3.1421e-05
3.11519e-05
3.08731e-05
3.05846e-05
3.02867e-05
2.99794e-05
2.96632e-05
2.93381e-05
2.90045e-05
2.86628e-05
2.83132e-05
2.79562e-05
2.75921e-05
2.72213e-05
2.68443e-05
2.64615e-05
2.60734e-05
2.56805e-05
2.52833e-05
3.56928e-05
3.56835e-05
3.56725e-05
3.56591e-05
3.56435e-05
3.56254e-05
3.56047e-05
3.55812e-05
3.55546e-05
3.55248e-05
3.54917e-05
3.54549e-05
3.54144e-05
3.53696e-05
3.53207e-05
3.52671e-05
3.52087e-05
3.51453e-05
3.50765e-05
3.50022e-05
3.4922e-05
3.48356e-05
3.47429e-05
3.46434e-05
3.4537e-05
3.44234e-05
3.43022e-05
3.41732e-05
3.40362e-05
3.38909e-05
3.3737e-05
3.35744e-05
3.34028e-05
3.3222e-05
3.30318e-05
3.28322e-05
3.2623e-05
3.2404e-05
3.21753e-05
3.19368e-05
3.16885e-05
3.14303e-05
3.11624e-05
3.08849e-05
3.05979e-05
3.03015e-05
2.9996e-05
2.96816e-05
2.93585e-05
2.90271e-05
2.86877e-05
2.83406e-05
2.79862e-05
2.76249e-05
2.72571e-05
2.68833e-05
2.65039e-05
2.61194e-05
2.57301e-05
2.5337e-05
3.56928e-05
3.56835e-05
3.56725e-05
3.56591e-05
3.56435e-05
3.56254e-05
3.56047e-05
3.55812e-05
3.55546e-05
3.55249e-05
3.54918e-05
3.5455e-05
3.54144e-05
3.53697e-05
3.53208e-05
3.52672e-05
3.52089e-05
3.51455e-05
3.50767e-05
3.50025e-05
3.49223e-05
3.48361e-05
3.47434e-05
3.4644e-05
3.45378e-05
3.44242e-05
3.43032e-05
3.41744e-05
3.40376e-05
3.38925e-05
3.3739e-05
3.35767e-05
3.34054e-05
3.32251e-05
3.30354e-05
3.28363e-05
3.26277e-05
3.24095e-05
3.21815e-05
3.19438e-05
3.16964e-05
3.14393e-05
3.11726e-05
3.08964e-05
3.06107e-05
3.03159e-05
3.0012e-05
2.96994e-05
2.93782e-05
2.90489e-05
2.87117e-05
2.8367e-05
2.80152e-05
2.76566e-05
2.72917e-05
2.6921e-05
2.65449e-05
2.61637e-05
2.57781e-05
2.53888e-05
3.56928e-05
3.56835e-05
3.56725e-05
3.56591e-05
3.56435e-05
3.56254e-05
3.56047e-05
3.55812e-05
3.55546e-05
3.55249e-05
3.54918e-05
3.5455e-05
3.54145e-05
3.53698e-05
3.53208e-05
3.52673e-05
3.5209e-05
3.51457e-05
3.5077e-05
3.50027e-05
3.49227e-05
3.48365e-05
3.47439e-05
3.46446e-05
3.45384e-05
3.4425e-05
3.43042e-05
3.41756e-05
3.4039e-05
3.38941e-05
3.37408e-05
3.35788e-05
3.3408e-05
3.3228e-05
3.30389e-05
3.28403e-05
3.26323e-05
3.24147e-05
3.21875e-05
3.19506e-05
3.17041e-05
3.1448e-05
3.11824e-05
3.09074e-05
3.06231e-05
3.03297e-05
3.00274e-05
2.97165e-05
2.93972e-05
2.90699e-05
2.87349e-05
2.83924e-05
2.80431e-05
2.76872e-05
2.73251e-05
2.69573e-05
2.65843e-05
2.62065e-05
2.58244e-05
2.54386e-05
3.56928e-05
3.56835e-05
3.56725e-05
3.56591e-05
3.56435e-05
3.56254e-05
3.56047e-05
3.55812e-05
3.55546e-05
3.55249e-05
3.54918e-05
3.54551e-05
3.54145e-05
3.53698e-05
3.53209e-05
3.52674e-05
3.52091e-05
3.51458e-05
3.50772e-05
3.5003e-05
3.4923e-05
3.48369e-05
3.47444e-05
3.46452e-05
3.45391e-05
3.44258e-05
3.43051e-05
3.41766e-05
3.40402e-05
3.38956e-05
3.37426e-05
3.35809e-05
3.34104e-05
3.32309e-05
3.30422e-05
3.28441e-05
3.26366e-05
3.24197e-05
3.21932e-05
3.19571e-05
3.17115e-05
3.14564e-05
3.11918e-05
3.0918e-05
3.06349e-05
3.03429e-05
3.00422e-05
2.97329e-05
2.94154e-05
2.909e-05
2.87571e-05
2.84169e-05
2.80698e-05
2.77165e-05
2.7357e-05
2.69921e-05
2.66221e-05
2.62475e-05
2.58687e-05
2.54864e-05
3.56928e-05
3.56835e-05
3.56725e-05
3.56591e-05
3.56435e-05
3.56255e-05
3.56047e-05
3.55813e-05
3.55547e-05
3.5525e-05
3.54919e-05
3.54551e-05
3.54146e-05
3.53699e-05
3.5321e-05
3.52675e-05
3.52092e-05
3.5146e-05
3.50774e-05
3.50032e-05
3.49233e-05
3.48372e-05
3.47448e-05
3.46457e-05
3.45397e-05
3.44266e-05
3.4306e-05
3.41777e-05
3.40414e-05
3.38971e-05
3.37443e-05
3.35829e-05
3.34127e-05
3.32336e-05
3.30453e-05
3.28477e-05
3.26408e-05
3.24244e-05
3.21986e-05
3.19633e-05
3.17185e-05
3.14643e-05
3.12008e-05
3.09281e-05
3.06463e-05
3.03556e-05
3.00563e-05
2.97486e-05
2.94329e-05
2.91093e-05
2.87783e-05
2.84402e-05
2.80954e-05
2.77444e-05
2.73876e-05
2.70254e-05
2.66582e-05
2.62866e-05
2.59111e-05
2.55321e-05
3.56928e-05
3.56835e-05
3.56725e-05
3.56591e-05
3.56435e-05
3.56255e-05
3.56047e-05
3.55813e-05
3.55547e-05
3.5525e-05
3.54919e-05
3.54551e-05
3.54146e-05
3.537e-05
3.5321e-05
3.52676e-05
3.52093e-05
3.51461e-05
3.50776e-05
3.50035e-05
3.49236e-05
3.48376e-05
3.47452e-05
3.46462e-05
3.45403e-05
3.44272e-05
3.43068e-05
3.41786e-05
3.40426e-05
3.38984e-05
3.37459e-05
3.35848e-05
3.3415e-05
3.32361e-05
3.30483e-05
3.28512e-05
3.26448e-05
3.2429e-05
3.22038e-05
3.19692e-05
3.17252e-05
3.14719e-05
3.12093e-05
3.09377e-05
3.0657e-05
3.03677e-05
3.00698e-05
2.97636e-05
2.94494e-05
2.91276e-05
2.87984e-05
2.84624e-05
2.81198e-05
2.77711e-05
2.74166e-05
2.7057e-05
2.66926e-05
2.63239e-05
2.59513e-05
2.55755e-05
3.56928e-05
3.56835e-05
3.56725e-05
3.56591e-05
3.56435e-05
3.56255e-05
3.56048e-05
3.55813e-05
3.55547e-05
3.5525e-05
3.54919e-05
3.54552e-05
3.54146e-05
3.537e-05
3.53211e-05
3.52677e-05
3.52094e-05
3.51462e-05
3.50777e-05
3.50037e-05
3.49238e-05
3.48379e-05
3.47456e-05
3.46466e-05
3.45408e-05
3.44279e-05
3.43076e-05
3.41796e-05
3.40437e-05
3.38997e-05
3.37474e-05
3.35866e-05
3.3417e-05
3.32386e-05
3.30511e-05
3.28544e-05
3.26485e-05
3.24332e-05
3.22087e-05
3.19748e-05
3.17315e-05
3.1479e-05
3.12174e-05
3.09468e-05
3.06673e-05
3.03791e-05
3.00825e-05
2.97777e-05
2.94651e-05
2.91449e-05
2.88175e-05
2.84834e-05
2.81428e-05
2.77963e-05
2.74442e-05
2.7087e-05
2.67251e-05
2.63591e-05
2.59894e-05
2.56166e-05
3.56928e-05
3.56835e-05
3.56725e-05
3.56591e-05
3.56435e-05
3.56255e-05
3.56048e-05
3.55813e-05
3.55547e-05
3.5525e-05
3.54919e-05
3.54552e-05
3.54147e-05
3.53701e-05
3.53212e-05
3.52678e-05
3.52095e-05
3.51463e-05
3.50779e-05
3.50039e-05
3.49241e-05
3.48382e-05
3.47459e-05
3.46471e-05
3.45413e-05
3.44285e-05
3.43083e-05
3.41805e-05
3.40448e-05
3.3901e-05
3.37489e-05
3.35883e-05
3.3419e-05
3.32409e-05
3.30537e-05
3.28575e-05
3.2652e-05
3.24373e-05
3.22133e-05
3.198e-05
3.17375e-05
3.14858e-05
3.12251e-05
3.09554e-05
3.06769e-05
3.03899e-05
3.00945e-05
2.97911e-05
2.94799e-05
2.91612e-05
2.88355e-05
2.85032e-05
2.81645e-05
2.782e-05
2.74701e-05
2.71152e-05
2.67558e-05
2.63923e-05
2.60253e-05
2.56553e-05
3.56928e-05
3.56835e-05
3.56725e-05
3.56591e-05
3.56436e-05
3.56255e-05
3.56048e-05
3.55813e-05
3.55548e-05
3.55251e-05
3.5492e-05
3.54552e-05
3.54147e-05
3.53701e-05
3.53212e-05
3.52678e-05
3.52096e-05
3.51464e-05
3.5078e-05
3.5004e-05
3.49243e-05
3.48384e-05
3.47462e-05
3.46474e-05
3.45418e-05
3.44291e-05
3.4309e-05
3.41813e-05
3.40457e-05
3.39021e-05
3.37502e-05
3.35898e-05
3.34208e-05
3.3243e-05
3.30562e-05
3.28603e-05
3.26553e-05
3.24411e-05
3.22176e-05
3.1985e-05
3.17431e-05
3.14922e-05
3.12322e-05
3.09634e-05
3.0686e-05
3.04e-05
3.01058e-05
2.98036e-05
2.94938e-05
2.91766e-05
2.88524e-05
2.85217e-05
2.81848e-05
2.78422e-05
2.74943e-05
2.71416e-05
2.67845e-05
2.64234e-05
2.60589e-05
2.56915e-05
3.56928e-05
3.56835e-05
3.56725e-05
3.56591e-05
3.56436e-05
3.56255e-05
3.56048e-05
3.55813e-05
3.55548e-05
3.55251e-05
3.5492e-05
3.54553e-05
3.54147e-05
3.53702e-05
3.53212e-05
3.52679e-05
3.52097e-05
3.51466e-05
3.50781e-05
3.50042e-05
3.49245e-05
3.48386e-05
3.47465e-05
3.46478e-05
3.45422e-05
3.44296e-05
3.43096e-05
3.4182e-05
3.40466e-05
3.39032e-05
3.37515e-05
3.35913e-05
3.34225e-05
3.3245e-05
3.30585e-05
3.2863e-05
3.26584e-05
3.24446e-05
3.22217e-05
3.19896e-05
3.17484e-05
3.14981e-05
3.1239e-05
3.0971e-05
3.06945e-05
3.04095e-05
3.01163e-05
2.98153e-05
2.95067e-05
2.91908e-05
2.88681e-05
2.8539e-05
2.82038e-05
2.78629e-05
2.75169e-05
2.71661e-05
2.68111e-05
2.64523e-05
2.60901e-05
2.57252e-05
3.56927e-05
3.56835e-05
3.56725e-05
3.56591e-05
3.56436e-05
3.56255e-05
3.56048e-05
3.55813e-05
3.55548e-05
3.55251e-05
3.5492e-05
3.54553e-05
3.54147e-05
3.53702e-05
3.53213e-05
3.52679e-05
3.52098e-05
3.51466e-05
3.50782e-05
3.50043e-05
3.49246e-05
3.48388e-05
3.47468e-05
3.46481e-05
3.45426e-05
3.44301e-05
3.43102e-05
3.41827e-05
3.40474e-05
3.39042e-05
3.37526e-05
3.35927e-05
3.34241e-05
3.32468e-05
3.30606e-05
3.28654e-05
3.26612e-05
3.24479e-05
3.22254e-05
3.19939e-05
3.17533e-05
3.15037e-05
3.12452e-05
3.0978e-05
3.07023e-05
3.04182e-05
3.0126e-05
2.9826e-05
2.95186e-05
2.9204e-05
2.88827e-05
2.85549e-05
2.82212e-05
2.7882e-05
2.75377e-05
2.71888e-05
2.68357e-05
2.6479e-05
2.6119e-05
2.57563e-05
3.56927e-05
3.56835e-05
3.56725e-05
3.56591e-05
3.56436e-05
3.56255e-05
3.56048e-05
3.55813e-05
3.55548e-05
3.55251e-05
3.5492e-05
3.54553e-05
3.54148e-05
3.53702e-05
3.53213e-05
3.5268e-05
3.52098e-05
3.51467e-05
3.50783e-05
3.50044e-05
3.49247e-05
3.4839e-05
3.4747e-05
3.46484e-05
3.4543e-05
3.44305e-05
3.43107e-05
3.41833e-05
3.40482e-05
3.39051e-05
3.37537e-05
3.35939e-05
3.34255e-05
3.32485e-05
3.30626e-05
3.28677e-05
3.26639e-05
3.24509e-05
3.22289e-05
3.19978e-05
3.17577e-05
3.15087e-05
3.12509e-05
3.09844e-05
3.07094e-05
3.04262e-05
3.01349e-05
2.98359e-05
2.95295e-05
2.92161e-05
2.88959e-05
2.85695e-05
2.82372e-05
2.78995e-05
2.75568e-05
2.72096e-05
2.68582e-05
2.65033e-05
2.61453e-05
2.57847e-05
3.56927e-05
3.56836e-05
3.56725e-05
3.56591e-05
3.56436e-05
3.56255e-05
3.56048e-05
3.55813e-05
3.55548e-05
3.55251e-05
3.5492e-05
3.54553e-05
3.54148e-05
3.53702e-05
3.53214e-05
3.5268e-05
3.52099e-05
3.51467e-05
3.50784e-05
3.50044e-05
3.49248e-05
3.48391e-05
3.47472e-05
3.46486e-05
3.45433e-05
3.44309e-05
3.43112e-05
3.41839e-05
3.40489e-05
3.39059e-05
3.37546e-05
3.3595e-05
3.34268e-05
3.325e-05
3.30644e-05
3.28698e-05
3.26663e-05
3.24537e-05
3.2232e-05
3.20014e-05
3.17618e-05
3.15133e-05
3.1256e-05
3.09902e-05
3.07159e-05
3.04334e-05
3.0143e-05
2.98449e-05
2.95394e-05
2.9227e-05
2.8908e-05
2.85828e-05
2.82517e-05
2.79154e-05
2.75741e-05
2.72284e-05
2.68787e-05
2.65254e-05
2.61692e-05
2.58105e-05
3.56927e-05
3.56836e-05
3.56725e-05
3.56591e-05
3.56436e-05
3.56255e-05
3.56048e-05
3.55813e-05
3.55548e-05
3.55251e-05
3.5492e-05
3.54553e-05
3.54148e-05
3.53702e-05
3.53214e-05
3.52681e-05
3.52099e-05
3.51468e-05
3.50784e-05
3.50045e-05
3.49249e-05
3.48393e-05
3.47473e-05
3.46488e-05
3.45435e-05
3.44312e-05
3.43116e-05
3.41845e-05
3.40495e-05
3.39066e-05
3.37554e-05
3.3596e-05
3.3428e-05
3.32514e-05
3.3066e-05
3.28716e-05
3.26684e-05
3.24561e-05
3.22348e-05
3.20046e-05
3.17654e-05
3.15174e-05
3.12606e-05
3.09954e-05
3.07217e-05
3.04399e-05
3.01502e-05
2.98529e-05
2.95483e-05
2.92368e-05
2.89188e-05
2.85946e-05
2.82647e-05
2.79296e-05
2.75896e-05
2.72452e-05
2.6897e-05
2.65453e-05
2.61906e-05
2.58335e-05
3.56927e-05
3.56836e-05
3.56725e-05
3.56591e-05
3.56436e-05
3.56255e-05
3.56048e-05
3.55813e-05
3.55548e-05
3.55251e-05
3.5492e-05
3.54553e-05
3.54148e-05
3.53703e-05
3.53214e-05
3.52681e-05
3.52099e-05
3.51468e-05
3.50784e-05
3.50046e-05
3.4925e-05
3.48393e-05
3.47474e-05
3.4649e-05
3.45438e-05
3.44315e-05
3.4312e-05
3.41849e-05
3.405e-05
3.39072e-05
3.37562e-05
3.35969e-05
3.34291e-05
3.32526e-05
3.30673e-05
3.28733e-05
3.26702e-05
3.24583e-05
3.22373e-05
3.20074e-05
3.17686e-05
3.1521e-05
3.12647e-05
3.09999e-05
3.07267e-05
3.04455e-05
3.01565e-05
2.98599e-05
2.95561e-05
2.92454e-05
2.89283e-05
2.86051e-05
2.82762e-05
2.79421e-05
2.76033e-05
2.72601e-05
2.69131e-05
2.65627e-05
2.62095e-05
2.58539e-05
3.56927e-05
3.56836e-05
3.56725e-05
3.56591e-05
3.56436e-05
3.56255e-05
3.56048e-05
3.55813e-05
3.55548e-05
3.55251e-05
3.5492e-05
3.54553e-05
3.54148e-05
3.53703e-05
3.53214e-05
3.52681e-05
3.52099e-05
3.51468e-05
3.50785e-05
3.50046e-05
3.4925e-05
3.48394e-05
3.47475e-05
3.46492e-05
3.4544e-05
3.44318e-05
3.43123e-05
3.41852e-05
3.40504e-05
3.39077e-05
3.37569e-05
3.35977e-05
3.34299e-05
3.32536e-05
3.30685e-05
3.28747e-05
3.26719e-05
3.24601e-05
3.22394e-05
3.20098e-05
3.17713e-05
3.1524e-05
3.12681e-05
3.10037e-05
3.07311e-05
3.04504e-05
3.01619e-05
2.98659e-05
2.95628e-05
2.92529e-05
2.89365e-05
2.86141e-05
2.82861e-05
2.79529e-05
2.7615e-05
2.72729e-05
2.6927e-05
2.65778e-05
2.62257e-05
2.58714e-05
3.56927e-05
3.56836e-05
3.56724e-05
3.56591e-05
3.56436e-05
3.56255e-05
3.56049e-05
3.55813e-05
3.55548e-05
3.55251e-05
3.5492e-05
3.54553e-05
3.54148e-05
3.53703e-05
3.53214e-05
3.52681e-05
3.52099e-05
3.51468e-05
3.50785e-05
3.50046e-05
3.4925e-05
3.48395e-05
3.47477e-05
3.46493e-05
3.45442e-05
3.4432e-05
3.43125e-05
3.41855e-05
3.40509e-05
3.39082e-05
3.37574e-05
3.35982e-05
3.34307e-05
3.32545e-05
3.30696e-05
3.28759e-05
3.26732e-05
3.24616e-05
3.22411e-05
3.20118e-05
3.17735e-05
3.15265e-05
3.1271e-05
3.1007e-05
3.07347e-05
3.04544e-05
3.01665e-05
2.9871e-05
2.95684e-05
2.92591e-05
2.89434e-05
2.86217e-05
2.82944e-05
2.7962e-05
2.76249e-05
2.72836e-05
2.69386e-05
2.65904e-05
2.62393e-05
2.58861e-05
3.56927e-05
3.56836e-05
3.56724e-05
3.56591e-05
3.56436e-05
3.56255e-05
3.56049e-05
3.55813e-05
3.55548e-05
3.55251e-05
3.5492e-05
3.54553e-05
3.54148e-05
3.53703e-05
3.53214e-05
3.52681e-05
3.521e-05
3.51468e-05
3.50785e-05
3.50046e-05
3.49251e-05
3.48395e-05
3.47477e-05
3.46494e-05
3.45443e-05
3.44321e-05
3.43127e-05
3.41858e-05
3.40512e-05
3.39085e-05
3.37578e-05
3.35988e-05
3.34314e-05
3.32552e-05
3.30703e-05
3.28767e-05
3.26743e-05
3.24629e-05
3.22425e-05
3.20133e-05
3.17754e-05
3.15287e-05
3.12733e-05
3.10096e-05
3.07377e-05
3.04578e-05
3.01701e-05
2.98751e-05
2.9573e-05
2.92641e-05
2.89489e-05
2.86277e-05
2.8301e-05
2.79693e-05
2.76328e-05
2.72923e-05
2.6948e-05
2.66005e-05
2.62503e-05
2.58979e-05
3.56927e-05
3.56836e-05
3.56724e-05
3.56591e-05
3.56436e-05
3.56255e-05
3.56049e-05
3.55813e-05
3.55548e-05
3.55251e-05
3.5492e-05
3.54553e-05
3.54148e-05
3.53703e-05
3.53214e-05
3.52681e-05
3.521e-05
3.51468e-05
3.50784e-05
3.50046e-05
3.49251e-05
3.48396e-05
3.47478e-05
3.46494e-05
3.45443e-05
3.44323e-05
3.43129e-05
3.4186e-05
3.40513e-05
3.39088e-05
3.37582e-05
3.35992e-05
3.34317e-05
3.32557e-05
3.3071e-05
3.28775e-05
3.2675e-05
3.24637e-05
3.22436e-05
3.20146e-05
3.17767e-05
3.15302e-05
3.12751e-05
3.10116e-05
3.07399e-05
3.04603e-05
3.01729e-05
2.98782e-05
2.95764e-05
2.92679e-05
2.89531e-05
2.86324e-05
2.83061e-05
2.79748e-05
2.76389e-05
2.72988e-05
2.69551e-05
2.66083e-05
2.62587e-05
2.59069e-05
3.56927e-05
3.56836e-05
3.56724e-05
3.56591e-05
3.56436e-05
3.56255e-05
3.56049e-05
3.55813e-05
3.55548e-05
3.55251e-05
3.5492e-05
3.54553e-05
3.54148e-05
3.53703e-05
3.53214e-05
3.52681e-05
3.521e-05
3.51468e-05
3.50784e-05
3.50046e-05
3.49251e-05
3.48396e-05
3.47478e-05
3.46495e-05
3.45445e-05
3.44324e-05
3.43129e-05
3.41861e-05
3.40515e-05
3.3909e-05
3.37583e-05
3.35994e-05
3.34321e-05
3.32561e-05
3.30714e-05
3.28779e-05
3.26756e-05
3.24644e-05
3.22443e-05
3.20154e-05
3.17777e-05
3.15312e-05
3.12763e-05
3.10129e-05
3.07414e-05
3.04619e-05
3.01748e-05
2.98803e-05
2.95787e-05
2.92705e-05
2.89559e-05
2.86355e-05
2.83095e-05
2.79786e-05
2.7643e-05
2.73033e-05
2.696e-05
2.66135e-05
2.62643e-05
2.5913e-05
3.56927e-05
3.56836e-05
3.56724e-05
3.56591e-05
3.56436e-05
3.56255e-05
3.56048e-05
3.55813e-05
3.55548e-05
3.55251e-05
3.5492e-05
3.54553e-05
3.54148e-05
3.53703e-05
3.53214e-05
3.5268e-05
3.52099e-05
3.51469e-05
3.50786e-05
3.50048e-05
3.49253e-05
3.48397e-05
3.4748e-05
3.46497e-05
3.45445e-05
3.44324e-05
3.43131e-05
3.41862e-05
3.40516e-05
3.39092e-05
3.37585e-05
3.35996e-05
3.34322e-05
3.32563e-05
3.30716e-05
3.28782e-05
3.26759e-05
3.24648e-05
3.22447e-05
3.20158e-05
3.17781e-05
3.15318e-05
3.12769e-05
3.10136e-05
3.07422e-05
3.04628e-05
3.01758e-05
2.98814e-05
2.95799e-05
2.92718e-05
2.89574e-05
2.86371e-05
2.83113e-05
2.79804e-05
2.7645e-05
2.73055e-05
2.69624e-05
2.66162e-05
2.62673e-05
2.59162e-05
3.56927e-05
3.56836e-05
3.56724e-05
3.56591e-05
3.56435e-05
3.56254e-05
3.56045e-05
3.55809e-05
3.55542e-05
3.55243e-05
3.54909e-05
3.54538e-05
3.54128e-05
3.53676e-05
3.53181e-05
3.52638e-05
3.52045e-05
3.514e-05
3.50699e-05
3.49939e-05
3.49117e-05
3.48229e-05
3.47274e-05
3.46245e-05
3.45141e-05
3.43958e-05
3.42692e-05
3.41338e-05
3.39894e-05
3.38355e-05
3.36717e-05
3.34978e-05
3.33134e-05
3.3118e-05
3.29113e-05
3.2693e-05
3.24627e-05
3.22201e-05
3.19649e-05
3.16968e-05
3.14155e-05
3.11209e-05
3.08127e-05
3.04907e-05
3.01549e-05
2.98051e-05
2.94412e-05
2.90632e-05
2.86711e-05
2.8265e-05
2.78449e-05
2.74111e-05
2.69636e-05
2.65027e-05
2.60286e-05
2.55415e-05
2.50418e-05
2.45297e-05
2.40057e-05
2.347e-05
3.56927e-05
3.56836e-05
3.56724e-05
3.56591e-05
3.56435e-05
3.56254e-05
3.56045e-05
3.5581e-05
3.55542e-05
3.55243e-05
3.54908e-05
3.54538e-05
3.54128e-05
3.53676e-05
3.53181e-05
3.52638e-05
3.52046e-05
3.514e-05
3.50699e-05
3.49939e-05
3.49117e-05
3.48229e-05
3.47273e-05
3.46245e-05
3.45142e-05
3.43958e-05
3.42692e-05
3.41338e-05
3.39893e-05
3.38354e-05
3.36716e-05
3.34977e-05
3.33133e-05
3.3118e-05
3.29114e-05
3.26931e-05
3.24628e-05
3.22203e-05
3.19651e-05
3.1697e-05
3.14158e-05
3.11213e-05
3.08133e-05
3.04915e-05
3.01558e-05
2.98061e-05
2.94423e-05
2.90645e-05
2.86725e-05
2.82666e-05
2.78467e-05
2.7413e-05
2.69658e-05
2.65051e-05
2.60312e-05
2.55444e-05
2.50449e-05
2.45331e-05
2.40094e-05
2.3474e-05
3.56927e-05
3.56836e-05
3.56724e-05
3.56591e-05
3.56435e-05
3.56254e-05
3.56045e-05
3.5581e-05
3.55542e-05
3.55243e-05
3.54909e-05
3.54538e-05
3.54128e-05
3.53676e-05
3.53181e-05
3.52638e-05
3.52046e-05
3.514e-05
3.507e-05
3.49939e-05
3.49117e-05
3.4823e-05
3.47274e-05
3.46246e-05
3.45143e-05
3.4396e-05
3.42693e-05
3.4134e-05
3.39895e-05
3.38356e-05
3.3672e-05
3.34981e-05
3.33138e-05
3.31185e-05
3.29119e-05
3.26937e-05
3.24635e-05
3.2221e-05
3.1966e-05
3.1698e-05
3.1417e-05
3.11226e-05
3.08147e-05
3.0493e-05
3.01575e-05
2.98081e-05
2.94445e-05
2.90669e-05
2.86753e-05
2.82696e-05
2.78501e-05
2.74169e-05
2.697e-05
2.65098e-05
2.60364e-05
2.555e-05
2.50511e-05
2.454e-05
2.40169e-05
2.34822e-05
3.56927e-05
3.56836e-05
3.56724e-05
3.56591e-05
3.56435e-05
3.56254e-05
3.56045e-05
3.5581e-05
3.55542e-05
3.55243e-05
3.54909e-05
3.54538e-05
3.54128e-05
3.53677e-05
3.53181e-05
3.52638e-05
3.52046e-05
3.51401e-05
3.507e-05
3.4994e-05
3.49118e-05
3.48231e-05
3.47275e-05
3.46247e-05
3.45144e-05
3.43961e-05
3.42695e-05
3.41342e-05
3.39898e-05
3.3836e-05
3.36724e-05
3.34986e-05
3.33143e-05
3.31191e-05
3.29127e-05
3.26946e-05
3.24645e-05
3.22222e-05
3.19672e-05
3.16995e-05
3.14186e-05
3.11244e-05
3.08168e-05
3.04954e-05
3.01602e-05
2.9811e-05
2.94478e-05
2.90706e-05
2.86794e-05
2.82742e-05
2.78552e-05
2.74225e-05
2.69762e-05
2.65166e-05
2.60439e-05
2.55584e-05
2.50603e-05
2.455e-05
2.40278e-05
2.34942e-05
3.56927e-05
3.56836e-05
3.56724e-05
3.56591e-05
3.56435e-05
3.56254e-05
3.56045e-05
3.5581e-05
3.55542e-05
3.55243e-05
3.54909e-05
3.54538e-05
3.54129e-05
3.53677e-05
3.53181e-05
3.52639e-05
3.52046e-05
3.51401e-05
3.50701e-05
3.4994e-05
3.49119e-05
3.48232e-05
3.47277e-05
3.46249e-05
3.45146e-05
3.43964e-05
3.42698e-05
3.41346e-05
3.39902e-05
3.38365e-05
3.3673e-05
3.34993e-05
3.33151e-05
3.312e-05
3.29137e-05
3.26957e-05
3.24658e-05
3.22236e-05
3.19689e-05
3.17014e-05
3.14208e-05
3.11269e-05
3.08195e-05
3.04985e-05
3.01636e-05
2.98149e-05
2.94521e-05
2.90755e-05
2.86848e-05
2.82803e-05
2.78619e-05
2.743e-05
2.69845e-05
2.65257e-05
2.60539e-05
2.55693e-05
2.50723e-05
2.45631e-05
2.40422e-05
2.35098e-05
3.56927e-05
3.56836e-05
3.56724e-05
3.56591e-05
3.56435e-05
3.56254e-05
3.56045e-05
3.5581e-05
3.55542e-05
3.55243e-05
3.54909e-05
3.54539e-05
3.54129e-05
3.53677e-05
3.53182e-05
3.52639e-05
3.52047e-05
3.51402e-05
3.50701e-05
3.49941e-05
3.4912e-05
3.48233e-05
3.47278e-05
3.46251e-05
3.45148e-05
3.43966e-05
3.42701e-05
3.4135e-05
3.39907e-05
3.38371e-05
3.36736e-05
3.35001e-05
3.3316e-05
3.3121e-05
3.29148e-05
3.26971e-05
3.24673e-05
3.22254e-05
3.19709e-05
3.17037e-05
3.14234e-05
3.11299e-05
3.08229e-05
3.05023e-05
3.01679e-05
2.98197e-05
2.94575e-05
2.90815e-05
2.86915e-05
2.82878e-05
2.78703e-05
2.74392e-05
2.69947e-05
2.65369e-05
2.60663e-05
2.55829e-05
2.50872e-05
2.45794e-05
2.40599e-05
2.35291e-05
3.56927e-05
3.56836e-05
3.56724e-05
3.56591e-05
3.56435e-05
3.56254e-05
3.56045e-05
3.5581e-05
3.55542e-05
3.55243e-05
3.54909e-05
3.54539e-05
3.54129e-05
3.53677e-05
3.53182e-05
3.52639e-05
3.52047e-05
3.51402e-05
3.50702e-05
3.49942e-05
3.49121e-05
3.48235e-05
3.4728e-05
3.46253e-05
3.45151e-05
3.43969e-05
3.42705e-05
3.41354e-05
3.39913e-05
3.38377e-05
3.36744e-05
3.3501e-05
3.33171e-05
3.31223e-05
3.29162e-05
3.26987e-05
3.24692e-05
3.22275e-05
3.19734e-05
3.17065e-05
3.14266e-05
3.11335e-05
3.08269e-05
3.05068e-05
3.0173e-05
2.98254e-05
2.9464e-05
2.90887e-05
2.86996e-05
2.82967e-05
2.78802e-05
2.74502e-05
2.70068e-05
2.65503e-05
2.6081e-05
2.5599e-05
2.51048e-05
2.45986e-05
2.40809e-05
2.35519e-05
3.56927e-05
3.56836e-05
3.56724e-05
3.56591e-05
3.56435e-05
3.56254e-05
3.56045e-05
3.5581e-05
3.55542e-05
3.55244e-05
3.5491e-05
3.54539e-05
3.54129e-05
3.53678e-05
3.53182e-05
3.52639e-05
3.52047e-05
3.51403e-05
3.50703e-05
3.49943e-05
3.49123e-05
3.48236e-05
3.47282e-05
3.46255e-05
3.45154e-05
3.43973e-05
3.42709e-05
3.41359e-05
3.39919e-05
3.38385e-05
3.36753e-05
3.3502e-05
3.33183e-05
3.31237e-05
3.29178e-05
3.27005e-05
3.24713e-05
3.22299e-05
3.19762e-05
3.17097e-05
3.14302e-05
3.11376e-05
3.08316e-05
3.05121e-05
3.01789e-05
2.9832e-05
2.94714e-05
2.9097e-05
2.87089e-05
2.83071e-05
2.78917e-05
2.74629e-05
2.70208e-05
2.65658e-05
2.60979e-05
2.56176e-05
2.51252e-05
2.46208e-05
2.4105e-05
2.3578e-05
3.56927e-05
3.56836e-05
3.56724e-05
3.56591e-05
3.56435e-05
3.56254e-05
3.56046e-05
3.5581e-05
3.55543e-05
3.55244e-05
3.5491e-05
3.54539e-05
3.54129e-05
3.53678e-05
3.53182e-05
3.5264e-05
3.52048e-05
3.51403e-05
3.50703e-05
3.49944e-05
3.49124e-05
3.48238e-05
3.47284e-05
3.46258e-05
3.45157e-05
3.43977e-05
3.42714e-05
3.41365e-05
3.39926e-05
3.38393e-05
3.36763e-05
3.35032e-05
3.33196e-05
3.31252e-05
3.29196e-05
3.27026e-05
3.24737e-05
3.22327e-05
3.19793e-05
3.17133e-05
3.14344e-05
3.11423e-05
3.08369e-05
3.0518e-05
3.01856e-05
2.98396e-05
2.94799e-05
2.91065e-05
2.87195e-05
2.83189e-05
2.79048e-05
2.74773e-05
2.70367e-05
2.65832e-05
2.61171e-05
2.56386e-05
2.51481e-05
2.46459e-05
2.41323e-05
2.36076e-05
3.56927e-05
3.56836e-05
3.56724e-05
3.56591e-05
3.56435e-05
3.56254e-05
3.56046e-05
3.5581e-05
3.55543e-05
3.55244e-05
3.5491e-05
3.54539e-05
3.5413e-05
3.53678e-05
3.53182e-05
3.5264e-05
3.52048e-05
3.51404e-05
3.50704e-05
3.49946e-05
3.49125e-05
3.4824e-05
3.47286e-05
3.46261e-05
3.4516e-05
3.43981e-05
3.42719e-05
3.41371e-05
3.39933e-05
3.38402e-05
3.36774e-05
3.35045e-05
3.33211e-05
3.31269e-05
3.29216e-05
3.27049e-05
3.24764e-05
3.22358e-05
3.19829e-05
3.17173e-05
3.14389e-05
3.11475e-05
3.08428e-05
3.05247e-05
3.01931e-05
2.9848e-05
2.94893e-05
2.91171e-05
2.87312e-05
2.83319e-05
2.79192e-05
2.74933e-05
2.70544e-05
2.66027e-05
2.61385e-05
2.5662e-05
2.51736e-05
2.46737e-05
2.41625e-05
2.36403e-05
3.56927e-05
3.56836e-05
3.56724e-05
3.56591e-05
3.56435e-05
3.56254e-05
3.56046e-05
3.5581e-05
3.55543e-05
3.55244e-05
3.5491e-05
3.54539e-05
3.5413e-05
3.53678e-05
3.53182e-05
3.5264e-05
3.52049e-05
3.51404e-05
3.50705e-05
3.49947e-05
3.49127e-05
3.48242e-05
3.47288e-05
3.46264e-05
3.45164e-05
3.43985e-05
3.42725e-05
3.41378e-05
3.39942e-05
3.38412e-05
3.36786e-05
3.35059e-05
3.33227e-05
3.31288e-05
3.29238e-05
3.27074e-05
3.24793e-05
3.22392e-05
3.19868e-05
3.17218e-05
3.1444e-05
3.11532e-05
3.08492e-05
3.0532e-05
3.02013e-05
2.98573e-05
2.94997e-05
2.91287e-05
2.87442e-05
2.83463e-05
2.79352e-05
2.75109e-05
2.70738e-05
2.6624e-05
2.61619e-05
2.56876e-05
2.52016e-05
2.47042e-05
2.41956e-05
2.36763e-05
3.56927e-05
3.56836e-05
3.56724e-05
3.56591e-05
3.56435e-05
3.56254e-05