/*--------------------------------*- C++ -*----------------------------------*\
  =========                 |
  \\      /  F ield         | OpenFOAM: The Open Source CFD Toolbox
   \\    /   O peration     | Website:  https://openfoam.org
    \\  /    A nd           | Version:  9
     \\/     M anipulation  |
\*---------------------------------------------------------------------------*/
FoamFile
{
    format      ascii;
    class       volVectorField;
    location    "6";
    object      ddtCorrDdt0(hU);
}
// * * * * * * * * * * * * * * * * * * * * * * * * * * * * * * * * * * * * * //

dimensions      [0 2 -2 0 0 0 0];

internalField   nonuniform List<vector> 
400
(
(1.80503e-06 1.06738e-06 0)
(8.11565e-06 1.40919e-06 0)
(5.99203e-06 1.14466e-06 0)
(1.13171e-06 8.46419e-07 0)
(-5.0901e-07 7.44291e-07 0)
(4.19237e-07 5.4544e-07 0)
(3.98261e-07 -7.95185e-08 0)
(-7.42934e-07 -2.37742e-07 0)
(-4.14885e-07 -7.3502e-08 0)
(-7.32805e-07 -3.3036e-07 0)
(-1.60468e-06 -4.50071e-07 0)
(5.7585e-09 5.24146e-08 0)
(3.44541e-06 -8.5842e-09 0)
(5.79273e-06 -4.88874e-07 0)
(3.87372e-06 -8.03481e-07 0)
(-1.94685e-06 -1.01016e-06 0)
(-5.96871e-06 -6.9399e-07 0)
(-5.3551e-06 -2.23339e-07 0)
(1.75691e-06 2.14186e-07 0)
(9.73319e-06 1.90185e-07 0)
(1.51439e-06 2.73478e-06 0)
(7.49562e-06 3.6523e-06 0)
(5.63465e-06 2.9006e-06 0)
(1.15142e-06 1.93979e-06 0)
(-4.38251e-07 1.51684e-06 0)
(1.14826e-07 1.14633e-06 0)
(-2.7118e-08 -1.21572e-07 0)
(-7.00364e-07 -4.52291e-07 0)
(-6.84433e-07 -9.30623e-08 0)
(-7.20816e-07 -6.31444e-07 0)
(-1.10627e-06 -9.29881e-07 0)
(3.56618e-07 8.43596e-08 0)
(3.00259e-06 -1.35129e-07 0)
(4.67284e-06 -1.36551e-06 0)
(3.23313e-06 -2.12085e-06 0)
(-1.46163e-06 -2.49419e-06 0)
(-5.28863e-06 -1.57841e-06 0)
(-4.34774e-06 -1.25182e-07 0)
(2.29865e-06 1.08264e-06 0)
(9.01368e-06 7.55889e-07 0)
(8.91013e-07 3.36994e-06 0)
(6.12613e-06 4.66539e-06 0)
(4.90509e-06 3.56704e-06 0)
(1.34391e-06 1.93786e-06 0)
(1.03234e-07 1.24509e-06 0)
(-9.75272e-09 9.39194e-07 0)
(-6.73466e-07 -8.18756e-08 0)
(-1.05683e-06 -2.02504e-07 0)
(-7.97449e-07 2.20183e-07 0)
(-6.74053e-07 -3.63668e-07 0)
(-6.94432e-07 -5.91594e-07 0)
(4.97831e-07 2.82115e-07 0)
(2.15799e-06 -2.07079e-07 0)
(3.21208e-06 -1.78182e-06 0)
(2.4622e-06 -2.7473e-06 0)
(-5.50756e-07 -3.04706e-06 0)
(-3.57925e-06 -1.79715e-06 0)
(-2.35073e-06 3.95011e-07 0)
(2.7796e-06 1.62754e-06 0)
(7.27432e-06 9.91987e-07 0)
(2.1383e-07 2.64762e-06 0)
(4.33324e-06 4.27469e-06 0)
(3.78572e-06 3.33538e-06 0)
(1.65543e-06 1.16141e-06 0)
(7.55726e-07 1.58288e-07 0)
(8.40504e-08 1.56346e-07 0)
(-9.88689e-07 -1.17109e-07 0)
(-1.19141e-06 6.21112e-08 0)
(-1.08133e-06 6.80247e-07 0)
(-6.95682e-07 5.4095e-07 0)
(-6.83824e-08 5.06276e-07 0)
(2.66242e-07 9.43214e-07 0)
(1.00182e-06 2.16582e-07 0)
(1.48725e-06 -1.38565e-06 0)
(1.79768e-06 -2.50494e-06 0)
(4.05136e-07 -2.67983e-06 0)
(-1.6492e-06 -1.07147e-06 0)
(-7.04749e-07 1.19348e-06 0)
(2.82483e-06 2.04046e-06 0)
(5.36143e-06 9.4145e-07 0)
(-2.24748e-07 9.22067e-07 0)
(2.59272e-06 2.72133e-06 0)
(2.45191e-06 2.64986e-06 0)
(1.9296e-06 1.58657e-07 0)
(1.64351e-06 -1.5947e-06 0)
(3.11317e-07 -1.16428e-06 0)
(-1.31847e-06 -1.57461e-07 0)
(-1.32715e-06 5.53152e-07 0)
(-7.16737e-07 1.40822e-06 0)
(-2.03904e-07 1.78974e-06 0)
(1.65063e-07 1.83248e-06 0)
(-3.45946e-07 1.83075e-06 0)
(-7.16274e-07 1.17676e-06 0)
(-1.05261e-07 -9.72691e-09 0)
(1.33982e-06 -1.06418e-06 0)
(1.63558e-06 -1.28911e-06 0)
(3.27683e-07 5.27789e-08 0)
(3.28425e-07 1.59985e-06 0)
(1.4319e-06 2.01911e-06 0)
(2.51972e-06 8.4351e-07 0)
(-6.49139e-07 -9.49049e-07 0)
(1.02115e-06 7.34109e-07 0)
(1.57948e-06 1.73081e-06 0)
(1.9204e-06 -7.32194e-07 0)
(2.15636e-06 -3.06913e-06 0)
(9.30698e-07 -2.47753e-06 0)
(-8.68981e-07 -8.68712e-08 0)
(-7.80535e-07 1.62433e-06 0)
(-1.0182e-07 2.4659e-06 0)
(3.98311e-07 2.77474e-06 0)
(1.1586e-07 2.51539e-06 0)
(-6.95509e-07 2.62896e-06 0)
(-1.55734e-06 2.24277e-06 0)
(-9.04561e-07 1.8133e-06 0)
(1.1432e-06 1.18171e-06 0)
(2.06184e-06 1.01325e-06 0)
(9.05742e-07 1.3759e-06 0)
(2.31186e-08 1.68613e-06 0)
(-1.01368e-07 1.47372e-06 0)
(-1.20816e-07 6.10544e-07 0)
(-8.97607e-07 -2.24827e-06 0)
(-1.93088e-07 -8.4379e-07 0)
(6.44429e-07 8.56183e-07 0)
(1.7351e-06 -1.31471e-06 0)
(2.54674e-06 -3.8691e-06 0)
(1.86521e-06 -3.13416e-06 0)
(2.75027e-07 1.23351e-07 0)
(7.9963e-08 2.58847e-06 0)
(5.78941e-07 3.35611e-06 0)
(5.95837e-07 3.05838e-06 0)
(3.05576e-07 2.56492e-06 0)
(-2.62122e-07 2.62535e-06 0)
(-1.52946e-06 2.94494e-06 0)
(-1.00665e-06 3.21653e-06 0)
(1.14822e-06 3.11223e-06 0)
(1.73134e-06 3.01856e-06 0)
(-3.03048e-07 3.03481e-06 0)
(-1.80747e-06 2.27599e-06 0)
(-2.67422e-06 1.08643e-06 0)
(-2.95579e-06 2.29029e-07 0)
(-1.16039e-06 -2.56815e-06 0)
(-9.54361e-07 -1.55122e-06 0)
(-1.39897e-07 3.29073e-07 0)
(1.30791e-06 -1.45226e-06 0)
(2.86564e-06 -3.71171e-06 0)
(3.02592e-06 -3.0565e-06 0)
(1.54424e-06 1.0983e-07 0)
(1.01278e-06 2.98965e-06 0)
(1.16029e-06 3.77794e-06 0)
(9.42335e-07 2.5466e-06 0)
(1.05293e-06 2.7047e-06 0)
(1.16009e-06 2.62631e-06 0)
(1.42726e-07 2.98387e-06 0)
(-1.73064e-07 3.63161e-06 0)
(1.02492e-06 4.09267e-06 0)
(1.18678e-06 3.67508e-06 0)
(-1.56185e-06 2.87212e-06 0)
(-4.88055e-06 1.68966e-06 0)
(-5.87238e-06 3.77985e-07 0)
(-5.30666e-06 -2.47569e-07 0)
(-1.37146e-06 -1.97368e-06 0)
(-1.34286e-06 -1.4746e-06 0)
(-1.1478e-06 1.69571e-07 0)
(1.0787e-06 -1.12994e-06 0)
(3.229e-06 -2.55104e-06 0)
(3.7188e-06 -1.9785e-06 0)
(2.70587e-06 -1.14053e-07 0)
(2.05707e-06 2.22228e-06 0)
(1.23553e-06 3.19511e-06 0)
(1.39051e-06 1.63234e-06 0)
(2.81382e-06 6.21819e-07 0)
(2.12228e-06 1.48951e-06 0)
(1.11563e-06 3.06033e-06 0)
(1.12183e-06 3.54563e-06 0)
(8.03927e-07 2.89414e-06 0)
(-3.20335e-07 2.45758e-06 0)
(-3.93382e-06 2.15643e-06 0)
(-6.95888e-06 1.68477e-06 0)
(-8.27452e-06 2.84284e-07 0)
(-7.13369e-06 -4.80635e-07 0)
(-1.48342e-06 -7.73445e-07 0)
(-1.54643e-06 -6.60073e-07 0)
(-1.49193e-06 -3.79447e-08 0)
(9.50026e-07 -5.55996e-07 0)
(3.15811e-06 -9.74933e-07 0)
(4.1339e-06 -6.60904e-07 0)
(3.42369e-06 -1.90771e-07 0)
(2.03845e-06 6.74713e-07 0)
(1.2261e-06 1.24854e-06 0)
(1.99619e-06 4.589e-07 0)
(2.52938e-06 -8.05023e-07 0)
(2.90094e-06 3.13462e-07 0)
(3.64637e-06 1.79551e-06 0)
(3.27101e-06 1.57742e-06 0)
(8.17242e-07 6.00548e-07 0)
(-3.50821e-06 8.97442e-07 0)
(-7.21987e-06 1.62661e-06 0)
(-7.59462e-06 1.54497e-06 0)
(-6.88313e-06 -1.04683e-07 0)
(-7.68555e-06 -8.962e-07 0)
(-1.42625e-06 6.39425e-07 0)
(-1.6089e-06 4.75393e-07 0)
(-1.54014e-06 -3.43635e-07 0)
(9.93434e-07 1.54032e-07 0)
(3.20983e-06 6.37157e-07 0)
(4.07993e-06 3.64498e-07 0)
(3.37938e-06 -1.32564e-07 0)
(2.04526e-06 -9.00854e-07 0)
(1.25326e-06 -1.38444e-06 0)
(2.02977e-06 -4.71618e-07 0)
(2.59677e-06 8.0261e-07 0)
(2.92603e-06 -1.67384e-07 0)
(3.63506e-06 -1.7066e-06 0)
(3.28716e-06 -1.29608e-06 0)
(7.03674e-07 -4.71083e-07 0)
(-3.57818e-06 -5.70123e-07 0)
(-7.15211e-06 -1.77583e-06 0)
(-7.6108e-06 -1.71346e-06 0)
(-7.06668e-06 2.57758e-08 0)
(-7.49379e-06 8.23479e-07 0)
(-1.30735e-06 1.91794e-06 0)
(-1.36588e-06 1.28204e-06 0)
(-1.17253e-06 -3.73736e-07 0)
(1.10322e-06 8.09039e-07 0)
(3.27493e-06 2.1864e-06 0)
(3.64574e-06 1.64368e-06 0)
(2.59587e-06 -1.37604e-07 0)
(2.00752e-06 -2.35628e-06 0)
(1.24155e-06 -3.22705e-06 0)
(1.4081e-06 -1.67701e-06 0)
(2.98757e-06 -6.9352e-07 0)
(2.33304e-06 -1.56327e-06 0)
(1.27059e-06 -3.11305e-06 0)
(1.12979e-06 -3.6471e-06 0)
(1.45094e-06 -3.0604e-06 0)
(-4.30055e-07 -2.62594e-06 0)
(-4.42972e-06 -2.12183e-06 0)
(-6.90476e-06 -1.82267e-06 0)
(-8.06472e-06 -1.90399e-07 0)
(-7.42891e-06 5.56161e-07 0)
(-1.15056e-06 2.57253e-06 0)
(-9.09885e-07 1.38345e-06 0)
(-2.29665e-07 -5.82606e-07 0)
(1.28866e-06 1.08251e-06 0)
(2.88774e-06 3.2989e-06 0)
(2.98684e-06 2.68774e-06 0)
(1.47007e-06 -2.82207e-07 0)
(9.89336e-07 -2.97161e-06 0)
(1.13541e-06 -3.65854e-06 0)
(9.51092e-07 -2.54933e-06 0)
(1.15778e-06 -2.6355e-06 0)
(1.26602e-06 -2.83812e-06 0)
(1.96742e-07 -3.24058e-06 0)
(-1.72362e-07 -4.10865e-06 0)
(8.19437e-07 -4.27981e-06 0)
(1.33077e-06 -4.22743e-06 0)
(-1.84408e-06 -2.98833e-06 0)
(-5.03262e-06 -1.72134e-06 0)
(-5.72653e-06 -5.33468e-07 0)
(-5.48036e-06 9.23949e-08 0)
(-9.54816e-07 2.20704e-06 0)
(-1.7291e-07 6.43581e-07 0)
(5.90573e-07 -1.18333e-06 0)
(1.71105e-06 9.40416e-07 0)
(2.54497e-06 3.5137e-06 0)
(1.88994e-06 2.78716e-06 0)
(2.71131e-07 -2.493e-07 0)
(8.73152e-08 -2.52999e-06 0)
(5.55182e-07 -3.2021e-06 0)
(6.06726e-07 -2.97003e-06 0)
(2.18632e-07 -2.53945e-06 0)
(-3.44596e-07 -2.73943e-06 0)
(-1.47218e-06 -3.11334e-06 0)
(-8.22612e-07 -3.45367e-06 0)
(1.09657e-06 -3.14381e-06 0)
(1.47751e-06 -2.93141e-06 0)
(-1.36662e-07 -3.14074e-06 0)
(-1.58133e-06 -2.07139e-06 0)
(-2.56476e-06 -1.15577e-06 0)
(-3.05705e-06 -3.70426e-07 0)
(-6.97598e-07 8.73385e-07 0)
(9.63447e-07 -9.26512e-07 0)
(1.51493e-06 -1.93238e-06 0)
(1.95154e-06 5.19878e-07 0)
(2.22036e-06 2.75837e-06 0)
(9.67273e-07 2.16386e-06 0)
(-7.84712e-07 -3.36347e-08 0)
(-7.23602e-07 -1.61117e-06 0)
(-9.61675e-08 -2.36024e-06 0)
(3.40914e-07 -2.62135e-06 0)
(4.4773e-08 -2.53303e-06 0)
(-7.30787e-07 -2.59607e-06 0)
(-1.48832e-06 -2.27346e-06 0)
(-7.89159e-07 -1.92677e-06 0)
(1.24475e-06 -1.30365e-06 0)
(2.1337e-06 -1.00025e-06 0)
(1.09744e-06 -1.36137e-06 0)
(2.83628e-08 -1.76739e-06 0)
(-3.50131e-07 -1.73279e-06 0)
(-2.39922e-07 -7.82112e-07 0)
(-2.15504e-07 -1.00345e-06 0)
(2.58056e-06 -2.86445e-06 0)
(2.52536e-06 -2.79128e-06 0)
(1.89158e-06 -2.87036e-07 0)
(1.58466e-06 1.34669e-06 0)
(3.58723e-07 9.58411e-07 0)
(-1.19515e-06 -7.54349e-08 0)
(-1.24083e-06 -6.63308e-07 0)
(-6.97649e-07 -1.45324e-06 0)
(-1.95862e-07 -1.78078e-06 0)
(1.10167e-07 -1.81437e-06 0)
(-3.10972e-07 -1.81964e-06 0)
(-6.56779e-07 -1.22727e-06 0)
(-1.21653e-08 -4.18651e-08 0)
(1.51366e-06 8.45031e-07 0)
(1.73261e-06 1.07442e-06 0)
(1.64267e-07 1.40509e-08 0)
(2.15006e-08 -1.75068e-06 0)
(1.37509e-06 -1.99886e-06 0)
(2.69658e-06 -8.8306e-07 0)
(2.12215e-07 -2.74108e-06 0)
(4.41501e-06 -4.41651e-06 0)
(3.82972e-06 -3.51703e-06 0)
(1.66775e-06 -1.33447e-06 0)
(7.63651e-07 -2.78193e-07 0)
(-3.49048e-08 -2.61719e-07 0)
(-9.75315e-07 -2.59796e-08 0)
(-1.16225e-06 -1.88945e-07 0)
(-1.06452e-06 -7.76617e-07 0)
(-6.35197e-07 -5.2131e-07 0)
(9.43763e-08 -4.9788e-07 0)
(3.35653e-07 -8.83544e-07 0)
(8.90206e-07 -2.0438e-07 0)
(1.35634e-06 1.51103e-06 0)
(1.97281e-06 2.43337e-06 0)
(7.85392e-07 2.55686e-06 0)
(-1.62367e-06 1.06692e-06 0)
(-7.11394e-07 -1.19895e-06 0)
(2.81338e-06 -1.98836e-06 0)
(5.1184e-06 -9.23387e-07 0)
(9.26238e-07 -3.3904e-06 0)
(6.25936e-06 -4.79561e-06 0)
(4.92644e-06 -3.82619e-06 0)
(1.30748e-06 -2.16244e-06 0)
(4.6288e-08 -1.42271e-06 0)
(4.02102e-08 -1.03281e-06 0)
(-6.25665e-07 5.81694e-08 0)
(-1.06781e-06 2.49649e-07 0)
(-7.78272e-07 -2.21298e-07 0)
(-6.76555e-07 5.24987e-07 0)
(-5.72676e-07 6.72066e-07 0)
(6.39628e-07 -3.42307e-07 0)
(2.38999e-06 1.3502e-07 0)
(3.22121e-06 1.78005e-06 0)
(2.39822e-06 2.75171e-06 0)
(-4.27413e-07 2.95961e-06 0)
(-3.47149e-06 1.44979e-06 0)
(-2.46636e-06 -5.55413e-07 0)
(2.74249e-06 -1.81342e-06 0)
(7.28475e-06 -1.0375e-06 0)
(1.49465e-06 -2.6788e-06 0)
(7.42316e-06 -3.71355e-06 0)
(5.6248e-06 -2.9698e-06 0)
(1.23231e-06 -2.03808e-06 0)
(-2.95433e-07 -1.53992e-06 0)
(1.3664e-07 -1.07788e-06 0)
(-4.93444e-08 1.46573e-07 0)
(-8.47958e-07 3.26402e-07 0)
(-7.52262e-07 1.62123e-07 0)
(-7.04845e-07 7.9719e-07 0)
(-1.09752e-06 1.19083e-06 0)
(3.70893e-07 1.64844e-08 0)
(3.16146e-06 3.23461e-07 0)
(4.98118e-06 1.32233e-06 0)
(3.29875e-06 2.06738e-06 0)
(-1.49399e-06 2.44531e-06 0)
(-5.13713e-06 1.29532e-06 0)
(-4.17797e-06 -1.03498e-07 0)
(2.33484e-06 -1.11525e-06 0)
(8.93673e-06 -8.40231e-07 0)
(1.78705e-06 -1.0395e-06 0)
(8.18919e-06 -1.40917e-06 0)
(6.04263e-06 -1.04666e-06 0)
(1.13441e-06 -8.02628e-07 0)
(-5.25439e-07 -6.32737e-07 0)
(4.80084e-07 -4.33435e-07 0)
(3.12e-07 1.68412e-07 0)
(-6.50495e-07 5.99928e-08 0)
(-2.78423e-07 1.41749e-07 0)
(-5.5568e-07 4.15995e-07 0)
(-1.47658e-06 6.19183e-07 0)
(1.4303e-07 1.30096e-07 0)
(3.40302e-06 2.17902e-07 0)
(5.70848e-06 4.73657e-07 0)
(3.76694e-06 7.05933e-07 0)
(-2.06084e-06 8.87276e-07 0)
(-5.99476e-06 4.81068e-07 0)
(-5.16605e-06 1.29742e-08 0)
(1.94416e-06 -3.63883e-07 0)
(9.87893e-06 -3.51175e-07 0)
)
;

boundaryField
{
    sides
    {
        type            calculated;
        value           nonuniform List<vector> 
40
(
(1.78705e-06 0 0)
(8.18919e-06 0 0)
(6.04263e-06 0 0)
(1.13441e-06 0 0)
(-5.25439e-07 0 0)
(4.80084e-07 0 0)
(3.12e-07 0 0)
(-6.50495e-07 0 0)
(-2.78423e-07 0 0)
(-5.5568e-07 0 0)
(-1.47658e-06 0 0)
(1.4303e-07 0 0)
(3.40302e-06 0 0)
(5.70848e-06 0 0)
(3.76694e-06 0 0)
(-2.06084e-06 0 0)
(-5.99476e-06 0 0)
(-5.16605e-06 0 0)
(1.94416e-06 0 0)
(9.87893e-06 0 0)
(1.80503e-06 0 0)
(8.11565e-06 0 0)
(5.99203e-06 0 0)
(1.13171e-06 0 0)
(-5.0901e-07 0 0)
(4.19237e-07 0 0)
(3.98261e-07 0 0)
(-7.42934e-07 0 0)
(-4.14885e-07 0 0)
(-7.32805e-07 0 0)
(-1.60468e-06 0 0)
(5.7585e-09 0 0)
(3.44541e-06 0 0)
(5.79273e-06 0 0)
(3.87372e-06 0 0)
(-1.94685e-06 0 0)
(-5.96871e-06 0 0)
(-5.3551e-06 0 0)
(1.75691e-06 0 0)
(9.73319e-06 0 0)
)
;
    }
    inlet
    {
        type            calculated;
        value           uniform (0 0 0);
    }
    outlet
    {
        type            calculated;
        value           nonuniform List<vector> 
20
(
(9.73319e-06 1.90185e-07 0)
(9.01368e-06 7.55889e-07 0)
(7.27432e-06 9.91987e-07 0)
(5.36143e-06 9.4145e-07 0)
(2.51972e-06 8.4351e-07 0)
(-1.20816e-07 6.10544e-07 0)
(-2.95579e-06 2.29029e-07 0)
(-5.30666e-06 -2.47569e-07 0)
(-7.13369e-06 -4.80635e-07 0)
(-7.68555e-06 -8.962e-07 0)
(-7.49379e-06 8.23479e-07 0)
(-7.42891e-06 5.56161e-07 0)
(-5.48036e-06 9.23949e-08 0)
(-3.05705e-06 -3.70426e-07 0)
(-2.39922e-07 -7.82112e-07 0)
(2.69658e-06 -8.8306e-07 0)
(5.1184e-06 -9.23387e-07 0)
(7.28475e-06 -1.0375e-06 0)
(8.93673e-06 -8.40231e-07 0)
(9.87893e-06 -3.51175e-07 0)
)
;
    }
    frontAndBack
    {
        type            empty;
    }
}


// ************************************************************************* //
