/*--------------------------------*- C++ -*----------------------------------*\
  =========                 |
  \\      /  F ield         | OpenFOAM: The Open Source CFD Toolbox
   \\    /   O peration     | Website:  https://openfoam.org
    \\  /    A nd           | Version:  9
     \\/     M anipulation  |
\*---------------------------------------------------------------------------*/
FoamFile
{
    format      ascii;
    class       volScalarField;
    location    "6";
    object      h;
}
// * * * * * * * * * * * * * * * * * * * * * * * * * * * * * * * * * * * * * //

dimensions      [0 1 0 0 0 0 0];

internalField   nonuniform List<scalar> 
400
(
0.0100134
0.010007
0.0100018
0.0100007
0.0100014
0.00999969
0.00999782
0.00999864
0.00999975
0.00999918
0.00999959
0.00999991
0.0099976
0.0099945
0.00999113
0.00999042
0.00999596
0.0100029
0.0100063
0.0100035
0.0100116
0.0100059
0.0100011
0.0099999
0.0100004
0.00999945
0.00999839
0.00999914
0.0099998
0.00999957
0.00999978
0.00999962
0.00999751
0.00999455
0.00999161
0.00999145
0.00999645
0.010003
0.0100061
0.0100032
0.0100088
0.0100042
0.0100005
0.00999931
0.00999951
0.00999932
0.00999927
0.00999978
0.01
0.0100001
0.01
0.0099992
0.0099975
0.00999499
0.00999263
0.00999324
0.0099976
0.0100032
0.0100055
0.0100027
0.0100056
0.0100028
0.0100004
0.00999917
0.00999877
0.00999929
0.0100002
0.0100004
0.00999992
0.00999994
0.00999967
0.00999826
0.00999714
0.0099953
0.00999386
0.00999501
0.00999853
0.0100028
0.0100044
0.010002
0.0100031
0.010002
0.0100008
0.00999989
0.00999881
0.00999935
0.0100009
0.0100007
0.00999947
0.00999909
0.00999837
0.0099966
0.00999585
0.00999531
0.00999524
0.00999698
0.00999936
0.0100019
0.0100025
0.010001
0.0100016
0.0100017
0.010002
0.0100015
0.0099997
0.00999974
0.0100012
0.0100007
0.00999845
0.00999746
0.00999615
0.00999437
0.00999413
0.00999466
0.00999575
0.00999773
0.0099992
0.0100002
0.0100002
0.00999987
0.0100011
0.0100019
0.0100034
0.0100034
0.0100013
0.0100005
0.0100011
0.00999994
0.00999689
0.00999471
0.00999272
0.00999149
0.00999272
0.00999472
0.00999672
0.00999814
0.009998
0.00999756
0.00999731
0.00999866
0.0100011
0.0100023
0.0100048
0.0100055
0.0100034
0.0100016
0.0100008
0.00999903
0.00999591
0.00999264
0.00998843
0.00998685
0.00999001
0.00999448
0.00999723
0.00999783
0.00999635
0.00999469
0.00999467
0.00999761
0.0100015
0.0100027
0.0100057
0.0100073
0.0100057
0.0100032
0.0100009
0.00999745
0.00999262
0.00998738
0.00998411
0.00998587
0.00999303
0.00999716
0.00999682
0.00999561
0.00999364
0.00999241
0.00999297
0.00999693
0.0100018
0.0100029
0.0100061
0.0100083
0.0100073
0.0100054
0.0100046
0.0100048
0.0100014
0.00897616
0.0089503
0.00997245
0.0100035
0.0100099
0.0100018
0.00999428
0.00999084
0.00999092
0.0099925
0.0099967
0.0100018
0.0100029
0.0100061
0.0100083
0.0100072
0.0100054
0.0100046
0.0100048
0.0100015
0.00897616
0.00895032
0.00997239
0.0100034
0.0100098
0.0100017
0.00999425
0.00999102
0.00999103
0.00999247
0.00999672
0.0100015
0.0100026
0.0100056
0.0100073
0.0100056
0.0100032
0.0100009
0.0099975
0.00999261
0.00998729
0.00998393
0.00998569
0.00999275
0.00999671
0.00999699
0.00999543
0.00999347
0.00999227
0.00999287
0.00999681
0.010001
0.0100022
0.0100047
0.0100054
0.0100034
0.0100016
0.0100009
0.00999904
0.0099959
0.00999264
0.00998844
0.00998668
0.00998978
0.00999428
0.00999695
0.00999781
0.00999609
0.00999454
0.00999453
0.00999751
0.0100008
0.0100018
0.0100034
0.0100034
0.0100013
0.0100005
0.0100011
0.00999985
0.00999683
0.00999461
0.00999245
0.00999124
0.00999252
0.00999455
0.00999637
0.00999775
0.00999782
0.00999744
0.00999721
0.00999861
0.0100013
0.0100015
0.0100019
0.0100014
0.00999968
0.00999969
0.010001
0.0100005
0.0099983
0.00999735
0.00999594
0.00999411
0.00999396
0.00999444
0.00999533
0.00999738
0.00999897
0.0099999
0.00999997
0.00999981
0.0100028
0.0100017
0.0100007
0.00999979
0.00999874
0.00999922
0.0100006
0.0100005
0.00999923
0.00999889
0.00999804
0.00999624
0.00999556
0.00999495
0.00999478
0.00999662
0.00999896
0.0100015
0.0100023
0.010001
0.0100052
0.0100024
0.0100001
0.00999898
0.00999865
0.00999909
0.00999996
0.0100001
0.00999965
0.00999972
0.00999941
0.00999791
0.00999665
0.00999478
0.00999351
0.0099947
0.009998
0.0100025
0.0100042
0.0100019
0.0100083
0.0100038
0.0100001
0.00999895
0.00999915
0.00999901
0.00999893
0.00999938
0.0099996
0.00999957
0.00999949
0.0099986
0.00999698
0.00999434
0.00999206
0.00999272
0.00999707
0.0100028
0.0100053
0.0100026
0.010011
0.0100053
0.0100007
0.00999963
0.0100002
0.00999904
0.0099979
0.0099986
0.00999924
0.00999892
0.00999924
0.00999904
0.00999691
0.00999404
0.00999103
0.00999092
0.00999615
0.0100028
0.0100059
0.0100031
0.0100126
0.0100062
0.0100011
0.01
0.0100006
0.00999896
0.0099972
0.00999811
0.00999892
0.00999825
0.00999865
0.009999
0.00999658
0.00999363
0.0099903
0.00998971
0.00999545
0.0100025
0.0100061
0.0100034
)
;

boundaryField
{
    sides
    {
        type            zeroGradient;
    }
    inlet
    {
        type            zeroGradient;
    }
    outlet
    {
        type            fixedValue;
        value           uniform 0.01;
    }
    frontAndBack
    {
        type            empty;
    }
}


// ************************************************************************* //
