/*--------------------------------*- C++ -*----------------------------------*\
  =========                 |
  \\      /  F ield         | OpenFOAM: The Open Source CFD Toolbox
   \\    /   O peration     | Website:  https://openfoam.org
    \\  /    A nd           | Version:  9
     \\/     M anipulation  |
\*---------------------------------------------------------------------------*/
FoamFile
{
    format      ascii;
    class       volScalarField;
    location    "6";
    object      h_0;
}
// * * * * * * * * * * * * * * * * * * * * * * * * * * * * * * * * * * * * * //

dimensions      [0 1 0 0 0 0 0];

internalField   nonuniform List<scalar> 
400
(
0.0100153
0.0100101
0.0100037
0.0100004
0.0100012
0.0100013
0.00999913
0.00999862
0.00999969
0.00999947
0.00999951
0.0100004
0.00999873
0.00999497
0.00999133
0.00998969
0.00999343
0.0100004
0.0100052
0.0100033
0.0100135
0.0100086
0.0100027
0.00999964
0.0100001
0.0100004
0.00999913
0.00999902
0.00999984
0.00999974
0.00999985
0.0100002
0.00999853
0.0099953
0.00999196
0.00999062
0.0099941
0.0100005
0.0100048
0.010003
0.0100105
0.0100063
0.0100016
0.00999898
0.00999896
0.00999922
0.00999925
0.00999969
0.0100001
0.0100001
0.0100003
0.00999996
0.00999844
0.00999609
0.00999325
0.00999224
0.00999527
0.0100005
0.0100039
0.0100024
0.0100069
0.0100039
0.0100008
0.00999883
0.00999806
0.00999816
0.00999929
0.0100002
0.0100002
0.0100001
0.0100001
0.0099993
0.00999816
0.00999684
0.00999466
0.00999395
0.00999635
0.0100001
0.0100027
0.0100016
0.0100038
0.010002
0.0100006
0.00999949
0.00999811
0.00999769
0.00999939
0.0100007
0.0100001
0.00999932
0.00999898
0.00999793
0.0099973
0.00999715
0.00999609
0.00999585
0.00999728
0.00999951
0.0100011
0.0100008
0.0100019
0.010001
0.010001
0.0100009
0.00999934
0.00999815
0.00999946
0.0100006
0.00999924
0.00999774
0.00999697
0.00999582
0.00999576
0.00999647
0.00999632
0.00999661
0.00999759
0.00999867
0.00999948
0.00999988
0.0100012
0.010001
0.0100019
0.0100027
0.0100013
0.00999948
0.00999962
0.00999976
0.00999756
0.00999485
0.00999353
0.00999266
0.00999417
0.0099963
0.00999709
0.00999715
0.00999715
0.00999738
0.00999785
0.0099991
0.0100015
0.0100015
0.010003
0.0100047
0.0100038
0.0100013
0.00999997
0.00999886
0.00999603
0.00999229
0.00998837
0.0099872
0.00999071
0.00999549
0.00999737
0.00999714
0.00999606
0.00999587
0.00999658
0.0099986
0.0100022
0.0100021
0.010004
0.0100064
0.0100062
0.0100036
0.0100009
0.00999749
0.00999222
0.00998652
0.00998322
0.00998541
0.0099929
0.00999745
0.00999703
0.00999525
0.00999426
0.00999484
0.00999609
0.00999844
0.0100027
0.0100025
0.0100045
0.0100074
0.0100079
0.0100064
0.0100051
0.0100048
0.0100006
0.00897468
0.0089491
0.00997164
0.0100031
0.01001
0.0100013
0.00999399
0.00999214
0.00999419
0.00999633
0.00999849
0.0100027
0.0100025
0.0100045
0.0100074
0.0100079
0.0100064
0.0100052
0.0100049
0.0100006
0.0089747
0.00894911
0.00997156
0.010003
0.0100099
0.0100012
0.00999391
0.00999217
0.00999429
0.00999645
0.00999857
0.0100022
0.010002
0.010004
0.0100064
0.0100061
0.0100036
0.0100009
0.00999757
0.00999228
0.00998648
0.00998314
0.00998521
0.00999269
0.00999692
0.0099967
0.0099949
0.00999427
0.0099948
0.00999594
0.00999832
0.0100013
0.0100013
0.0100029
0.0100047
0.0100037
0.0100013
0.00999999
0.00999891
0.00999607
0.00999234
0.00998838
0.00998707
0.00999051
0.00999529
0.00999727
0.0099971
0.00999586
0.00999588
0.00999646
0.00999852
0.0100009
0.0100008
0.0100018
0.0100027
0.0100013
0.00999943
0.00999957
0.00999968
0.00999747
0.00999483
0.00999335
0.0099925
0.00999401
0.00999617
0.00999683
0.00999699
0.00999703
0.00999722
0.0099977
0.00999901
0.0100015
0.0100008
0.0100008
0.0100008
0.00999926
0.00999811
0.00999934
0.0100004
0.00999903
0.00999764
0.00999686
0.00999568
0.00999559
0.00999635
0.00999602
0.00999621
0.00999727
0.00999836
0.00999931
0.00999985
0.0100034
0.0100017
0.0100003
0.00999931
0.00999801
0.00999761
0.00999917
0.0100004
0.00999979
0.00999907
0.00999873
0.00999761
0.009997
0.00999689
0.00999566
0.00999547
0.00999702
0.00999926
0.010001
0.0100008
0.0100064
0.0100034
0.0100004
0.00999854
0.00999787
0.009998
0.00999913
0.00999993
0.00999993
0.00999986
0.00999988
0.009999
0.0099978
0.00999648
0.00999434
0.00999363
0.00999583
0.00999981
0.0100024
0.0100016
0.0100099
0.0100058
0.0100012
0.0099986
0.00999858
0.00999887
0.00999887
0.0099993
0.00999974
0.00999964
0.00999985
0.00999937
0.0099979
0.00999548
0.00999269
0.00999176
0.00999475
0.0100001
0.0100037
0.0100023
0.0100128
0.010008
0.0100023
0.00999926
0.00999978
0.00999998
0.00999874
0.00999853
0.00999939
0.00999914
0.0099993
0.00999969
0.009998
0.00999471
0.0099914
0.0099901
0.0099937
0.0100002
0.0100046
0.0100029
0.0100144
0.0100093
0.0100029
0.00999974
0.0100005
0.0100005
0.00999836
0.00999806
0.00999896
0.00999856
0.00999852
0.0099995
0.00999773
0.0099941
0.00999057
0.00998901
0.00999296
0.01
0.0100049
0.0100033
)
;

boundaryField
{
    sides
    {
        type            zeroGradient;
    }
    inlet
    {
        type            zeroGradient;
    }
    outlet
    {
        type            fixedValue;
        value           uniform 0.01;
    }
    frontAndBack
    {
        type            empty;
    }
}


// ************************************************************************* //
