/*--------------------------------*- C++ -*----------------------------------*\
  =========                 |
  \\      /  F ield         | OpenFOAM: The Open Source CFD Toolbox
   \\    /   O peration     | Website:  https://openfoam.org
    \\  /    A nd           | Version:  9
     \\/     M anipulation  |
\*---------------------------------------------------------------------------*/
FoamFile
{
    format      ascii;
    class       surfaceScalarField;
    location    "6";
    object      phi_0;
}
// * * * * * * * * * * * * * * * * * * * * * * * * * * * * * * * * * * * * * //

dimensions      [0 4 -1 0 0 0 0];

internalField   nonuniform List<scalar> 
760
(
4.9998e-06
2.40109e-09
5.00334e-06
3.51429e-09
5.00691e-06
2.20312e-09
5.00667e-06
1.48476e-10
5.00508e-06
1.19054e-10
5.00676e-06
1.98e-09
5.00854e-06
2.61214e-09
5.00768e-06
1.17348e-09
5.00701e-06
-1.77163e-10
5.00887e-06
-5.22618e-10
5.00994e-06
-8.20069e-10
5.01069e-06
-6.08759e-10
5.01286e-06
-3.40052e-13
5.01377e-06
1.01092e-10
5.01497e-06
3.76461e-10
5.01545e-06
5.01894e-10
5.0103e-06
-1.89955e-10
5.00348e-06
-6.72032e-10
4.99858e-06
-4.62897e-10
-5.71469e-10
5.00026e-06
4.62178e-09
5.00329e-06
6.91175e-09
5.0064e-06
4.23551e-09
5.00664e-06
1.21775e-10
5.00557e-06
-4.70945e-11
5.00676e-06
2.91138e-09
5.00804e-06
3.85549e-09
5.00753e-06
1.39879e-09
5.0077e-06
-6.1701e-10
5.00928e-06
-1.40625e-09
5.01029e-06
-1.58193e-09
5.01117e-06
-8.91589e-10
5.01291e-06
2.77181e-10
5.01415e-06
7.04569e-10
5.01545e-06
9.72043e-10
5.01527e-06
7.23077e-10
5.01038e-06
-3.66084e-10
5.00352e-06
-1.47498e-09
4.99844e-06
-1.15856e-09
-5.30706e-10
5.00106e-06
6.4709e-09
5.00329e-06
9.8962e-09
5.00555e-06
5.62765e-09
5.0061e-06
-4.61852e-10
5.00573e-06
-1.19028e-09
5.00625e-06
2.32101e-09
5.00677e-06
3.63493e-09
5.00712e-06
7.51962e-10
5.00847e-06
-1.96547e-09
5.00989e-06
-2.87357e-09
5.01107e-06
-2.36637e-09
5.01235e-06
-8.58849e-10
5.01356e-06
9.48478e-10
5.01489e-06
1.84421e-09
5.01608e-06
2.08214e-09
5.01453e-06
1.07698e-09
5.0101e-06
-1.28634e-09
5.00317e-06
-2.68248e-09
4.99814e-06
-2.11652e-09
-6.41427e-10
5.00193e-06
7.26003e-09
5.00319e-06
1.1587e-08
5.00448e-06
6.05099e-09
5.00524e-06
-1.5231e-09
5.00597e-06
-3.16945e-09
5.00586e-06
5.56458e-11
5.00577e-06
1.40426e-09
5.00709e-06
-1.17308e-09
5.00999e-06
-4.01596e-09
5.01159e-06
-4.44057e-09
5.01235e-06
-2.7588e-09
5.01374e-06
1.8144e-10
5.01387e-06
2.87383e-09
5.01505e-06
4.11046e-09
5.01608e-06
3.39672e-09
5.01388e-06
9.77483e-10
5.00946e-06
-2.39448e-09
5.00375e-06
-4.79805e-09
4.99899e-06
-3.4526e-09
-5.78187e-10
5.00265e-06
6.37794e-09
5.00306e-06
1.15403e-08
5.00344e-06
5.48367e-09
5.00389e-06
-2.84566e-09
5.00539e-06
-5.61396e-09
5.00541e-06
-3.29678e-09
5.005e-06
-2.1228e-09
5.00747e-06
-4.20118e-09
5.01199e-06
-6.87972e-09
5.01452e-06
-6.7537e-09
5.01531e-06
-2.82374e-09
5.01595e-06
3.04461e-09
5.01472e-06
7.60571e-09
5.01424e-06
8.56139e-09
5.01366e-06
5.86775e-09
5.01145e-06
5.17769e-11
5.00786e-06
-4.19322e-09
5.00312e-06
-6.6101e-09
4.99997e-06
-4.41697e-09
-5.99071e-10
5.00303e-06
4.40615e-09
5.00338e-06
9.80904e-09
5.00218e-06
3.98489e-09
5.00206e-06
-4.47151e-09
5.00404e-06
-7.83536e-09
5.00484e-06
-7.09262e-09
5.00523e-06
-7.11715e-09
5.00905e-06
-9.06598e-09
5.01482e-06
-1.04518e-08
5.01799e-06
-9.37759e-09
5.01953e-06
-2.62472e-09
5.01787e-06
8.80112e-09
5.01439e-06
1.52749e-08
5.01259e-06
1.42355e-08
5.0116e-06
7.66805e-09
5.0087e-06
-7.63689e-10
5.00665e-06
-6.7549e-09
5.00387e-06
-8.01569e-09
5.00237e-06
-4.8505e-09
-3.99868e-10
5.00302e-06
2.04951e-09
5.00372e-06
7.11131e-09
5.0012e-06
2.2793e-09
4.99978e-06
-5.43645e-09
5.00151e-06
-9.08736e-09
5.00272e-06
-1.02207e-08
5.00445e-06
-1.28623e-08
5.01116e-06
-1.69033e-08
5.02254e-06
-1.9919e-08
5.02914e-06
-1.53769e-08
5.0267e-06
1.65176e-09
5.01701e-06
2.21124e-08
5.00714e-06
2.90267e-08
5.00463e-06
2.04151e-08
5.00622e-06
6.47877e-09
5.00585e-06
-3.31858e-09
5.00457e-06
-7.52537e-09
5.00362e-06
-7.5041e-09
5.00511e-06
-4.45493e-09
-5.70114e-10
5.00286e-06
3.16338e-10
5.00387e-06
4.30997e-09
5.00031e-06
6.57433e-10
4.99738e-06
-5.47962e-09
4.99811e-06
-8.98626e-09
4.99964e-06
-1.20672e-08
5.00215e-06
-1.75144e-08
5.00835e-06
-2.36907e-08
5.02409e-06
-3.49077e-08
5.05453e-06
-4.65338e-08
5.04785e-06
8.45153e-09
5.02081e-06
5.06081e-08
4.99709e-06
5.46181e-08
4.99551e-06
2.4587e-08
5.00271e-06
-1.03304e-10
5.0035e-06
-5.88671e-09
5.00106e-06
-5.31855e-09
5.00208e-06
-4.81391e-09
5.00793e-06
-4.6616e-09
-1.83266e-09
5.00258e-06
-2.37931e-10
5.00369e-06
2.09934e-09
4.99957e-06
1.03731e-10
4.99398e-06
-3.48963e-09
4.99164e-06
-6.02424e-09
4.99235e-06
-1.15304e-08
4.99846e-06
-2.33651e-08
5.0168e-06
-4.15693e-08
5.05571e-06
-7.41255e-08
5.06526e-06
-5.82955e-08
5.04571e-06
2.54765e-08
4.99258e-06
1.0301e-07
4.98648e-06
6.05667e-08
4.99442e-06
1.75486e-08
4.99944e-06
-3.57965e-09
4.99826e-06
-5.02943e-09
4.99626e-06
-7.69894e-10
5.00032e-06
-2.15367e-09
5.00981e-06
-5.26354e-09
-2.79401e-09
5.00243e-06
-4.05269e-11
5.004e-06
-8.69494e-11
4.99973e-06
-5.81038e-11
4.99251e-06
3.84952e-11
4.98694e-06
2.22657e-10
4.97741e-06
3.69347e-10
4.9555e-06
3.83582e-10
4.91471e-06
2.13685e-10
4.83942e-06
-1.5387e-10
4.77743e-06
-4.49857e-10
4.80024e-06
-7.74656e-10
4.90221e-06
-1.02372e-09
4.96305e-06
-1.06485e-09
4.98323e-06
-1.24121e-09
4.98126e-06
-1.48201e-09
4.97799e-06
-1.47304e-09
4.98301e-06
-1.46887e-09
4.99172e-06
-1.77696e-09
4.99919e-06
-2.05862e-09
-2.34559e-09
5.00235e-06
1.24276e-10
5.00397e-06
-2.28527e-09
4.99968e-06
-2.09653e-10
4.99249e-06
3.56282e-09
4.98691e-06
6.4468e-09
4.9774e-06
1.22593e-08
4.95545e-06
2.41451e-08
4.91463e-06
4.20407e-08
4.83927e-06
7.39408e-08
4.77714e-06
5.76039e-08
4.80019e-06
-2.72926e-08
4.90222e-06
-1.05121e-07
4.96312e-06
-6.2741e-08
4.98282e-06
-1.95224e-08
4.98145e-06
2.32433e-10
4.97787e-06
2.3489e-09
4.98282e-06
-2.49428e-09
4.99152e-06
-1.60992e-09
4.99933e-06
1.13095e-09
-1.70146e-09
5.00249e-06
-4.66552e-10
5.00349e-06
-4.42456e-09
4.9994e-06
-8.32971e-10
4.99378e-06
5.66641e-09
4.99142e-06
9.41592e-09
4.99217e-06
1.26905e-08
4.99832e-06
1.81891e-08
5.01671e-06
2.41349e-08
5.05566e-06
3.48416e-08
5.06562e-06
4.56079e-08
5.04551e-06
-9.67542e-09
4.99215e-06
-5.24926e-08
4.98619e-06
-5.67377e-08
4.99525e-06
-2.7541e-08
4.99828e-06
-2.65395e-09
4.99738e-06
2.80381e-09
4.99547e-06
2.17476e-09
4.99976e-06
1.13796e-09
5.00882e-06
8.28384e-10
-2.67508e-09
5.00274e-06
-2.20285e-09
5.00363e-06
-7.26588e-09
5.00003e-06
-2.29861e-09
4.99709e-06
5.59233e-09
4.99787e-06
9.41358e-09
4.99936e-06
1.07784e-08
5.00187e-06
1.35185e-08
5.00804e-06
1.74378e-08
5.02375e-06
2.00064e-08
5.05395e-06
1.47817e-08
5.04752e-06
-3.04316e-09
5.02056e-06
-2.39512e-08
4.99694e-06
-3.12011e-08
4.99484e-06
-2.29011e-08
5.00191e-06
-8.76314e-09
5.00272e-06
1.54281e-10
5.00047e-06
4.74348e-09
5.00129e-06
4.27871e-09
5.0069e-06
9.78361e-10
-3.60301e-09
5.00296e-06
-4.5291e-09
5.00341e-06
-1.00349e-08
5.0008e-06
-4.0549e-09
4.99936e-06
4.61739e-09
5.0011e-06
8.19595e-09
5.00227e-06
7.62379e-09
5.00409e-06
7.73309e-09
5.01091e-06
9.53723e-09
5.02221e-06
1.05309e-08
5.02881e-06
8.8866e-09
5.02665e-06
1.40726e-09
5.01681e-06
-1.02876e-08
5.0066e-06
-1.7068e-08
5.00375e-06
-1.63578e-08
5.0056e-06
-9.9449e-09
5.00496e-06
-1.75455e-09
5.00341e-06
4.11036e-09
5.0022e-06
4.84665e-09
5.00337e-06
1.52243e-09
-3.6397e-09
5.00291e-06
-6.51836e-09
5.00307e-06
-1.17585e-08
5.00179e-06
-5.58809e-09
5.00156e-06
2.97221e-09
5.00347e-06
5.89804e-09
5.00432e-06
3.71726e-09
5.00483e-06
2.67556e-09
5.00873e-06
4.61469e-09
5.01435e-06
6.97533e-09
5.01739e-06
6.36995e-09
5.01899e-06
1.82951e-09
5.01732e-06
-4.22738e-09
5.01355e-06
-9.15958e-09
5.01161e-06
-1.04057e-08
5.01062e-06
-7.68666e-09
5.00774e-06
-2.62038e-09
5.00509e-06
1.78587e-09
5.00209e-06
3.64727e-09
5.00036e-06
1.53114e-09
-3.19714e-09
5.00245e-06
-7.4495e-09
5.00275e-06
-1.18264e-08
5.00292e-06
-6.23092e-09
5.00328e-06
1.55897e-09
5.00473e-06
3.37212e-09
5.00488e-06
3.15036e-10
5.00452e-06
-8.19855e-10
5.00712e-06
1.38938e-09
5.01163e-06
4.00474e-09
5.01405e-06
4.01699e-09
5.01484e-06
2.06369e-09
5.01543e-06
-1.15937e-09
5.01397e-06
-4.29671e-09
5.01346e-06
-5.77343e-09
5.01276e-06
-5.01577e-09
5.00951e-06
-2.6105e-09
5.00605e-06
3.15121e-10
5.00114e-06
2.4385e-09
4.99748e-06
1.08094e-09
-2.80207e-09
5.00177e-06
-6.68172e-09
5.00282e-06
-1.01409e-08
5.00396e-06
-5.7954e-09
5.00456e-06
3.8211e-10
5.00511e-06
1.30482e-09
5.00521e-06
-2.01819e-09
5.00525e-06
-3.13268e-09
5.00678e-06
-5.9581e-10
5.00958e-06
1.95045e-09
5.01094e-06
2.55072e-09
5.01163e-06
1.65185e-09
5.01307e-06
-5.37794e-11
5.01304e-06
-1.75882e-09
5.01401e-06
-2.83077e-09
5.01447e-06
-3.22162e-09
5.012e-06
-2.50281e-09
5.00737e-06
-3.31052e-10
5.00104e-06
7.99463e-10
4.99585e-06
1.00611e-10
-2.35347e-09
5.00087e-06
-4.82702e-09
5.00287e-06
-7.16752e-09
5.00495e-06
-4.29606e-09
5.00544e-06
-1.67969e-10
5.00512e-06
1.02699e-10
5.00565e-06
-2.76907e-09
5.00638e-06
-3.67531e-09
5.00678e-06
-1.35096e-09
5.00818e-06
5.8385e-10
5.00973e-06
1.09165e-09
5.01062e-06
1.2674e-09
5.01165e-06
3.58279e-10
5.01243e-06
-8.52243e-10
5.01369e-06
-1.3299e-09
5.01459e-06
-1.71953e-09
5.01269e-06
-1.78389e-09
5.00752e-06
-4.30651e-10
5.00018e-06
9.44235e-11
4.99456e-06
-2.5384e-10
-1.74243e-09
5e-06
-2.44949e-09
5.00281e-06
-3.60128e-09
5.00582e-06
-2.32285e-09
5.00579e-06
-1.65434e-10
5.00461e-06
-2.57854e-10
5.00589e-06
-1.8782e-09
5.0072e-06
-2.19512e-09
5.0068e-06
-8.60688e-10
5.00725e-06
7.81208e-11
5.00882e-06
4.0394e-10
5.00963e-06
5.64394e-10
5.01041e-06
2.29335e-10
5.01202e-06
-3.72453e-10
5.01273e-06
-5.13876e-10
5.01375e-06
-8.23003e-10
5.01309e-06
-9.69643e-10
5.00766e-06
-3.2516e-10
5.00012e-06
-2.00342e-10
4.99442e-06
-2.50875e-10
-1.05185e-09
4.99961e-06
5.00296e-06
5.00628e-06
5.00601e-06
5.00455e-06
5.00622e-06
5.00807e-06
5.00715e-06
5.00672e-06
5.00856e-06
5.00934e-06
5.00974e-06
5.01176e-06
5.01223e-06
5.01321e-06
5.01328e-06
5.00758e-06
4.99983e-06
4.99407e-06
)
;

boundaryField
{
    sides
    {
        type            calculated;
        value           uniform 0;
    }
    inlet
    {
        type            calculated;
        value           nonuniform List<scalar> 
20
(
-5e-06
-5e-06
-5e-06
-5e-06
-5e-06
-5e-06
-5e-06
-5e-06
-5e-06
-5e-06
-5e-06
-5e-06
-5e-06
-5e-06
-5e-06
-5e-06
-5e-06
-5e-06
-5e-06
-5e-06
)
;
    }
    outlet
    {
        type            calculated;
        value           nonuniform List<scalar> 
20
(
4.99666e-06
4.99625e-06
4.99663e-06
4.99744e-06
4.99941e-06
5.00239e-06
5.00695e-06
5.01238e-06
5.01527e-06
5.00425e-06
5.00418e-06
5.01446e-06
5.01115e-06
5.00502e-06
5.00021e-06
4.99638e-06
4.99408e-06
4.99228e-06
4.99163e-06
4.99048e-06
)
;
    }
    frontAndBack
    {
        type            empty;
        value           nonuniform List<scalar> 0();
    }
}


// ************************************************************************* //
