/*--------------------------------*- C++ -*----------------------------------*\
  =========                 |
  \\      /  F ield         | OpenFOAM: The Open Source CFD Toolbox
   \\    /   O peration     | Website:  https://openfoam.org
    \\  /    A nd           | Version:  9
     \\/     M anipulation  |
\*---------------------------------------------------------------------------*/
FoamFile
{
    format      ascii;
    class       surfaceScalarField;
    location    "55";
    object      ddtCorrDdt0(phi);
}
// * * * * * * * * * * * * * * * * * * * * * * * * * * * * * * * * * * * * * //

dimensions      [0 4 -2 0 0 0 0];

internalField   nonuniform List<scalar> 
760
(
3.22199e-11
1.01193e-11
1.18488e-11
1.18903e-11
-1.41779e-12
1.84968e-11
3.59539e-12
3.2544e-11
6.90166e-13
1.03472e-11
2.81041e-11
-1.04173e-12
4.15807e-11
1.28571e-11
2.6028e-11
1.35018e-11
-1.44631e-11
1.00612e-11
-1.35271e-11
1.23222e-11
-2.23867e-11
-2.44525e-11
-8.91151e-13
-2.47448e-11
-1.95571e-11
-4.33166e-11
-3.31996e-11
-1.44406e-11
-3.56832e-11
1.82077e-12
-3.40096e-11
-6.48734e-12
1.01994e-11
-1.9353e-11
3.79384e-11
-2.57306e-11
1.8929e-11
-1.41714e-11
-5.22747e-12
3.55246e-13
4.71717e-12
-1.70987e-12
2.66313e-11
6.37892e-12
4.99634e-11
-3.12432e-12
5.05792e-11
-2.40023e-12
8.07949e-12
3.61607e-11
9.96984e-12
3.01714e-11
5.50851e-12
2.49679e-11
2.05513e-11
-3.95649e-12
-4.47517e-12
-2.79659e-11
1.52282e-12
-2.66586e-12
-2.97786e-11
-2.37515e-11
-8.09524e-11
-5.43856e-12
-4.36116e-11
-1.74457e-11
-3.03069e-11
-2.01285e-11
-7.43124e-12
-1.32068e-11
-1.10141e-11
-7.39405e-12
-3.13641e-11
8.74507e-12
-3.56355e-11
2.65676e-11
-8.23092e-12
6.65053e-12
-1.85509e-11
1.49961e-12
9.13257e-13
5.41853e-11
1.10057e-11
8.03543e-11
-2.13034e-11
4.50088e-11
1.2262e-11
1.66987e-11
2.37633e-11
5.42779e-13
2.36838e-11
-6.35013e-12
-5.56684e-12
-2.38104e-11
2.24812e-11
2.04899e-11
-3.03612e-11
-4.68552e-11
-9.63263e-12
1.5593e-12
-2.47093e-12
-9.29213e-11
-2.36136e-11
-4.7248e-11
7.46346e-13
1.48358e-11
3.92364e-12
4.94969e-12
1.18969e-11
-2.44205e-11
1.0739e-11
-6.22943e-11
9.13691e-12
-4.73687e-11
3.24146e-11
2.50567e-11
2.21792e-11
-1.68447e-11
7.35039e-12
8.33285e-12
7.71446e-11
-8.42597e-12
9.16775e-11
-2.00679e-11
5.09162e-11
1.81993e-11
1.36554e-11
1.17104e-11
-1.85273e-11
-1.21345e-11
-5.01898e-11
1.39767e-11
-2.1025e-11
-2.80823e-11
2.54794e-11
5.6271e-11
1.87734e-11
-8.23963e-11
-1.68996e-10
1.28513e-11
1.14671e-11
-2.52714e-12
-5.49723e-11
-3.00065e-11
2.45862e-11
1.41407e-11
6.69266e-11
3.97756e-11
1.12414e-12
2.15447e-11
-6.7111e-11
8.45826e-12
-4.5714e-11
3.43318e-11
3.41155e-11
3.65955e-11
-2.4395e-12
1.94002e-11
5.1846e-12
8.06457e-11
-2.48184e-11
9.0714e-11
-1.21825e-11
5.62456e-11
1.75718e-11
1.6712e-11
-1.91511e-11
-4.04846e-11
-2.97252e-11
-6.7401e-11
3.20253e-11
4.19062e-11
-3.36697e-11
-3.59433e-11
-6.83451e-11
9.53909e-11
1.26263e-10
-5.25755e-11
-9.62143e-11
-1.86839e-10
3.01394e-11
4.72059e-11
1.1404e-11
1.49778e-11
-2.48239e-11
2.51341e-11
1.64706e-11
1.5563e-11
4.46987e-11
-5.30665e-11
4.77464e-11
-4.56723e-11
2.78516e-11
3.73668e-11
3.71471e-11
6.26692e-12
2.97002e-11
-4.66695e-12
7.16695e-11
-3.42291e-11
7.68732e-11
-2.94624e-12
6.26594e-11
4.46041e-12
1.56091e-11
-5.58657e-11
-4.82613e-11
3.39469e-11
-5.95368e-12
-8.15005e-11
-4.57842e-11
1.18333e-10
1.43408e-10
-1.79302e-10
-3.8019e-10
7.36702e-11
4.34425e-10
1.08109e-10
-2.58857e-10
-7.08131e-11
-1.86164e-10
1.67012e-11
4.18367e-11
2.21444e-11
3.02541e-11
1.34632e-11
-9.72613e-12
3.78568e-11
-5.20541e-11
4.80446e-11
-4.23445e-11
1.97272e-11
1.89782e-11
2.34078e-11
1.679e-12
3.13015e-11
-2.06095e-11
5.30782e-11
-3.09245e-11
6.41474e-11
-7.01094e-13
5.78197e-11
-2.37461e-11
1.38522e-11
-2.13416e-11
-1.12708e-11
-3.61986e-11
-3.08587e-11
5.24455e-11
4.12615e-11
-2.49111e-10
-1.45653e-10
5.30752e-10
8.80802e-11
-6.65243e-10
-2.95384e-09
1.31818e-10
4.2437e-10
1.34894e-10
-5.1311e-11
9.01756e-12
-7.66384e-11
1.60565e-11
-6.94871e-12
2.35489e-11
-2.38745e-11
4.56398e-11
-5.65435e-11
4.91722e-11
-5.03694e-11
1.8205e-11
-3.24184e-12
8.88181e-12
-1.48823e-11
2.09034e-11
-3.01746e-11
3.54721e-11
-2.42129e-11
4.79078e-11
-8.40427e-12
5.0607e-11
-1.71171e-11
1.2893e-11
-4.15306e-11
-5.70765e-12
1.68455e-12
3.09726e-12
-5.63843e-11
-9.79953e-11
-3.54961e-10
1.77152e-10
4.21514e-10
4.69125e-10
5.43614e-10
4.45771e-08
-3.28498e-10
-6.39269e-10
7.32223e-11
2.44026e-10
9.49695e-11
9.4035e-11
4.54256e-11
1.02877e-11
4.58449e-11
-3.01535e-11
4.64161e-11
-3.69689e-11
4.64847e-11
-5.95146e-11
2.10376e-11
-2.3974e-11
-5.94382e-12
-2.88323e-11
7.65445e-12
-3.44123e-11
1.75583e-11
-1.39752e-11
3.30652e-11
-1.76094e-11
3.37242e-11
-1.68798e-11
1.30407e-11
-1.8388e-11
-1.84127e-11
-8.73479e-11
-3.23936e-11
-2.19923e-11
2.71489e-11
3.24889e-10
-1.53414e-10
-3.92531e-10
2.40657e-10
-5.64782e-10
-2.57112e-09
2.85502e-10
5.98887e-10
-1.23075e-10
5.69964e-11
-6.73107e-11
8.85174e-12
2.70233e-11
1.24593e-11
7.87865e-11
-7.07223e-12
3.62635e-11
-1.65342e-09
3.78851e-11
-5.38751e-11
2.95479e-11
-3.67529e-11
-7.39407e-10
-3.48351e-11
-3.62981e-12
-2.89661e-11
2.80446e-12
-8.96458e-12
6.95078e-12
-2.22919e-11
1.38218e-11
-2.34938e-11
-4.28728e-13
-3.80462e-11
-2.40917e-11
-5.34099e-11
-2.52975e-11
-8.95754e-11
-3.55994e-11
2.25944e-10
1.7025e-10
-5.20128e-10
-2.66874e-10
7.26428e-10
7.16107e-10
-2.33419e-10
-2.67957e-10
-1.79656e-10
-5.57305e-11
-3.15799e-11
6.97626e-11
2.47467e-11
4.1655e-11
4.38955e-11
2.78081e-11
6.96334e-11
2.56231e-11
2.45577e-11
-7.25363e-12
4.54111e-11
-2.292e-11
-1.52988e-11
-2.79855e-11
-1.37128e-11
-2.57197e-11
-1.36223e-11
-1.72181e-12
-2.03329e-11
-2.73394e-11
-2.32267e-11
-3.93704e-11
-5.19701e-12
-3.70378e-11
-2.21082e-11
-7.88274e-11
-8.71581e-12
5.8093e-11
5.18455e-12
-2.46145e-11
-5.79569e-12
2.3167e-10
1.10955e-11
-2.49614e-10
-2.78969e-11
1.70513e-11
1.20533e-10
-2.29953e-12
1.25714e-11
-5.51799e-11
2.30278e-13
1.02411e-11
1.52805e-11
3.53887e-11
3.6499e-11
2.10355e-11
2.85024e-11
9.32057e-12
1.0597e-11
4.63074e-11
-1.16332e-11
-1.16765e-11
-1.11695e-11
-2.22947e-11
-2.23438e-11
-3.07936e-11
-5.81041e-12
-4.53562e-11
-1.73992e-11
-5.47371e-11
-5.32781e-11
-2.86391e-11
-2.80048e-11
1.44594e-11
-5.34856e-11
6.99149e-12
3.76256e-11
3.24341e-11
-2.98145e-11
-1.90128e-10
-1.48243e-10
-1.91272e-11
-1.56931e-09
8.69256e-09
-1.59485e-10
-2.5894e-10
-3.12527e-11
-5.41443e-11
-3.62672e-11
-9.89367e-11
8.8791e-12
-3.60308e-11
9.70231e-12
1.50788e-11
9.81033e-12
3.18018e-11
1.70091e-11
2.7104e-11
4.53768e-11
-7.84483e-12
-1.19409e-11
8.43373e-12
-2.64718e-11
-1.69424e-11
-5.0422e-11
-1.92493e-11
-6.57797e-11
-1.70655e-11
-7.24812e-11
-3.78241e-11
-3.48229e-11
-3.17254e-11
1.50312e-11
8.00266e-12
4.37047e-11
-1.27592e-10
-8.57777e-12
1.18311e-10
4.24431e-11
5.40205e-12
-1.79986e-10
1.53598e-09
2.67076e-10
1.90276e-10
2.25333e-10
-4.29959e-11
-1.11506e-10
5.23195e-11
-2.07815e-11
4.44049e-11
-2.25403e-11
1.07878e-11
7.73508e-12
2.26844e-11
4.18831e-11
3.96057e-11
4.29486e-11
4.53833e-11
-1.75259e-11
-2.1183e-11
2.17945e-11
-2.562e-11
-8.6169e-12
-7.15525e-11
-3.35483e-11
-8.02766e-11
-1.53854e-11
-6.64025e-11
-2.37333e-11
-3.18639e-11
-2.29516e-12
1.89393e-11
-6.74127e-12
1.76397e-11
-5.26114e-11
1.74237e-11
-1.40572e-10
3.54035e-11
7.99562e-11
2.6037e-11
9.50814e-11
1.19263e-10
-1.72987e-10
-7.33682e-11
6.65764e-11
1.0129e-10
7.94432e-11
1.90897e-11
4.98316e-11
-8.85671e-12
2.60344e-11
1.82707e-11
2.58752e-11
5.8521e-11
4.85126e-11
3.89512e-11
4.02292e-11
-4.25983e-11
-3.82825e-11
2.12678e-11
-2.27841e-11
4.67394e-12
-8.10588e-11
-3.40203e-11
-9.01626e-11
-2.11216e-11
-5.27166e-11
-5.82585e-12
-1.41114e-11
-4.71949e-12
1.56093e-11
1.12359e-11
4.96918e-12
-3.69803e-11
-2.07244e-11
-5.31772e-11
-7.70112e-12
9.07194e-12
1.10473e-10
-4.60689e-11
3.45052e-10
6.35724e-11
1.95163e-10
4.35243e-11
1.09457e-10
5.05749e-11
3.44042e-11
3.96049e-11
6.9136e-13
1.62408e-11
1.60275e-11
1.60816e-11
5.83331e-11
4.17152e-11
3.53751e-11
3.7068e-11
-5.68133e-11
-4.83103e-11
1.34319e-11
-1.46224e-11
1.56642e-11
-7.57087e-11
-1.78061e-11
-8.87898e-11
-2.31598e-11
-5.00227e-11
-3.75241e-12
-5.98461e-12
-6.51516e-12
1.55231e-11
1.48698e-11
-1.56747e-12
-7.04752e-12
-4.38883e-11
-3.07566e-12
-4.37669e-11
-5.88531e-12
-4.40748e-13
-4.73737e-11
6.7359e-11
8.76453e-12
1.17427e-10
2.41899e-11
7.76624e-11
2.87692e-11
1.95054e-11
8.87913e-12
-1.21502e-11
-3.63584e-12
4.72714e-12
-1.6115e-12
5.08098e-11
2.20418e-11
4.02071e-11
3.45709e-11
-4.24404e-11
-4.05247e-11
3.42496e-12
-4.73911e-13
2.13074e-11
-5.77519e-11
2.70914e-12
-8.25555e-11
-1.58245e-11
-5.65986e-11
-3.74283e-12
-1.41949e-11
-7.68054e-12
8.82071e-12
1.09276e-11
7.75689e-12
9.45129e-12
-2.87657e-11
-4.02944e-13
-4.32323e-11
-2.47396e-11
-2.52115e-11
-1.12839e-12
4.41379e-11
-1.90205e-12
5.78233e-11
7.36814e-12
4.08512e-11
-8.1415e-12
-4.50887e-12
-2.10357e-11
-3.33088e-11
-1.71947e-11
-1.2416e-11
-1.54178e-11
4.13849e-11
5.35738e-12
4.93021e-11
3.39121e-11
-1.41948e-11
-2.31142e-11
-6.2187e-12
1.23958e-11
1.48394e-11
-3.38309e-11
1.70188e-11
-6.99275e-11
-3.03316e-12
-6.31296e-11
-1.02107e-12
-1.78044e-11
2.96741e-12
6.48492e-12
1.1278e-11
1.18472e-11
1.74229e-11
-3.21717e-12
-6.98794e-12
-1.8691e-11
-1.73127e-11
-1.75815e-11
-1.77966e-11
1.88614e-11
-9.625e-12
2.92399e-11
-2.08405e-12
1.75857e-11
-2.34099e-11
-1.98496e-11
-3.04931e-11
-3.71678e-11
-1.39064e-11
-1.61122e-11
-5.59494e-12
2.74201e-11
6.50279e-12
4.30965e-11
3.16939e-11
4.13034e-12
-8.20206e-12
-1.17003e-11
1.38672e-11
-1.33096e-12
-1.11404e-11
1.8957e-11
-4.14768e-11
1.85909e-11
-4.57971e-11
6.68409e-12
-1.51465e-11
1.31701e-11
7.37229e-12
1.89666e-11
9.59226e-12
1.98843e-11
7.02715e-12
-1.49959e-11
-3.54248e-14
-3.16746e-11
2.58327e-12
-1.04215e-11
8.16564e-12
7.95379e-12
1.80991e-11
-2.16671e-12
1.26611e-11
-3.41561e-11
-1.0384e-11
-3.5887e-11
-2.11569e-11
-5.98315e-12
-1.1974e-11
1.85683e-11
1.07985e-11
2.36762e-11
2.58955e-11
3.11814e-11
1.05247e-11
5.38787e-13
-1.41019e-11
-1.95502e-11
1.11518e-11
3.19616e-11
1.71389e-11
1.87114e-11
2.84181e-11
2.23529e-11
-1.57794e-11
-2.95584e-11
-1.56743e-11
6.50063e-12
-7.66643e-12
-3.39349e-11
-3.2607e-11
1.7401e-12
3.75774e-11
3.79256e-11
2.80409e-11
)
;

boundaryField
{
    sides
    {
        type            calculated;
        value           uniform 0;
    }
    inlet
    {
        type            calculated;
        value           uniform 0;
    }
    outlet
    {
        type            calculated;
        value           nonuniform List<scalar> 
20
(
4.23165e-12
3.48798e-11
5.79302e-11
4.49236e-11
1.45984e-11
-4.38111e-12
-4.08396e-12
1.41638e-11
3.76539e-11
5.85955e-11
7.01211e-11
6.33382e-11
4.38381e-11
2.39798e-11
2.02846e-11
3.20992e-11
4.42033e-11
4.56232e-11
3.992e-11
3.22455e-11
)
;
    }
    frontAndBack
    {
        type            empty;
        value           nonuniform List<scalar> 0();
    }
}


// ************************************************************************* //
