/*--------------------------------*- C++ -*----------------------------------*\
  =========                 |
  \\      /  F ield         | OpenFOAM: The Open Source CFD Toolbox
   \\    /   O peration     | Website:  https://openfoam.org
    \\  /    A nd           | Version:  9
     \\/     M anipulation  |
\*---------------------------------------------------------------------------*/
FoamFile
{
    format      ascii;
    class       volVectorField;
    location    "55";
    object      ddtCorrDdt0(hU);
}
// * * * * * * * * * * * * * * * * * * * * * * * * * * * * * * * * * * * * * //

dimensions      [0 2 -2 0 0 0 0];

internalField   nonuniform List<vector> 
400
(
(-1.63862e-09 2.87353e-09 0)
(5.91785e-09 2.50232e-09 0)
(2.51691e-09 2.02128e-09 0)
(-5.65296e-10 2.67213e-09 0)
(-8.87265e-10 7.54245e-10 0)
(3.29817e-09 -4.01242e-10 0)
(6.83988e-09 1.13212e-09 0)
(7.98118e-09 1.76683e-09 0)
(6.87276e-10 2.36315e-09 0)
(-3.1212e-09 1.85115e-09 0)
(-4.50761e-09 -2.59515e-09 0)
(-2.99938e-09 -2.37414e-09 0)
(-1.57902e-10 -4.07277e-09 0)
(-4.51983e-09 -1.34155e-09 0)
(-6.12928e-09 1.80918e-10 0)
(-7.62654e-09 -5.81481e-10 0)
(-4.84967e-09 -1.2946e-09 0)
(4.62465e-09 -3.17136e-09 0)
(7.89789e-09 -4.12251e-09 0)
(1.70884e-09 -2.02257e-09 0)
(-2.48171e-09 3.52858e-09 0)
(1.47543e-09 5.24317e-09 0)
(1.01744e-09 6.69526e-09 0)
(-9.42986e-10 7.47461e-09 0)
(-5.97185e-10 1.72688e-09 0)
(2.78492e-09 6.32262e-10 0)
(7.02149e-09 1.61873e-09 0)
(5.69212e-09 3.65121e-09 0)
(3.0607e-09 2.07579e-09 0)
(-4.71424e-09 2.08962e-09 0)
(-2.90229e-09 -6.24633e-09 0)
(-2.80738e-09 -9.5871e-09 0)
(-2.40567e-09 -8.00234e-09 0)
(-8.41603e-10 -4.09398e-09 0)
(-3.82487e-09 -3.69063e-10 0)
(-3.94822e-09 -1.4979e-09 0)
(-2.74151e-09 -4.87374e-09 0)
(1.4692e-11 -6.16132e-09 0)
(3.65478e-09 -2.43171e-09 0)
(6.45364e-09 -3.28566e-10 0)
(-5.41956e-10 7.85373e-10 0)
(-8.25981e-10 8.27146e-09 0)
(1.73954e-10 1.28763e-08 0)
(-1.34139e-09 9.492e-09 0)
(-4.6729e-10 2.48227e-09 0)
(1.85223e-09 7.98794e-10 0)
(5.34929e-09 -3.07495e-10 0)
(2.4196e-09 8.63314e-11 0)
(1.90303e-09 2.09331e-09 0)
(-4.06772e-10 -4.07662e-09 0)
(-6.19036e-09 -4.31261e-09 0)
(1.04347e-09 -1.67508e-08 0)
(-3.03959e-09 -8.8924e-09 0)
(-1.54679e-09 -1.12828e-09 0)
(6.78141e-10 -3.40971e-10 0)
(4.57351e-10 -3.25167e-09 0)
(1.61347e-09 -8.27592e-09 0)
(3.03871e-09 -6.88371e-09 0)
(4.66179e-09 1.53033e-09 0)
(8.36128e-09 3.00943e-09 0)
(1.71362e-09 7.93319e-10 0)
(-1.21728e-09 1.31592e-08 0)
(-9.97272e-10 1.74556e-08 0)
(-1.77463e-09 9.98865e-09 0)
(-1.27336e-09 3.01945e-09 0)
(1.5755e-09 -2.08231e-09 0)
(9.23206e-11 -5.47778e-09 0)
(3.13802e-09 -4.00642e-09 0)
(-4.24853e-09 4.99378e-09 0)
(4.46878e-09 -2.40346e-09 0)
(-2.46344e-09 -1.67868e-08 0)
(-9.06694e-09 -8.81146e-09 0)
(4.60051e-09 -1.04725e-08 0)
(-4.71708e-09 4.29922e-09 0)
(-2.68608e-09 7.36872e-09 0)
(5.48608e-09 -2.71941e-09 0)
(7.25073e-09 -1.35789e-08 0)
(3.6295e-09 -9.97235e-09 0)
(3.13978e-09 5.60189e-09 0)
(8.0643e-09 6.48562e-09 0)
(2.54157e-09 2.48415e-09 0)
(-1.09121e-09 1.56048e-08 0)
(-1.67361e-09 1.84019e-08 0)
(-2.27801e-09 1.11034e-08 0)
(-1.02882e-09 3.2287e-09 0)
(-2.28228e-09 -5.66628e-09 0)
(-1.14611e-09 -1.13758e-08 0)
(-3.46808e-09 1.96336e-09 0)
(5.42698e-09 -1.02916e-09 0)
(-1.87966e-08 1.00304e-08 0)
(1.41641e-08 -2.23312e-08 0)
(2.40622e-10 -1.45461e-08 0)
(-8.236e-09 -9.74849e-10 0)
(7.34443e-09 3.05102e-09 0)
(-3.12205e-09 9.72966e-09 0)
(-2.32946e-09 1.69197e-09 0)
(7.21167e-09 -1.29466e-08 0)
(1.08618e-08 -9.73161e-09 0)
(6.76303e-09 8.62497e-09 0)
(3.90943e-09 8.36238e-09 0)
(1.61462e-09 4.69095e-09 0)
(-1.41315e-09 1.51313e-08 0)
(-2.72861e-09 1.69483e-08 0)
(-1.87585e-09 1.20865e-08 0)
(-2.66633e-09 3.38309e-09 0)
(-3.87953e-09 -8.5666e-09 0)
(-2.69076e-09 -7.46497e-09 0)
(-4.48534e-09 9.62591e-11 0)
(1.01498e-09 8.65499e-09 0)
(1.17293e-09 -2.17995e-08 0)
(-2.25563e-08 3.08015e-08 0)
(3.11499e-08 -4.23131e-08 0)
(-1.27696e-09 -1.16154e-08 0)
(-7.37928e-09 6.05454e-09 0)
(5.68676e-09 6.14899e-09 0)
(3.21347e-09 1.07498e-09 0)
(5.60354e-09 -1.01748e-08 0)
(8.59113e-09 -8.47347e-09 0)
(5.97354e-09 5.01411e-09 0)
(1.96549e-09 5.90504e-09 0)
(-2.17141e-11 5.96988e-09 0)
(-3.44235e-09 1.25033e-08 0)
(-3.52056e-09 1.42782e-08 0)
(-2.16043e-09 1.2123e-08 0)
(-3.19988e-09 2.98216e-09 0)
(-4.45504e-09 -5.96274e-09 0)
(-6.04721e-09 -3.69394e-09 0)
(1.07524e-09 -9.1449e-10 0)
(-2.60969e-08 3.47687e-09 0)
(5.02657e-08 -3.70011e-08 0)
(-3.09413e-08 -1.66059e-08 0)
(-6.14881e-08 -5.24266e-09 0)
(4.11872e-08 -2.9971e-08 0)
(1.16944e-08 -3.2227e-09 0)
(3.9746e-10 3.47825e-09 0)
(4.88425e-09 -3.41324e-09 0)
(7.50293e-09 -1.21656e-08 0)
(8.67175e-09 -1.01226e-08 0)
(6.29127e-09 1.98564e-09 0)
(1.91136e-09 3.69668e-09 0)
(-1.83959e-09 5.23027e-09 0)
(-5.9387e-09 8.87542e-09 0)
(-4.34144e-09 1.11512e-08 0)
(-1.79937e-09 1.08199e-08 0)
(-3.30146e-09 2.7163e-09 0)
(-5.24331e-09 -2.00339e-09 0)
(-5.4114e-09 -2.20492e-09 0)
(-9.69687e-09 -2.76147e-09 0)
(-1.78709e-08 -4.68255e-09 0)
(-6.77582e-08 4.55515e-08 0)
(2.04833e-07 -2.37818e-08 0)
(-3.88341e-08 7.94492e-09 0)
(-2.29995e-08 1.80208e-08 0)
(2.31421e-08 -7.56941e-11 0)
(1.32403e-08 -2.41561e-09 0)
(8.7866e-09 -7.63583e-09 0)
(1.00247e-08 -1.15005e-08 0)
(8.17777e-09 -1.12267e-08 0)
(6.09063e-09 -3.08858e-09 0)
(4.24539e-09 4.45829e-10 0)
(-2.75756e-09 2.9884e-09 0)
(-7.89492e-09 5.30833e-09 0)
(-4.29442e-09 7.95386e-09 0)
(-1.67322e-09 8.36083e-09 0)
(-2.79015e-09 2.58165e-09 0)
(-5.79851e-09 -2.20707e-09 0)
(-8.63495e-09 -2.52476e-09 0)
(-6.77244e-09 -5.11769e-09 0)
(6.37362e-09 -3.22045e-09 0)
(6.82886e-08 5.08928e-08 0)
(-2.02302e-07 -1.96465e-08 0)
(3.15218e-08 2.30094e-08 0)
(1.15055e-08 2.65007e-08 0)
(-2.61796e-08 7.24542e-09 0)
(-2.52205e-09 -3.40725e-10 0)
(1.32981e-08 -5.24469e-09 0)
(1.10793e-08 -1.23937e-08 0)
(6.36701e-09 -1.13431e-08 0)
(5.98439e-09 -7.54089e-09 0)
(7.69839e-09 -2.03924e-09 0)
(-2.94119e-09 4.928e-10 0)
(-8.0857e-09 2.05975e-09 0)
(-3.91055e-09 3.93675e-09 0)
(-1.49105e-09 4.69951e-09 0)
(-3.90525e-09 1.37952e-09 0)
(-6.75966e-09 -3.73437e-09 0)
(-9.28084e-09 -5.93123e-09 0)
(-1.32735e-08 -3.11321e-09 0)
(2.16827e-08 4.95567e-09 0)
(-5.58995e-08 -1.73509e-08 0)
(4.26973e-08 1.20574e-08 0)
(5.80766e-08 1.11053e-08 0)
(-5.82466e-08 -6.90575e-09 0)
(-1.89794e-08 7.60198e-09 0)
(1.6881e-09 6.42306e-09 0)
(7.62849e-09 2.63321e-09 0)
(1.29578e-08 -4.53536e-09 0)
(7.19869e-09 -6.38185e-09 0)
(6.47977e-09 -7.44331e-09 0)
(1.12086e-08 -3.12405e-09 0)
(-2.49377e-09 -1.89737e-09 0)
(-6.96762e-09 -1.17823e-09 0)
(-3.12465e-09 -1.38972e-09 0)
(-1.74097e-09 -9.43004e-10 0)
(-5.15405e-09 -2.6705e-10 0)
(-8.26371e-09 -3.58986e-09 0)
(-1.01108e-08 -3.55611e-09 0)
(-2.66551e-09 -3.18415e-09 0)
(-3.295e-09 1.26852e-08 0)
(2.7801e-08 -1.86779e-08 0)
(-1.97031e-10 1.05936e-07 0)
(-2.86455e-08 -3.22362e-09 0)
(5.29952e-09 7.94723e-10 0)
(-8.60514e-09 9.07747e-09 0)
(-4.36407e-09 5.8471e-09 0)
(6.56373e-09 5.09462e-09 0)
(5.77985e-09 4.35528e-09 0)
(1.06369e-09 8.52945e-11 0)
(5.16096e-09 -4.22563e-09 0)
(1.269e-08 -2.81043e-09 0)
(-1.33954e-09 -3.77465e-09 0)
(-4.94758e-09 -4.44842e-09 0)
(-2.5922e-09 -6.37237e-09 0)
(-1.80235e-09 -7.58355e-09 0)
(-5.72383e-09 -3.32681e-09 0)
(-7.6418e-09 -4.27977e-10 0)
(-8.25929e-09 -2.65195e-10 0)
(-5.41556e-11 4.38844e-09 0)
(-3.76182e-09 -1.75574e-08 0)
(6.91928e-08 1.68556e-09 0)
(-3.36714e-07 -1.05222e-07 0)
(-9.61896e-08 -2.09287e-08 0)
(-1.52153e-08 -4.06113e-09 0)
(-7.26112e-09 -1.15028e-08 0)
(-2.61428e-09 -1.91637e-09 0)
(3.35528e-09 3.49686e-09 0)
(2.14191e-09 4.80188e-09 0)
(8.39251e-10 3.98433e-09 0)
(5.85821e-09 -1.54827e-09 0)
(1.18878e-08 -2.15185e-09 0)
(3.60088e-10 -4.81413e-09 0)
(-2.52327e-09 -8.00975e-09 0)
(-2.84394e-09 -1.08867e-08 0)
(-2.66942e-09 -1.25165e-08 0)
(-5.24914e-09 -6.49141e-09 0)
(-5.97277e-09 2.0365e-09 0)
(-4.79034e-09 4.63121e-09 0)
(-1.16039e-08 3.33904e-09 0)
(-1.52199e-09 -1.25117e-08 0)
(-6.32837e-08 -1.65793e-08 0)
(3.02277e-07 -8.66097e-08 0)
(1.09332e-07 -1.76314e-08 0)
(6.09806e-09 -1.61903e-08 0)
(-8.72431e-10 -1.37491e-08 0)
(1.18686e-08 -5.79453e-09 0)
(6.26447e-09 1.97763e-09 0)
(3.10453e-09 9.60593e-09 0)
(4.92348e-09 8.03344e-09 0)
(8.43925e-09 -2.20531e-09 0)
(9.4732e-09 -3.26747e-09 0)
(2.47951e-09 -5.0116e-09 0)
(-7.29374e-10 -1.2066e-08 0)
(-2.9649e-09 -1.46992e-08 0)
(-3.53871e-09 -1.39165e-08 0)
(-4.16099e-09 -6.77793e-09 0)
(-3.11024e-09 3.04167e-09 0)
(-2.54778e-09 5.79108e-09 0)
(-7.47682e-09 9.54509e-10 0)
(-7.88927e-09 6.54531e-09 0)
(-2.7487e-08 -1.11416e-08 0)
(4.44624e-08 8.55519e-08 0)
(-2.60301e-08 2.59368e-08 0)
(-8.89631e-09 4.03193e-09 0)
(1.79946e-08 9.12918e-10 0)
(1.23777e-08 -3.28177e-09 0)
(7.57305e-09 2.74889e-09 0)
(5.77254e-09 1.23483e-08 0)
(6.72133e-09 9.03334e-09 0)
(8.56696e-09 -5.93496e-09 0)
(6.74347e-09 -6.11974e-09 0)
(4.10975e-09 -4.61311e-09 0)
(5.49196e-10 -1.51007e-08 0)
(-2.43124e-09 -1.71986e-08 0)
(-3.54731e-09 -1.21874e-08 0)
(-3.6903e-09 -4.73011e-09 0)
(-1.32318e-09 3.52325e-09 0)
(-1.00705e-09 2.20626e-09 0)
(-2.18736e-09 -1.32799e-09 0)
(-9.80544e-09 9.71055e-10 0)
(5.79139e-10 1.74356e-08 0)
(-7.73691e-09 2.49344e-08 0)
(2.18539e-09 1.89545e-08 0)
(1.22625e-08 2.37938e-08 0)
(8.6558e-09 6.21241e-09 0)
(8.83994e-09 -5.70165e-10 0)
(5.29922e-09 3.44711e-09 0)
(4.001e-09 1.14744e-08 0)
(6.11138e-09 7.63435e-09 0)
(7.0546e-09 -9.77475e-09 0)
(5.87956e-09 -8.86232e-09 0)
(4.77975e-09 -3.56122e-09 0)
(1.24047e-09 -1.56364e-08 0)
(-6.58754e-10 -1.81203e-08 0)
(-2.73842e-09 -1.07192e-08 0)
(-3.09451e-09 -2.18337e-09 0)
(-1.67046e-09 3.28338e-09 0)
(6.34954e-10 4.52689e-10 0)
(3.03747e-11 -6.79208e-09 0)
(-6.40698e-10 -5.22597e-09 0)
(1.40685e-09 8.66623e-09 0)
(-8.48212e-09 1.91382e-08 0)
(-2.07507e-09 2.99977e-08 0)
(3.27797e-09 1.8366e-08 0)
(6.4204e-09 5.75298e-09 0)
(3.06855e-09 -1.22955e-09 0)
(-7.55045e-10 1.68971e-09 0)
(4.59798e-10 1.07989e-08 0)
(3.30152e-09 7.45943e-09 0)
(4.34724e-09 -1.05734e-08 0)
(6.77305e-09 -9.2914e-09 0)
(3.64439e-09 -1.38104e-09 0)
(1.56316e-09 -1.34092e-08 0)
(1.32336e-09 -1.73293e-08 0)
(-6.66426e-10 -1.09987e-08 0)
(-2.18491e-09 -2.20884e-09 0)
(-1.52805e-09 2.50451e-09 0)
(9.00192e-10 8.07272e-10 0)
(1.56577e-09 -7.02265e-09 0)
(1.08049e-09 -8.51826e-09 0)
(-3.3828e-09 -2.89843e-09 0)
(-2.52848e-09 7.06571e-09 0)
(7.55429e-10 1.67191e-08 0)
(1.34924e-09 1.13804e-08 0)
(1.22698e-10 7.71611e-10 0)
(-3.81469e-09 -5.20742e-09 0)
(-4.56776e-09 -9.09783e-10 0)
(-2.68069e-09 9.33524e-09 0)
(-3.22941e-12 8.67569e-09 0)
(3.02447e-09 -6.36068e-09 0)
(7.91007e-09 -6.62228e-09 0)
(8.35296e-10 8.76769e-10 0)
(9.35163e-10 -9.69965e-09 0)
(2.3511e-09 -1.55205e-08 0)
(1.16481e-09 -1.21525e-08 0)
(-4.46267e-10 -3.33436e-09 0)
(-2.81829e-10 1.55063e-09 0)
(2.36094e-09 1.79489e-09 0)
(2.96197e-09 -3.48294e-09 0)
(6.90874e-10 -6.34125e-09 0)
(-3.18364e-09 -4.16407e-09 0)
(-3.16291e-09 4.35554e-09 0)
(-2.91708e-09 8.59093e-09 0)
(-5.2977e-10 5.32573e-09 0)
(-1.4837e-09 -2.79094e-09 0)
(-5.51239e-09 -6.85413e-09 0)
(-5.44913e-09 -2.66256e-09 0)
(-2.71759e-09 6.79048e-09 0)
(1.10839e-09 9.36526e-09 0)
(4.22968e-09 -5.43456e-10 0)
(7.23792e-09 -2.90958e-09 0)
(-2.67218e-09 2.65323e-09 0)
(-1.80835e-10 -4.27091e-09 0)
(2.05138e-09 -1.04989e-08 0)
(2.76115e-09 -1.05758e-08 0)
(1.95156e-09 -3.61465e-09 0)
(1.9699e-09 1.0519e-09 0)
(3.9352e-09 1.92191e-09 0)
(4.22891e-09 1.28827e-10 0)
(1.32616e-10 -1.69957e-09 0)
(-5.19643e-09 -6.80709e-10 0)
(-4.89851e-09 2.83175e-09 0)
(-4.14475e-11 5.5625e-09 0)
(1.91107e-09 4.10111e-09 0)
(-2.83667e-09 -2.0222e-09 0)
(-6.83299e-09 -5.23877e-09 0)
(-5.2222e-09 -2.55333e-09 0)
(-7.23834e-10 4.1437e-09 0)
(5.13537e-09 7.61372e-09 0)
(7.48305e-09 2.38565e-09 0)
(5.80381e-09 -4.98608e-10 0)
(-5.37246e-09 1.78259e-09 0)
(-1.60747e-09 -3.80805e-10 0)
(5.83378e-10 -3.26844e-09 0)
(2.98296e-09 -4.18692e-09 0)
(3.57118e-09 -1.81186e-09 0)
(3.82609e-09 3.24532e-10 0)
(5.52712e-09 8.8361e-10 0)
(5.49832e-09 9.87212e-10 0)
(1.11675e-10 5.59318e-10 0)
(-4.93877e-09 7.80119e-10 0)
(-4.96865e-09 2.53932e-09 0)
(-1.16551e-09 2.78617e-09 0)
(8.96267e-10 1.24746e-09 0)
(-2.929e-09 -1.11066e-09 0)
(-5.85139e-09 -1.92337e-09 0)
(-4.1788e-09 -9.85444e-10 0)
(1.0746e-09 1.35701e-09 0)
(7.99829e-09 3.08386e-09 0)
(9.6937e-09 1.61999e-09 0)
(4.3611e-09 1.84108e-10 0)
)
;

boundaryField
{
    sides
    {
        type            calculated;
        value           nonuniform List<vector> 
40
(
(-5.37246e-09 0 0)
(-1.60747e-09 0 0)
(5.83378e-10 0 0)
(2.98296e-09 0 0)
(3.57118e-09 0 0)
(3.82609e-09 0 0)
(5.52712e-09 0 0)
(5.49832e-09 0 0)
(1.11675e-10 0 0)
(-4.93877e-09 0 0)
(-4.96865e-09 0 0)
(-1.16551e-09 0 0)
(8.96267e-10 0 0)
(-2.929e-09 0 0)
(-5.85139e-09 0 0)
(-4.1788e-09 0 0)
(1.0746e-09 0 0)
(7.99829e-09 0 0)
(9.6937e-09 0 0)
(4.3611e-09 0 0)
(-1.63862e-09 0 0)
(5.91785e-09 0 0)
(2.51691e-09 0 0)
(-5.65296e-10 0 0)
(-8.87265e-10 0 0)
(3.29817e-09 0 0)
(6.83988e-09 0 0)
(7.98118e-09 0 0)
(6.87276e-10 0 0)
(-3.1212e-09 0 0)
(-4.50761e-09 0 0)
(-2.99938e-09 0 0)
(-1.57902e-10 0 0)
(-4.51983e-09 0 0)
(-6.12928e-09 0 0)
(-7.62654e-09 0 0)
(-4.84967e-09 0 0)
(4.62465e-09 0 0)
(7.89789e-09 0 0)
(1.70884e-09 0 0)
)
;
    }
    inlet
    {
        type            calculated;
        value           uniform (0 0 0);
    }
    outlet
    {
        type            calculated;
        value           nonuniform List<vector> 
20
(
(1.70884e-09 -2.02257e-09 0)
(6.45364e-09 -3.28566e-10 0)
(8.36128e-09 3.00943e-09 0)
(8.0643e-09 6.48562e-09 0)
(3.90943e-09 8.36238e-09 0)
(1.96549e-09 5.90504e-09 0)
(1.91136e-09 3.69668e-09 0)
(4.24539e-09 4.45829e-10 0)
(7.69839e-09 -2.03924e-09 0)
(1.12086e-08 -3.12405e-09 0)
(1.269e-08 -2.81043e-09 0)
(1.18878e-08 -2.15185e-09 0)
(9.4732e-09 -3.26747e-09 0)
(6.74347e-09 -6.11974e-09 0)
(5.87956e-09 -8.86232e-09 0)
(6.77305e-09 -9.2914e-09 0)
(7.91007e-09 -6.62228e-09 0)
(7.23792e-09 -2.90958e-09 0)
(5.80381e-09 -4.98608e-10 0)
(4.3611e-09 1.84108e-10 0)
)
;
    }
    frontAndBack
    {
        type            empty;
    }
}


// ************************************************************************* //
