/*--------------------------------*- C++ -*----------------------------------*\
  =========                 |
  \\      /  F ield         | OpenFOAM: The Open Source CFD Toolbox
   \\    /   O peration     | Website:  https://openfoam.org
    \\  /    A nd           | Version:  9
     \\/     M anipulation  |
\*---------------------------------------------------------------------------*/
FoamFile
{
    format      ascii;
    class       volVectorField;
    location    "55";
    object      hU;
}
// * * * * * * * * * * * * * * * * * * * * * * * * * * * * * * * * * * * * * //

dimensions      [0 2 -1 0 0 0 0];

internalField   nonuniform List<vector> 
400
(
(0.001 -2.29817e-08 0)
(0.00100004 -6.93376e-08 0)
(0.00100012 -1.12909e-07 0)
(0.00100024 -1.52733e-07 0)
(0.00100039 -1.8777e-07 0)
(0.00100058 -2.16591e-07 0)
(0.00100078 -2.35701e-07 0)
(0.00100099 -2.43673e-07 0)
(0.00100118 -2.35014e-07 0)
(0.00100132 -2.10738e-07 0)
(0.0010014 -1.68121e-07 0)
(0.00100139 -1.27675e-07 0)
(0.00100128 -9.80167e-08 0)
(0.0010011 -9.2308e-08 0)
(0.00100086 -9.97926e-08 0)
(0.00100063 -1.36242e-07 0)
(0.00100043 -1.56662e-07 0)
(0.00100033 -2.00896e-07 0)
(0.00100025 -1.88841e-07 0)
(0.00100032 -2.68638e-07 0)
(0.001 -2.39088e-08 0)
(0.00100005 -7.57547e-08 0)
(0.00100013 -1.26932e-07 0)
(0.00100025 -1.74363e-07 0)
(0.00100042 -2.14217e-07 0)
(0.00100062 -2.39709e-07 0)
(0.00100084 -2.42775e-07 0)
(0.00100108 -2.16102e-07 0)
(0.00100129 -1.51527e-07 0)
(0.00100147 -4.65392e-08 0)
(0.00100156 9.3998e-08 0)
(0.00100154 2.49176e-07 0)
(0.00100141 3.9249e-07 0)
(0.00100118 4.78613e-07 0)
(0.00100091 5.04647e-07 0)
(0.00100066 4.49836e-07 0)
(0.00100047 3.77835e-07 0)
(0.00100035 2.60176e-07 0)
(0.00100032 2.08485e-07 0)
(0.00100028 8.15115e-08 0)
(0.001 -4.93326e-08 0)
(0.00100004 -1.54718e-07 0)
(0.00100013 -2.64389e-07 0)
(0.00100025 -3.7381e-07 0)
(0.00100043 -4.7465e-07 0)
(0.00100065 -5.54349e-07 0)
(0.0010009 -5.99017e-07 0)
(0.00100117 -5.91774e-07 0)
(0.00100143 -5.14061e-07 0)
(0.00100164 -3.51097e-07 0)
(0.00100176 -1.10117e-07 0)
(0.00100175 1.64134e-07 0)
(0.00100159 4.06105e-07 0)
(0.0010013 5.23052e-07 0)
(0.00100094 4.98786e-07 0)
(0.00100061 3.5064e-07 0)
(0.00100036 2.01646e-07 0)
(0.00100025 4.95436e-08 0)
(0.00100021 1.04807e-09 0)
(0.00100028 -1.16292e-07 0)
(0.001 -7.0119e-08 0)
(0.00100004 -2.17031e-07 0)
(0.00100013 -3.71588e-07 0)
(0.00100026 -5.30604e-07 0)
(0.00100045 -6.81839e-07 0)
(0.00100069 -8.08402e-07 0)
(0.001001 -8.83736e-07 0)
(0.00100134 -8.78989e-07 0)
(0.00100171 -7.51016e-07 0)
(0.00100202 -4.75143e-07 0)
(0.00100221 -2.46401e-08 0)
(0.00100218 4.95099e-07 0)
(0.00100192 9.41674e-07 0)
(0.00100145 1.14334e-06 0)
(0.00100096 1.05368e-06 0)
(0.00100057 7.38123e-07 0)
(0.0010004 4.20727e-07 0)
(0.00100034 1.73527e-07 0)
(0.00100039 1.07141e-07 0)
(0.00100033 1.63519e-09 0)
(0.001 -8.75371e-08 0)
(0.00100004 -2.72302e-07 0)
(0.00100012 -4.73347e-07 0)
(0.00100025 -6.93913e-07 0)
(0.00100044 -9.21731e-07 0)
(0.00100072 -1.13753e-06 0)
(0.00100109 -1.29345e-06 0)
(0.00100155 -1.32975e-06 0)
(0.00100206 -1.17098e-06 0)
(0.00100256 -7.78257e-07 0)
(0.0010029 -1.73429e-07 0)
(0.00100288 5.79905e-07 0)
(0.00100243 1.23596e-06 0)
(0.00100166 1.51522e-06 0)
(0.00100085 1.37413e-06 0)
(0.0010003 9.5904e-07 0)
(0.00100012 5.77101e-07 0)
(0.00100021 3.17753e-07 0)
(0.00100035 2.6826e-07 0)
(0.00100042 1.69544e-07 0)
(0.001 -9.99986e-08 0)
(0.00100003 -3.13089e-07 0)
(0.00100009 -5.58828e-07 0)
(0.00100019 -8.44702e-07 0)
(0.00100038 -1.17373e-06 0)
(0.00100068 -1.52362e-06 0)
(0.00100115 -1.85355e-06 0)
(0.00100178 -2.04639e-06 0)
(0.00100254 -1.9069e-06 0)
(0.00100326 -1.20189e-06 0)
(0.00100376 8.31101e-08 0)
(0.00100377 1.54115e-06 0)
(0.00100309 2.43807e-06 0)
(0.00100191 2.30805e-06 0)
(0.00100081 1.42813e-06 0)
(0.00100018 4.86324e-07 0)
(0.00100016 8.25924e-09 0)
(0.00100036 -8.37446e-08 0)
(0.00100063 6.47066e-08 0)
(0.00100053 5.14558e-08 0)
(0.001 -9.9625e-08 0)
(0.001 -3.28995e-07 0)
(0.00100002 -5.99441e-07 0)
(0.00100008 -9.62363e-07 0)
(0.00100021 -1.39366e-06 0)
(0.00100048 -1.94519e-06 0)
(0.001001 -2.48395e-06 0)
(0.00100188 -3.07718e-06 0)
(0.00100321 -3.22937e-06 0)
(0.00100473 -2.88288e-06 0)
(0.00100573 -6.73425e-07 0)
(0.00100535 2.55431e-06 0)
(0.00100349 4.83002e-06 0)
(0.00100112 4.73868e-06 0)
(0.000999601 3.02576e-06 0)
(0.000999363 1.25696e-06 0)
(0.000999996 4.25962e-07 0)
(0.00100055 3.28472e-07 0)
(0.00100092 5.66492e-07 0)
(0.00100065 5.35483e-07 0)
(0.000999995 -9.03064e-08 0)
(0.000999969 -2.85625e-07 0)
(0.000999909 -5.75535e-07 0)
(0.000999876 -9.57484e-07 0)
(0.000999877 -1.57898e-06 0)
(0.00100009 -2.34416e-06 0)
(0.0010005 -3.39796e-06 0)
(0.00100152 -4.11894e-06 0)
(0.00100308 -4.36951e-06 0)
(0.00100601 -2.5459e-06 0)
(0.0010091 7.53481e-07 0)
(0.00100914 4.27139e-06 0)
(0.0010055 4.72343e-06 0)
(0.00100073 2.78381e-06 0)
(0.000998144 7.32567e-07 0)
(0.000998266 -2.81194e-07 0)
(0.000999788 -2.90825e-07 0)
(0.00100086 -9.41617e-09 0)
(0.00100132 2.14635e-07 0)
(0.00100084 1.03947e-07 0)
(0.000999994 -4.79588e-08 0)
(0.000999916 -2.0228e-07 0)
(0.000999759 -3.86176e-07 0)
(0.000999532 -7.35979e-07 0)
(0.000999286 -1.34001e-06 0)
(0.000999209 -2.4815e-06 0)
(0.000999705 -4.68505e-06 0)
(0.00100139 -8.06528e-06 0)
(0.00100491 -1.32834e-05 0)
(0.00100958 -1.49085e-05 0)
(0.00101189 3.84268e-06 0)
(0.00100893 1.87349e-05 0)
(0.0010022 1.57861e-05 0)
(0.000997558 5.74318e-06 0)
(0.000996879 -3.17759e-07 0)
(0.000998453 -1.26775e-06 0)
(0.00100026 -9.86743e-08 0)
(0.00100099 6.33735e-07 0)
(0.00100106 6.53026e-07 0)
(0.00100053 2.45048e-07 0)
(0.000999802 -1.9628e-08 0)
(0.00100017 -6.67654e-08 0)
(0.000999219 -1.52189e-07 0)
(0.000999906 -2.50037e-07 0)
(0.00099752 -5.938e-07 0)
(0.000998841 -1.13253e-06 0)
(0.000993344 -2.88397e-06 0)
(0.000997528 -5.59243e-06 0)
(0.000991667 -1.15412e-05 0)
(0.000915828 -1.2706e-05 0)
(0.000951466 2.75015e-07 0)
(0.00101022 1.46396e-05 0)
(0.000990939 1.30849e-05 0)
(0.000983967 5.14145e-06 0)
(0.000989579 1.9328e-07 0)
(0.000996272 -7.83916e-07 0)
(0.000999226 -1.14179e-07 0)
(0.000999401 2.46815e-07 0)
(0.000998639 1.74262e-07 0)
(0.000998496 -1.83454e-07 0)
(0.000999803 1.21399e-08 0)
(0.00100017 4.426e-08 0)
(0.000999219 1.15623e-07 0)
(0.000999904 1.98209e-07 0)
(0.000997518 5.27682e-07 0)
(0.000998836 1.04928e-06 0)
(0.000993336 2.7841e-06 0)
(0.000997517 5.47212e-06 0)
(0.000991649 1.13974e-05 0)
(0.000915809 1.25483e-05 0)
(0.000951426 -4.62301e-07 0)
(0.00101019 -1.49068e-05 0)
(0.000990937 -1.34099e-05 0)
(0.000983958 -5.53739e-06 0)
(0.000989559 -6.50025e-07 0)
(0.000996234 2.46683e-07 0)
(0.000999184 -4.73337e-07 0)
(0.000999356 -1.00442e-06 0)
(0.000998625 -9.89712e-07 0)
(0.000998446 -8.87116e-07 0)
(0.000999994 4.08533e-08 0)
(0.000999916 1.8076e-07 0)
(0.000999758 3.5053e-07 0)
(0.000999532 6.85018e-07 0)
(0.000999284 1.27434e-06 0)
(0.000999208 2.3983e-06 0)
(0.000999699 4.58466e-06 0)
(0.00100139 7.93969e-06 0)
(0.0010049 1.31298e-05 0)
(0.00100958 1.47174e-05 0)
(0.00101189 -4.07749e-06 0)
(0.00100888 -1.90116e-05 0)
(0.00100213 -1.61014e-05 0)
(0.00099747 -6.12784e-06 0)
(0.000996807 -8.60848e-08 0)
(0.000998392 7.75587e-07 0)
(0.00100015 -4.26708e-07 0)
(0.00100084 -1.30703e-06 0)
(0.00100087 -1.38105e-06 0)
(0.00100036 -1.24907e-06 0)
(0.000999995 8.38132e-08 0)
(0.000999969 2.65531e-07 0)
(0.000999908 5.4093e-07 0)
(0.000999872 9.07516e-07 0)
(0.000999869 1.51098e-06 0)
(0.00100008 2.25722e-06 0)
(0.00100048 3.28782e-06 0)
(0.00100148 3.98628e-06 0)
(0.00100303 4.20915e-06 0)
(0.00100593 2.36341e-06 0)
(0.001009 -9.8989e-07 0)
(0.00100907 -4.54594e-06 0)
(0.00100542 -5.02669e-06 0)
(0.00100066 -3.13488e-06 0)
(0.000998052 -1.13257e-06 0)
(0.000998126 -2.49597e-07 0)
(0.000999612 -3.20908e-07 0)
(0.00100063 -7.44245e-07 0)
(0.00100105 -9.70153e-07 0)
(0.00100054 -1.0723e-06 0)
(0.001 9.3664e-08 0)
(0.001 3.09878e-07 0)
(0.00100002 5.66772e-07 0)
(0.00100007 9.14734e-07 0)
(0.0010002 1.33104e-06 0)
(0.00100046 1.86626e-06 0)
(0.00100097 2.39184e-06 0)
(0.00100185 2.96846e-06 0)
(0.00100317 3.10948e-06 0)
(0.00100468 2.73441e-06 0)
(0.00100568 5.20568e-07 0)
(0.00100527 -2.75002e-06 0)
(0.00100338 -5.08107e-06 0)
(0.00100096 -5.0747e-06 0)
(0.000999404 -3.45006e-06 0)
(0.000999114 -1.79139e-06 0)
(0.000999734 -1.01857e-06 0)
(0.00100024 -1.06286e-06 0)
(0.0010006 -1.31154e-06 0)
(0.00100023 -1.51436e-06 0)
(0.001 9.45067e-08 0)
(0.00100003 2.96003e-07 0)
(0.00100008 5.29935e-07 0)
(0.00100018 8.03021e-07 0)
(0.00100036 1.11943e-06 0)
(0.00100066 1.45483e-06 0)
(0.00100112 1.77038e-06 0)
(0.00100174 1.94281e-06 0)
(0.00100247 1.77924e-06 0)
(0.00100317 1.03887e-06 0)
(0.00100365 -2.73023e-07 0)
(0.00100363 -1.78048e-06 0)
(0.00100292 -2.71376e-06 0)
(0.0010017 -2.63562e-06 0)
(0.00100057 -1.77921e-06 0)
(0.000999896 -8.924e-07 0)
(0.000999849 -4.24896e-07 0)
(0.000999971 -4.52293e-07 0)
(0.00100021 -6.2193e-07 0)
(0.000999995 -8.47901e-07 0)
(0.001 8.24351e-08 0)
(0.00100004 2.57435e-07 0)
(0.00100011 4.48576e-07 0)
(0.00100024 6.59079e-07 0)
(0.00100042 8.76348e-07 0)
(0.0010007 1.08044e-06 0)
(0.00100105 1.22234e-06 0)
(0.0010015 1.24437e-06 0)
(0.00100199 1.06908e-06 0)
(0.00100248 6.5837e-07 0)
(0.00100279 2.16285e-08 0)
(0.00100274 -7.6977e-07 0)
(0.00100227 -1.45414e-06 0)
(0.00100146 -1.77867e-06 0)
(0.00100061 -1.66867e-06 0)
(0.000999997 -1.34549e-06 0)
(0.000999785 -1.02774e-06 0)
(0.000999756 -9.42275e-07 0)
(0.000999874 -9.51418e-07 0)
(0.000999757 -1.10798e-06 0)
(0.001 6.57711e-08 0)
(0.00100004 2.03724e-07 0)
(0.00100012 3.49136e-07 0)
(0.00100025 4.99199e-07 0)
(0.00100043 6.43048e-07 0)
(0.00100066 7.62519e-07 0)
(0.00100095 8.31041e-07 0)
(0.00100128 8.18295e-07 0)
(0.00100163 6.86701e-07 0)
(0.00100191 4.06153e-07 0)
(0.00100206 -4.56536e-08 0)
(0.001002 -5.7757e-07 0)
(0.0010017 -1.04105e-06 0)
(0.00100119 -1.28639e-06 0)
(0.00100064 -1.23059e-06 0)
(0.00100015 -9.92245e-07 0)
(0.000999906 -7.01062e-07 0)
(0.000999731 -5.6184e-07 0)
(0.000999742 -4.92469e-07 0)
(0.000999551 -5.97688e-07 0)
(0.001 4.74646e-08 0)
(0.00100004 1.45275e-07 0)
(0.00100012 2.43208e-07 0)
(0.00100024 3.37105e-07 0)
(0.00100041 4.20696e-07 0)
(0.00100062 4.80702e-07 0)
(0.00100086 5.03508e-07 0)
(0.00100112 4.67572e-07 0)
(0.00100137 3.58113e-07 0)
(0.00100157 1.55857e-07 0)
(0.00100167 -1.1622e-07 0)
(0.0010016 -4.23615e-07 0)
(0.00100139 -6.86616e-07 0)
(0.00100103 -8.46428e-07 0)
(0.00100063 -8.51047e-07 0)
(0.00100021 -7.69364e-07 0)
(0.000999942 -6.3741e-07 0)
(0.000999681 -6.00344e-07 0)
(0.000999618 -5.64936e-07 0)
(0.000999377 -6.83958e-07 0)
(0.001 3.27616e-08 0)
(0.00100004 1.01999e-07 0)
(0.00100011 1.72388e-07 0)
(0.00100022 2.40437e-07 0)
(0.00100038 3.01269e-07 0)
(0.00100056 3.47893e-07 0)
(0.00100077 3.72067e-07 0)
(0.00100097 3.65414e-07 0)
(0.00100116 3.18105e-07 0)
(0.0010013 2.24291e-07 0)
(0.00100136 8.66385e-08 0)
(0.00100131 -7.15738e-08 0)
(0.00100115 -2.08931e-07 0)
(0.00100086 -2.99786e-07 0)
(0.00100053 -3.12827e-07 0)
(0.00100016 -2.80906e-07 0)
(0.000999893 -2.02517e-07 0)
(0.000999605 -1.71203e-07 0)
(0.000999506 -1.20654e-07 0)
(0.000999238 -1.97688e-07 0)
(0.001 -4.62636e-09 0)
(0.00100004 -1.07519e-08 0)
(0.00100012 -1.37198e-08 0)
(0.00100023 -1.54268e-08 0)
(0.00100038 -1.76625e-08 0)
(0.00100056 -2.35824e-08 0)
(0.00100075 -3.48023e-08 0)
(0.00100094 -5.44657e-08 0)
(0.00100111 -8.24616e-08 0)
(0.00100123 -1.2229e-07 0)
(0.00100128 -1.69981e-07 0)
(0.00100121 -2.32253e-07 0)
(0.00100106 -2.91825e-07 0)
(0.0010008 -3.42075e-07 0)
(0.00100052 -3.59665e-07 0)
(0.00100017 -3.67596e-07 0)
(0.000999938 -3.42323e-07 0)
(0.000999602 -3.537e-07 0)
(0.000999512 -3.2856e-07 0)
(0.000999119 -4.10309e-07 0)
)
;

boundaryField
{
    sides
    {
        type            slip;
    }
    inlet
    {
        type            fixedValue;
        value           uniform (0.001 0 0);
    }
    outlet
    {
        type            zeroGradient;
    }
    frontAndBack
    {
        type            empty;
    }
}


// ************************************************************************* //
