/*--------------------------------*- C++ -*----------------------------------*\
  =========                 |
  \\      /  F ield         | OpenFOAM: The Open Source CFD Toolbox
   \\    /   O peration     | Website:  https://openfoam.org
    \\  /    A nd           | Version:  9
     \\/     M anipulation  |
\*---------------------------------------------------------------------------*/
FoamFile
{
    format      ascii;
    class       volVectorField;
    location    "55";
    object      hU_0;
}
// * * * * * * * * * * * * * * * * * * * * * * * * * * * * * * * * * * * * * //

dimensions      [0 2 -1 0 0 0 0];

internalField   nonuniform List<vector> 
400
(
(0.001 -2.313e-08 0)
(0.00100004 -6.95523e-08 0)
(0.00100012 -1.13197e-07 0)
(0.00100024 -1.53057e-07 0)
(0.00100039 -1.87848e-07 0)
(0.00100058 -2.1662e-07 0)
(0.00100078 -2.35773e-07 0)
(0.00100099 -2.43841e-07 0)
(0.00100118 -2.3514e-07 0)
(0.00100132 -2.10859e-07 0)
(0.0010014 -1.67787e-07 0)
(0.00100139 -1.27294e-07 0)
(0.00100128 -9.76166e-08 0)
(0.0010011 -9.20981e-08 0)
(0.00100086 -9.97995e-08 0)
(0.00100063 -1.3616e-07 0)
(0.00100043 -1.56408e-07 0)
(0.00100033 -2.00522e-07 0)
(0.00100025 -1.88542e-07 0)
(0.00100032 -2.68504e-07 0)
(0.001 -2.39525e-08 0)
(0.00100005 -7.62075e-08 0)
(0.00100013 -1.27759e-07 0)
(0.00100025 -1.7517e-07 0)
(0.00100042 -2.14461e-07 0)
(0.00100062 -2.39882e-07 0)
(0.00100084 -2.42862e-07 0)
(0.00100107 -2.16319e-07 0)
(0.00100129 -1.51606e-07 0)
(0.00100147 -4.6522e-08 0)
(0.00100156 9.46706e-08 0)
(0.00100154 2.50389e-07 0)
(0.00100141 3.93365e-07 0)
(0.00100118 4.79047e-07 0)
(0.00100091 5.04694e-07 0)
(0.00100066 4.50034e-07 0)
(0.00100047 3.78567e-07 0)
(0.00100035 2.61028e-07 0)
(0.00100032 2.08686e-07 0)
(0.00100028 8.14395e-08 0)
(0.001 -4.91576e-08 0)
(0.00100004 -1.55463e-07 0)
(0.00100013 -2.65683e-07 0)
(0.00100025 -3.74763e-07 0)
(0.00100043 -4.75056e-07 0)
(0.00100065 -5.54453e-07 0)
(0.0010009 -5.98867e-07 0)
(0.00100117 -5.91557e-07 0)
(0.00100143 -5.14242e-07 0)
(0.00100164 -3.50638e-07 0)
(0.00100176 -1.09431e-07 0)
(0.00100175 1.65665e-07 0)
(0.00100159 4.07217e-07 0)
(0.0010013 5.23116e-07 0)
(0.00100094 4.98657e-07 0)
(0.00100061 3.50936e-07 0)
(0.00100036 2.02661e-07 0)
(0.00100025 5.05272e-08 0)
(0.00100021 1.03319e-09 0)
(0.00100028 -1.16626e-07 0)
(0.001 -7.01337e-08 0)
(0.00100004 -2.18227e-07 0)
(0.00100013 -3.73135e-07 0)
(0.00100026 -5.31584e-07 0)
(0.00100045 -6.82249e-07 0)
(0.00100069 -8.08149e-07 0)
(0.001001 -8.82993e-07 0)
(0.00100134 -8.78713e-07 0)
(0.00100171 -7.51242e-07 0)
(0.00100202 -4.75276e-07 0)
(0.00100221 -2.28603e-08 0)
(0.00100219 4.96172e-07 0)
(0.00100192 9.426e-07 0)
(0.00100145 1.14312e-06 0)
(0.00100096 1.05288e-06 0)
(0.00100057 7.38189e-07 0)
(0.0010004 4.22052e-07 0)
(0.00100034 1.74706e-07 0)
(0.00100039 1.06762e-07 0)
(0.00100033 1.01612e-09 0)
(0.001 -8.78524e-08 0)
(0.00100004 -2.73712e-07 0)
(0.00100012 -4.74945e-07 0)
(0.00100025 -6.94971e-07 0)
(0.00100044 -9.22059e-07 0)
(0.00100072 -1.1368e-06 0)
(0.00100109 -1.29239e-06 0)
(0.00100155 -1.32984e-06 0)
(0.00100206 -1.17104e-06 0)
(0.00100256 -7.7861e-07 0)
(0.0010029 -1.72196e-07 0)
(0.00100288 5.82072e-07 0)
(0.00100244 1.23634e-06 0)
(0.00100166 1.51492e-06 0)
(0.00100085 1.37331e-06 0)
(0.0010003 9.58768e-07 0)
(0.00100012 5.78187e-07 0)
(0.0010002 3.18755e-07 0)
(0.00100035 2.67608e-07 0)
(0.00100042 1.68795e-07 0)
(0.001 -1.00526e-07 0)
(0.00100003 -3.14463e-07 0)
(0.00100009 -5.60379e-07 0)
(0.00100019 -8.45881e-07 0)
(0.00100038 -1.17396e-06 0)
(0.00100068 -1.5227e-06 0)
(0.00100115 -1.85284e-06 0)
(0.00100178 -2.04621e-06 0)
(0.00100254 -1.90762e-06 0)
(0.00100326 -1.19951e-06 0)
(0.00100376 8.05486e-08 0)
(0.00100377 1.54342e-06 0)
(0.00100309 2.43987e-06 0)
(0.00100191 2.30773e-06 0)
(0.00100081 1.42756e-06 0)
(0.00100018 4.86223e-07 0)
(0.00100016 9.12742e-09 0)
(0.00100036 -8.29231e-08 0)
(0.00100063 6.43808e-08 0)
(0.00100053 5.09694e-08 0)
(0.001 -1.00199e-07 0)
(0.00100001 -3.30154e-07 0)
(0.00100002 -6.00856e-07 0)
(0.00100008 -9.63571e-07 0)
(0.00100021 -1.39387e-06 0)
(0.00100048 -1.94458e-06 0)
(0.001001 -2.48341e-06 0)
(0.00100188 -3.07694e-06 0)
(0.00100321 -3.22894e-06 0)
(0.00100473 -2.8821e-06 0)
(0.00100573 -6.72979e-07 0)
(0.00100535 2.55352e-06 0)
(0.00100349 4.83194e-06 0)
(0.00100111 4.73925e-06 0)
(0.000999601 3.02551e-06 0)
(0.000999363 1.25724e-06 0)
(0.000999995 4.27113e-07 0)
(0.00100055 3.29511e-07 0)
(0.00100091 5.66424e-07 0)
(0.00100065 5.35182e-07 0)
(0.000999995 -9.07573e-08 0)
(0.00099997 -2.86475e-07 0)
(0.00099991 -5.76715e-07 0)
(0.000999876 -9.58564e-07 0)
(0.000999878 -1.57924e-06 0)
(0.00100009 -2.34392e-06 0)
(0.0010005 -3.39745e-06 0)
(0.00100152 -4.11841e-06 0)
(0.00100308 -4.36968e-06 0)
(0.00100601 -2.54837e-06 0)
(0.0010091 7.56992e-07 0)
(0.00100914 4.27283e-06 0)
(0.0010055 4.722e-06 0)
(0.00100073 2.7833e-06 0)
(0.000998143 7.32566e-07 0)
(0.000998265 -2.80552e-07 0)
(0.000999787 -2.89597e-07 0)
(0.00100086 -8.27533e-09 0)
(0.00100132 2.14987e-07 0)
(0.00100084 1.03982e-07 0)
(0.000999994 -4.82023e-08 0)
(0.000999917 -2.02819e-07 0)
(0.000999759 -3.87045e-07 0)
(0.000999532 -7.36821e-07 0)
(0.000999287 -1.34023e-06 0)
(0.00099921 -2.48124e-06 0)
(0.000999705 -4.68456e-06 0)
(0.00100139 -8.06466e-06 0)
(0.00100491 -1.32838e-05 0)
(0.00100958 -1.49116e-05 0)
(0.00101189 3.84566e-06 0)
(0.00100892 1.87353e-05 0)
(0.0010022 1.57837e-05 0)
(0.00099756 5.742e-06 0)
(0.000996879 -3.18006e-07 0)
(0.000998452 -1.26736e-06 0)
(0.00100026 -9.7656e-08 0)
(0.00100099 6.34815e-07 0)
(0.00100106 6.53713e-07 0)
(0.00100053 2.45119e-07 0)
(0.000999803 -1.96802e-08 0)
(0.00100017 -6.69931e-08 0)
(0.000999219 -1.52637e-07 0)
(0.000999906 -2.50502e-07 0)
(0.000997521 -5.93864e-07 0)
(0.000998842 -1.13208e-06 0)
(0.000993345 -2.88341e-06 0)
(0.000997529 -5.59225e-06 0)
(0.000991665 -1.15414e-05 0)
(0.00091583 -1.27062e-05 0)
(0.000951468 2.72991e-07 0)
(0.00101021 1.46374e-05 0)
(0.000990941 1.30851e-05 0)
(0.000983969 5.14099e-06 0)
(0.00098958 1.9275e-07 0)
(0.000996272 -7.8421e-07 0)
(0.000999225 -1.1398e-07 0)
(0.000999401 2.47322e-07 0)
(0.000998638 1.74893e-07 0)
(0.000998495 -1.83276e-07 0)
(0.000999803 1.22735e-08 0)
(0.00100017 4.43669e-08 0)
(0.000999219 1.15761e-07 0)
(0.000999904 1.9828e-07 0)
(0.000997518 5.27791e-07 0)
(0.000998836 1.04965e-06 0)
(0.000993337 2.78435e-06 0)
(0.000997518 5.47223e-06 0)
(0.000991649 1.13964e-05 0)
(0.000915808 1.25499e-05 0)
(0.000951423 -4.68296e-07 0)
(0.00101019 -1.49086e-05 0)
(0.000990938 -1.34094e-05 0)
(0.000983959 -5.53788e-06 0)
(0.00098956 -6.50555e-07 0)
(0.000996234 2.4616e-07 0)
(0.000999183 -4.73764e-07 0)
(0.000999356 -1.00455e-06 0)
(0.000998624 -9.89333e-07 0)
(0.000998445 -8.86743e-07 0)
(0.000999994 4.11613e-08 0)
(0.000999917 1.81196e-07 0)
(0.000999758 3.51223e-07 0)
(0.000999532 6.85741e-07 0)
(0.000999285 1.27461e-06 0)
(0.000999209 2.39831e-06 0)
(0.0009997 4.58443e-06 0)
(0.00100139 7.93949e-06 0)
(0.0010049 1.31314e-05 0)
(0.00100958 1.47181e-05 0)
(0.00101188 -4.07312e-06 0)
(0.00100888 -1.90085e-05 0)
(0.00100213 -1.61012e-05 0)
(0.000997471 -6.12693e-06 0)
(0.000996808 -8.57416e-08 0)
(0.000998392 7.75343e-07 0)
(0.00100015 -4.27154e-07 0)
(0.00100084 -1.30742e-06 0)
(0.00100087 -1.38082e-06 0)
(0.00100036 -1.24876e-06 0)
(0.000999995 8.42678e-08 0)
(0.000999969 2.66303e-07 0)
(0.000999908 5.42074e-07 0)
(0.000999872 9.08738e-07 0)
(0.00099987 1.51145e-06 0)
(0.00100008 2.25684e-06 0)
(0.00100048 3.2872e-06 0)
(0.00100148 3.98599e-06 0)
(0.00100303 4.21083e-06 0)
(0.00100593 2.36476e-06 0)
(0.00100902 -9.84908e-07 0)
(0.00100906 -4.54398e-06 0)
(0.00100542 -5.02562e-06 0)
(0.00100066 -3.13349e-06 0)
(0.000998051 -1.13182e-06 0)
(0.000998125 -2.49627e-07 0)
(0.000999611 -3.21636e-07 0)
(0.00100063 -7.44905e-07 0)
(0.00100105 -9.69867e-07 0)
(0.00100054 -1.07191e-06 0)
(0.001 9.42139e-08 0)
(0.001 3.11007e-07 0)
(0.00100002 5.68204e-07 0)
(0.00100007 9.161e-07 0)
(0.0010002 1.33155e-06 0)
(0.00100046 1.86575e-06 0)
(0.00100097 2.3911e-06 0)
(0.00100185 2.96815e-06 0)
(0.00100317 3.10917e-06 0)
(0.00100468 2.73504e-06 0)
(0.00100568 5.17528e-07 0)
(0.00100527 -2.75325e-06 0)
(0.00100338 -5.08138e-06 0)
(0.00100096 -5.07457e-06 0)
(0.000999402 -3.44971e-06 0)
(0.000999113 -1.79158e-06 0)
(0.000999734 -1.01958e-06 0)
(0.00100024 -1.06369e-06 0)
(0.0010006 -1.31107e-06 0)
(0.00100023 -1.5138e-06 0)
(0.001 9.50403e-08 0)
(0.00100003 2.97384e-07 0)
(0.00100008 5.31484e-07 0)
(0.00100018 8.04211e-07 0)
(0.00100036 1.11985e-06 0)
(0.00100066 1.4544e-06 0)
(0.00100112 1.76996e-06 0)
(0.00100174 1.94267e-06 0)
(0.00100248 1.77872e-06 0)
(0.00100317 1.03813e-06 0)
(0.00100365 -2.76094e-07 0)
(0.00100363 -1.78195e-06 0)
(0.00100292 -2.7156e-06 0)
(0.0010017 -2.63627e-06 0)
(0.00100057 -1.77921e-06 0)
(0.000999896 -8.9273e-07 0)
(0.000999848 -4.25973e-07 0)
(0.000999971 -4.53169e-07 0)
(0.00100021 -6.21263e-07 0)
(0.000999994 -8.47158e-07 0)
(0.001 8.27887e-08 0)
(0.00100004 2.58837e-07 0)
(0.00100011 4.50179e-07 0)
(0.00100024 6.60113e-07 0)
(0.00100042 8.76646e-07 0)
(0.0010007 1.08013e-06 0)
(0.00100105 1.22224e-06 0)
(0.0010015 1.24472e-06 0)
(0.00100199 1.0693e-06 0)
(0.00100248 6.57318e-07 0)
(0.0010028 1.98075e-08 0)
(0.00100274 -7.7254e-07 0)
(0.00100227 -1.4562e-06 0)
(0.00100146 -1.77943e-06 0)
(0.00100061 -1.66868e-06 0)
(0.000999997 -1.34572e-06 0)
(0.000999785 -1.02888e-06 0)
(0.000999755 -9.4325e-07 0)
(0.000999873 -9.50678e-07 0)
(0.000999756 -1.10717e-06 0)
(0.001 6.57965e-08 0)
(0.00100004 2.04914e-07 0)
(0.00100012 3.50728e-07 0)
(0.00100025 5.00282e-07 0)
(0.00100043 6.43372e-07 0)
(0.00100066 7.62327e-07 0)
(0.00100095 8.30972e-07 0)
(0.00100128 8.18841e-07 0)
(0.00100163 6.87332e-07 0)
(0.00100191 4.06161e-07 0)
(0.00100206 -4.64246e-08 0)
(0.001002 -5.79469e-07 0)
(0.0010017 -1.04248e-06 0)
(0.00100119 -1.2867e-06 0)
(0.00100064 -1.2302e-06 0)
(0.00100015 -9.92199e-07 0)
(0.000999906 -7.02102e-07 0)
(0.000999731 -5.6289e-07 0)
(0.000999742 -4.91942e-07 0)
(0.00099955 -5.97008e-07 0)
(0.001 4.71937e-08 0)
(0.00100004 1.46155e-07 0)
(0.00100012 2.44732e-07 0)
(0.00100024 3.3829e-07 0)
(0.00100041 4.2108e-07 0)
(0.00100062 4.80571e-07 0)
(0.00100086 5.03323e-07 0)
(0.00100112 4.67887e-07 0)
(0.00100137 3.58685e-07 0)
(0.00100157 1.56212e-07 0)
(0.00100167 -1.16759e-07 0)
(0.0010016 -4.24681e-07 0)
(0.00100139 -6.87316e-07 0)
(0.00100103 -8.46262e-07 0)
(0.00100063 -8.50363e-07 0)
(0.00100021 -7.69081e-07 0)
(0.000999942 -6.38172e-07 0)
(0.000999681 -6.01327e-07 0)
(0.000999617 -5.64739e-07 0)
(0.000999376 -6.83519e-07 0)
(0.001 3.23189e-08 0)
(0.00100004 1.02401e-07 0)
(0.00100011 1.73485e-07 0)
(0.00100022 2.41442e-07 0)
(0.00100038 3.01598e-07 0)
(0.00100056 3.47802e-07 0)
(0.00100077 3.71848e-07 0)
(0.00100097 3.654e-07 0)
(0.00100116 3.18281e-07 0)
(0.0010013 2.24408e-07 0)
(0.00100136 8.63461e-08 0)
(0.00100131 -7.21719e-08 0)
(0.00100115 -2.09353e-07 0)
(0.00100086 -2.99572e-07 0)
(0.00100053 -3.12221e-07 0)
(0.00100016 -2.80602e-07 0)
(0.000999893 -2.02981e-07 0)
(0.000999605 -1.71931e-07 0)
(0.000999506 -1.20657e-07 0)
(0.000999238 -1.9746e-07 0)
(0.001 -4.87973e-09 0)
(0.00100004 -1.07147e-08 0)
(0.00100012 -1.33613e-08 0)
(0.00100023 -1.50356e-08 0)
(0.00100038 -1.75172e-08 0)
(0.00100056 -2.36111e-08 0)
(0.00100075 -3.49007e-08 0)
(0.00100094 -5.45635e-08 0)
(0.00100111 -8.25121e-08 0)
(0.00100123 -1.22339e-07 0)
(0.00100128 -1.7021e-07 0)
(0.00100121 -2.32529e-07 0)
(0.00100106 -2.9194e-07 0)
(0.0010008 -3.41938e-07 0)
(0.00100052 -3.59422e-07 0)
(0.00100017 -3.67474e-07 0)
(0.000999938 -3.42475e-07 0)
(0.000999602 -3.53982e-07 0)
(0.000999511 -3.28611e-07 0)
(0.000999119 -4.1025e-07 0)
)
;

boundaryField
{
    sides
    {
        type            slip;
    }
    inlet
    {
        type            fixedValue;
        value           uniform (0.001 0 0);
    }
    outlet
    {
        type            zeroGradient;
    }
    frontAndBack
    {
        type            empty;
    }
}


// ************************************************************************* //
