/*--------------------------------*- C++ -*----------------------------------*\
  =========                 |
  \\      /  F ield         | OpenFOAM: The Open Source CFD Toolbox
   \\    /   O peration     | Website:  https://openfoam.org
    \\  /    A nd           | Version:  9
     \\/     M anipulation  |
\*---------------------------------------------------------------------------*/
FoamFile
{
    format      ascii;
    class       surfaceScalarField;
    location    "55";
    object      phi;
}
// * * * * * * * * * * * * * * * * * * * * * * * * * * * * * * * * * * * * * //

dimensions      [0 4 -1 0 0 0 0];

internalField   nonuniform List<scalar> 
760
(
5.00009e-06
-8.39888e-11
5.00039e-06
-2.962e-10
5.0009e-06
-5.08942e-10
5.00161e-06
-7.06273e-10
5.00249e-06
-8.77481e-10
5.0035e-06
-1.00156e-09
5.00455e-06
-1.04832e-09
5.00556e-06
-9.98402e-10
5.00638e-06
-8.20632e-10
5.00691e-06
-5.19305e-10
5.00703e-06
-1.24181e-10
5.00663e-06
4.03343e-10
5.00576e-06
8.62814e-10
5.00464e-06
1.10904e-09
5.00347e-06
1.16959e-09
5.00252e-06
9.44475e-10
5.00181e-06
7.11531e-10
5.00157e-06
2.52955e-10
5.00145e-06
1.15595e-10
-3.92172e-10
5.00012e-06
-1.9882e-10
5.00044e-06
-6.15709e-10
5.00097e-06
-1.03652e-09
5.00171e-06
-1.44463e-09
5.00265e-06
-1.81159e-09
5.00375e-06
-2.08879e-09
5.00493e-06
-2.22562e-09
5.0061e-06
-2.16431e-09
5.00711e-06
-1.8358e-09
5.00776e-06
-1.1648e-09
5.00773e-06
-9.47238e-11
5.00723e-06
8.9102e-10
5.00623e-06
1.85888e-09
5.00491e-06
2.42372e-09
5.00363e-06
2.4399e-09
5.00272e-06
1.8439e-09
5.0022e-06
1.23848e-09
5.00186e-06
5.91677e-10
5.0016e-06
3.81641e-10
-1.45235e-10
5.0001e-06
-3.05152e-10
5.00042e-06
-9.28458e-10
5.00095e-06
-1.56161e-09
5.00171e-06
-2.20634e-09
5.00272e-06
-2.81121e-09
5.00395e-06
-3.30794e-09
5.00532e-06
-3.59712e-09
5.00671e-06
-3.56125e-09
5.00792e-06
-3.03814e-09
5.0087e-06
-1.96231e-09
5.00892e-06
-3.10919e-10
5.00823e-06
1.57208e-09
5.00683e-06
3.24478e-09
5.00511e-06
4.1469e-09
5.00346e-06
4.08404e-09
5.00226e-06
3.03159e-09
5.00162e-06
1.87365e-09
5.00142e-06
7.85522e-10
5.00139e-06
4.21734e-10
-2.17437e-10
5.00009e-06
-4.04407e-10
5.0004e-06
-1.23343e-09
5.00093e-06
-2.09387e-09
5.00174e-06
-3.00794e-09
5.00285e-06
-3.9169e-09
5.00429e-06
-4.73898e-09
5.00601e-06
-5.32384e-09
5.00794e-06
-5.49397e-09
5.00983e-06
-4.92661e-09
5.01106e-06
-3.19449e-09
5.01117e-06
-4.49229e-10
5.00997e-06
2.78198e-09
5.00761e-06
5.59047e-09
5.0051e-06
6.6548e-09
5.00343e-06
5.75727e-09
5.00265e-06
3.80232e-09
5.00243e-06
2.09109e-09
5.00225e-06
9.50417e-10
5.00194e-06
7.34942e-10
3.46489e-10
5.00008e-06
-4.85945e-10
5.00033e-06
-1.49221e-09
5.00083e-06
-2.58787e-09
5.00163e-06
-3.80979e-09
5.00286e-06
-5.13721e-09
5.00457e-06
-6.4562e-09
5.00679e-06
-7.54816e-09
5.00941e-06
-8.10761e-09
5.01237e-06
-7.8991e-09
5.01476e-06
-5.58737e-09
5.01481e-06
-4.87152e-10
5.01281e-06
4.7458e-09
5.00864e-06
9.77393e-09
5.00455e-06
1.07301e-08
5.00219e-06
8.10866e-09
5.0017e-06
4.29352e-09
5.002e-06
1.78332e-09
5.0022e-06
7.41992e-10
5.00195e-06
9.82131e-10
6.36369e-10
5.00004e-06
-5.28205e-10
5.0002e-06
-1.65188e-09
5.00053e-06
-2.93206e-09
5.0012e-06
-4.4829e-09
5.00241e-06
-6.33697e-09
5.00451e-06
-8.57025e-09
5.0076e-06
-1.06228e-08
5.01166e-06
-1.21834e-08
5.01552e-06
-1.17457e-08
5.01898e-06
-9.09774e-09
5.02019e-06
-1.66693e-09
5.016e-06
8.92655e-09
5.00947e-06
1.62662e-08
5.00418e-06
1.60219e-08
5.00213e-06
1.01507e-08
5.00245e-06
3.97063e-09
5.00322e-06
1.00846e-09
5.00334e-06
6.11535e-10
5.00274e-06
1.57395e-09
1.43195e-09
4.99998e-06
-5.10879e-10
4.99994e-06
-1.61618e-09
5.00003e-06
-3.02952e-09
5.00036e-06
-4.81477e-09
5.00121e-06
-7.19834e-09
5.00291e-06
-1.02708e-08
5.00679e-06
-1.4509e-08
5.01392e-06
-1.93019e-08
5.02372e-06
-2.15948e-08
5.03093e-06
-1.62499e-08
5.02867e-06
4.74177e-10
5.01672e-06
2.0965e-08
5.00416e-06
2.88256e-08
4.9987e-06
2.14615e-08
5.00054e-06
8.30163e-09
5.0028e-06
1.70137e-09
5.00366e-06
1.39335e-10
5.00361e-06
6.59248e-10
5.00299e-06
2.18501e-09
1.68974e-09
4.99987e-06
-3.81192e-10
4.99956e-06
-1.30955e-09
4.99913e-06
-2.60803e-09
4.99885e-06
-4.54694e-09
4.99932e-06
-7.67409e-09
5.00035e-06
-1.1302e-08
5.00364e-06
-1.78052e-08
5.00981e-06
-2.54967e-08
5.02484e-06
-3.66393e-08
5.05611e-06
-4.74279e-08
5.05e-06
7.13932e-09
5.02314e-06
4.77989e-08
4.99816e-06
5.38528e-08
4.99347e-06
2.61538e-08
4.99943e-06
2.33131e-09
5.00403e-06
-2.90156e-09
5.00485e-06
-6.90169e-10
5.00367e-06
1.83582e-09
5.00346e-06
2.39259e-09
9.7669e-10
4.99977e-06
-1.54913e-10
4.99916e-06
-7.02128e-10
4.99793e-06
-1.38049e-09
4.99611e-06
-2.73806e-09
4.99401e-06
-5.5846e-09
4.99373e-06
-1.10306e-08
4.99944e-06
-2.35282e-08
5.01712e-06
-4.31862e-08
5.05572e-06
-7.52347e-08
5.0668e-06
-5.85946e-08
5.04971e-06
2.3668e-08
4.99646e-06
1.01064e-07
4.98926e-06
6.10173e-08
4.99587e-06
1.95404e-08
5.00015e-06
-1.94936e-09
5.00289e-06
-5.63365e-09
5.00247e-06
-2.91949e-10
5.00179e-06
2.51072e-09
5.0025e-06
1.68007e-09
7.46794e-11
4.99986e-06
-1.8538e-11
4.99921e-06
-5.64053e-11
4.99792e-06
-9.30151e-11
4.99531e-06
-1.34851e-10
4.98989e-06
-1.763e-10
4.97907e-06
-2.27054e-10
4.95581e-06
-2.76817e-10
4.91294e-06
-3.37646e-10
4.83814e-06
-3.96926e-10
4.77994e-06
-4.63154e-10
4.80429e-06
-5.57715e-10
4.90598e-06
-7.37589e-10
4.96774e-06
-7.4583e-10
4.98819e-06
-9.00543e-10
4.98741e-06
-1.16854e-09
4.98321e-06
-1.43606e-09
4.9845e-06
-1.56506e-09
4.98885e-06
-1.83673e-09
4.99243e-06
-1.89866e-09
-2.57832e-09
4.99986e-06
1.18786e-10
4.99921e-06
5.89148e-10
4.99792e-06
1.19942e-09
4.9953e-06
2.47251e-09
4.98987e-06
5.24144e-09
4.97904e-06
1.05872e-08
4.95576e-06
2.29938e-08
4.91289e-06
4.25305e-08
4.83803e-06
7.44538e-08
4.77974e-06
5.78509e-08
4.8042e-06
-2.51158e-08
4.90595e-06
-1.02464e-07
4.96772e-06
-6.25296e-08
4.98803e-06
-2.12136e-08
4.98732e-06
-4.61208e-10
4.98288e-06
2.99403e-09
4.98437e-06
-3.05377e-09
4.98884e-06
-6.29764e-09
4.99231e-06
-5.3659e-09
-4.97632e-09
4.99977e-06
3.46502e-10
4.99916e-06
1.20297e-09
4.99793e-06
2.42607e-09
4.99611e-06
4.28366e-09
4.99401e-06
7.32054e-09
4.99372e-06
1.08683e-08
4.99941e-06
1.72913e-08
5.01706e-06
2.48783e-08
5.05562e-06
3.58927e-08
5.06716e-06
4.63462e-08
5.04938e-06
-8.53559e-09
4.99604e-06
-4.91471e-08
4.9888e-06
-5.53017e-08
4.99566e-06
-2.8076e-08
5.00006e-06
-4.87456e-09
5.00226e-06
7.93166e-10
5.0016e-06
-2.38751e-09
5.00085e-06
-5.54834e-09
5.00164e-06
-6.15072e-09
-5.94394e-09
4.99987e-06
4.78788e-10
4.99955e-06
1.51515e-09
4.99912e-06
2.85713e-09
4.99883e-06
4.56396e-09
4.99927e-06
6.87398e-09
5.00025e-06
9.87096e-09
5.00347e-06
1.40735e-08
5.00959e-06
1.87393e-08
5.02459e-06
2.09096e-08
5.05546e-06
1.54158e-08
5.04978e-06
-1.64879e-09
5.02282e-06
-2.21615e-08
4.99784e-06
-3.0341e-08
4.99313e-06
-2.336e-08
4.9986e-06
-1.03512e-08
5.0034e-06
-4.01123e-09
5.00367e-06
-2.66243e-09
5.0023e-06
-4.17802e-09
5.00212e-06
-5.96474e-09
-6.52973e-09
4.99998e-06
4.98999e-10
4.99993e-06
1.55962e-09
5.00001e-06
2.77629e-09
5.0003e-06
4.26105e-09
5.00112e-06
6.05107e-09
5.00279e-06
8.20898e-09
5.00668e-06
1.01805e-08
5.01377e-06
1.16299e-08
5.02355e-06
1.11153e-08
5.03069e-06
8.29518e-09
5.02838e-06
6.61452e-10
5.01623e-06
-1.00299e-08
5.00348e-06
-1.75717e-08
4.99775e-06
-1.76278e-08
4.99938e-06
-1.19874e-08
5.00156e-06
-6.20372e-09
5.00235e-06
-3.45521e-09
5.00208e-06
-3.91276e-09
5.00114e-06
-5.0362e-09
-5.97418e-09
5.00004e-06
4.59346e-10
5.00018e-06
1.41216e-09
5.0005e-06
2.45308e-09
5.00114e-06
3.61665e-09
5.00231e-06
4.88579e-09
5.00439e-06
6.13771e-09
5.00741e-06
7.15858e-09
5.01139e-06
7.64497e-09
5.01512e-06
7.36502e-09
5.01851e-06
4.89578e-09
5.01954e-06
-3.72999e-10
5.01521e-06
-5.68999e-09
5.00852e-06
-1.0888e-08
5.00308e-06
-1.21998e-08
5.00084e-06
-9.75588e-09
5.00096e-06
-6.33498e-09
5.0015e-06
-4.00195e-09
5.00126e-06
-3.67948e-09
5.0003e-06
-4.07796e-09
-4.97588e-09
5.00007e-06
3.80299e-10
5.00032e-06
1.16734e-09
5.00079e-06
1.98437e-09
5.00156e-06
2.84665e-09
5.00274e-06
3.70745e-09
5.0044e-06
4.48189e-09
5.00655e-06
5.01509e-09
5.00909e-06
5.10998e-09
5.01202e-06
4.42712e-09
5.01439e-06
2.51092e-09
5.01412e-06
-1.28799e-10
5.01206e-06
-3.64466e-09
5.00773e-06
-6.56522e-09
5.00345e-06
-7.93663e-09
5.00088e-06
-7.19626e-09
5.00008e-06
-5.54129e-09
5.00005e-06
-3.97944e-09
4.99982e-06
-3.44824e-09
4.99912e-06
-3.37107e-09
-4.17085e-09
5.00009e-06
2.83111e-10
5.00039e-06
8.74863e-10
5.0009e-06
1.47847e-09
5.00167e-06
2.08197e-09
5.00273e-06
2.64648e-09
5.00412e-06
3.10031e-09
5.00578e-06
3.35414e-09
5.00762e-06
3.27732e-09
5.00932e-06
2.73252e-09
5.01026e-06
1.56833e-09
5.01042e-06
-2.98671e-10
5.00901e-06
-2.24664e-09
5.00647e-06
-4.03702e-09
5.00363e-06
-5.10657e-09
5.00149e-06
-5.06748e-09
5.0003e-06
-4.34601e-09
4.99965e-06
-3.33971e-09
4.99911e-06
-2.90792e-09
4.9984e-06
-2.64662e-09
-3.21258e-09
5.0001e-06
1.8468e-10
5.0004e-06
5.7503e-10
5.00092e-06
9.69376e-10
5.00165e-06
1.34981e-09
5.00261e-06
1.69079e-09
5.00377e-06
1.94127e-09
5.00509e-06
2.04699e-09
5.00644e-06
1.93401e-09
5.00763e-06
1.54392e-09
5.00838e-06
8.29173e-10
5.0082e-06
-1.26566e-10
5.00732e-06
-1.36854e-09
5.00567e-06
-2.39672e-09
5.00364e-06
-3.0813e-09
5.00174e-06
-3.17198e-09
5.00029e-06
-2.89079e-09
4.99927e-06
-2.3218e-09
4.99847e-06
-2.1068e-09
4.99767e-06
-1.84411e-09
-2.27419e-09
5.00008e-06
1.06536e-10
5.00036e-06
2.94933e-10
5.00085e-06
4.85758e-10
5.00154e-06
6.69369e-10
5.00241e-06
8.30244e-10
5.00341e-06
9.434e-10
5.00448e-06
9.84156e-10
5.0055e-06
9.22927e-10
5.00632e-06
7.29504e-10
5.00679e-06
3.6221e-10
5.0068e-06
-1.40012e-10
5.00606e-06
-6.31091e-10
5.00476e-06
-1.09921e-09
5.00311e-06
-1.43507e-09
5.00143e-06
-1.50118e-09
4.99998e-06
-1.43352e-09
4.99884e-06
-1.1842e-09
4.99788e-06
-1.13926e-09
4.99701e-06
-9.80381e-10
-1.42209e-09
5.00011e-06
5.00041e-06
5.0009e-06
5.00158e-06
5.00242e-06
5.00337e-06
5.00436e-06
5.00528e-06
5.00602e-06
5.00638e-06
5.00624e-06
5.00561e-06
5.0045e-06
5.00306e-06
5.00155e-06
5.00012e-06
4.99895e-06
4.9978e-06
4.99681e-06
)
;

boundaryField
{
    sides
    {
        type            calculated;
        value           uniform 0;
    }
    inlet
    {
        type            calculated;
        value           nonuniform List<scalar> 
20
(
-5e-06
-5e-06
-5e-06
-5e-06
-5e-06
-5e-06
-5e-06
-5e-06
-5e-06
-5e-06
-5e-06
-5e-06
-5e-06
-5e-06
-5e-06
-5e-06
-5e-06
-5e-06
-5e-06
-5e-06
)
;
    }
    outlet
    {
        type            calculated;
        value           nonuniform List<scalar> 
20
(
5.00184e-06
5.00136e-06
5.00146e-06
5.00138e-06
5.00166e-06
5.00195e-06
5.00273e-06
5.00417e-06
5.00339e-06
4.99509e-06
4.99471e-06
5.00261e-06
5.0027e-06
5.00058e-06
4.9993e-06
4.99832e-06
4.99745e-06
4.99674e-06
4.99616e-06
4.99539e-06
)
;
    }
    frontAndBack
    {
        type            empty;
        value           nonuniform List<scalar> 0();
    }
}


// ************************************************************************* //
