/*--------------------------------*- C++ -*----------------------------------*\
  =========                 |
  \\      /  F ield         | OpenFOAM: The Open Source CFD Toolbox
   \\    /   O peration     | Website:  https://openfoam.org
    \\  /    A nd           | Version:  9
     \\/     M anipulation  |
\*---------------------------------------------------------------------------*/
FoamFile
{
    format      ascii;
    class       surfaceScalarField;
    location    "55";
    object      phi_0;
}
// * * * * * * * * * * * * * * * * * * * * * * * * * * * * * * * * * * * * * //

dimensions      [0 4 -1 0 0 0 0];

internalField   nonuniform List<scalar> 
760
(
5.00009e-06
-8.38377e-11
5.00039e-06
-2.97235e-10
5.0009e-06
-5.11777e-10
5.00161e-06
-7.09855e-10
5.00249e-06
-8.7832e-10
5.00349e-06
-1.00221e-09
5.00455e-06
-1.04906e-09
5.00555e-06
-9.99681e-10
5.00638e-06
-8.20445e-10
5.00691e-06
-5.19781e-10
5.00704e-06
-1.21907e-10
5.00663e-06
4.07525e-10
5.00576e-06
8.66839e-10
5.00465e-06
1.11119e-09
5.00347e-06
1.16953e-09
5.00252e-06
9.45367e-10
5.00181e-06
7.14658e-10
5.00156e-06
2.563e-10
5.00145e-06
1.16585e-10
-3.92418e-10
5.00012e-06
-1.97641e-10
5.00044e-06
-6.18175e-10
5.00097e-06
-1.04229e-09
5.00171e-06
-1.44964e-09
5.00265e-06
-1.81311e-09
5.00374e-06
-2.09014e-09
5.00493e-06
-2.22576e-09
5.0061e-06
-2.16477e-09
5.00711e-06
-1.83536e-09
5.00776e-06
-1.16325e-09
5.00773e-06
-9.15446e-11
5.00723e-06
8.99762e-10
5.00623e-06
1.8639e-09
5.00491e-06
2.42618e-09
5.00363e-06
2.44053e-09
5.00273e-06
1.84522e-09
5.0022e-06
1.24284e-09
5.00186e-06
5.96557e-10
5.0016e-06
3.82482e-10
-1.46315e-10
5.0001e-06
-3.0448e-10
5.00042e-06
-9.3346e-10
5.00095e-06
-1.56897e-09
5.00172e-06
-2.21085e-09
5.00272e-06
-2.81378e-09
5.00394e-06
-3.3078e-09
5.00532e-06
-3.59553e-09
5.00671e-06
-3.55811e-09
5.00792e-06
-3.04011e-09
5.00871e-06
-1.95901e-09
5.00892e-06
-3.0778e-10
5.00823e-06
1.57879e-09
5.00684e-06
3.25084e-09
5.00511e-06
4.14538e-09
5.00346e-06
4.08194e-09
5.00226e-06
3.0333e-09
5.00162e-06
1.88038e-09
5.00142e-06
7.91538e-10
5.00138e-06
4.20191e-10
-2.19553e-10
5.00009e-06
-4.05352e-10
5.0004e-06
-1.2404e-09
5.00094e-06
-2.10166e-09
5.00174e-06
-3.01284e-09
5.00285e-06
-3.91848e-09
5.00429e-06
-4.73679e-09
5.00601e-06
-5.31773e-09
5.00794e-06
-5.49405e-09
5.00983e-06
-4.92656e-09
5.01106e-06
-3.19877e-09
5.01118e-06
-4.3534e-10
5.00997e-06
2.78514e-09
5.00761e-06
5.5936e-09
5.0051e-06
6.65435e-09
5.00343e-06
5.75174e-09
5.00265e-06
3.80092e-09
5.00242e-06
2.09663e-09
5.00225e-06
9.55332e-10
5.00194e-06
7.32739e-10
3.43327e-10
5.00008e-06
-4.88367e-10
5.00033e-06
-1.49948e-09
5.00083e-06
-2.59584e-09
5.00163e-06
-3.8151e-09
5.00285e-06
-5.1387e-09
5.00458e-06
-6.45082e-09
5.00679e-06
-7.54368e-09
5.00941e-06
-8.10826e-09
5.01237e-06
-7.90016e-09
5.01478e-06
-5.58527e-09
5.0148e-06
-4.94979e-10
5.01282e-06
4.76649e-09
5.00864e-06
9.77488e-09
5.00455e-06
1.07268e-08
5.00219e-06
8.10641e-09
5.0017e-06
4.29256e-09
5.002e-06
1.78782e-09
5.0022e-06
7.46494e-10
5.00195e-06
9.79516e-10
6.33255e-10
5.00004e-06
-5.31258e-10
5.0002e-06
-1.65841e-09
5.00054e-06
-2.93941e-09
5.0012e-06
-4.48917e-09
5.00241e-06
-6.33756e-09
5.00452e-06
-8.56616e-09
5.00759e-06
-1.06205e-08
5.01167e-06
-1.21808e-08
5.01552e-06
-1.1752e-08
5.01898e-06
-9.07189e-09
5.0202e-06
-1.69297e-09
5.01598e-06
8.92693e-09
5.00947e-06
1.62843e-08
5.00418e-06
1.60226e-08
5.00213e-06
1.01477e-08
5.00244e-06
3.97124e-09
5.00321e-06
1.0133e-09
5.00334e-06
6.15838e-10
5.00274e-06
1.57281e-09
1.43003e-09
4.99998e-06
-5.13648e-10
4.99994e-06
-1.62119e-09
5.00003e-06
-3.03617e-09
5.00036e-06
-4.82047e-09
5.00122e-06
-7.19978e-09
5.00291e-06
-1.02689e-08
5.0068e-06
-1.45059e-08
5.01392e-06
-1.93022e-08
5.02375e-06
-2.15809e-08
5.03088e-06
-1.6282e-08
5.02871e-06
5.54259e-10
5.01673e-06
2.09415e-08
5.00415e-06
2.88189e-08
4.99869e-06
2.14655e-08
5.00053e-06
8.30279e-09
5.0028e-06
1.70353e-09
5.00366e-06
1.45037e-10
5.00361e-06
6.64351e-10
5.00299e-06
2.18584e-09
1.68911e-09
4.99987e-06
-3.82896e-10
4.99956e-06
-1.31304e-09
4.99913e-06
-2.61328e-09
4.99885e-06
-4.55205e-09
4.99933e-06
-7.67518e-09
5.00035e-06
-1.13018e-08
5.00364e-06
-1.7802e-08
5.00982e-06
-2.54907e-08
5.02485e-06
-3.66597e-08
5.05612e-06
-4.74268e-08
5.05e-06
6.24307e-09
5.02317e-06
4.78545e-08
4.99816e-06
5.3843e-08
4.99346e-06
2.61441e-08
4.99943e-06
2.32878e-09
5.00402e-06
-2.89988e-09
5.00485e-06
-6.84983e-10
5.00367e-06
1.8418e-09
5.00345e-06
2.39499e-09
9.77751e-10
4.99978e-06
-1.55531e-10
4.99916e-06
-7.0406e-10
4.99793e-06
-1.38411e-09
4.99611e-06
-2.74142e-09
4.99401e-06
-5.58563e-09
4.99373e-06
-1.10281e-08
4.99944e-06
-2.35259e-08
5.01712e-06
-4.31855e-08
5.05571e-06
-7.52227e-08
5.06679e-06
-5.864e-08
5.0497e-06
2.37466e-08
4.99644e-06
1.01028e-07
4.98926e-06
6.09994e-08
4.99588e-06
1.95351e-08
5.00015e-06
-1.95139e-09
5.00288e-06
-5.63321e-09
5.00246e-06
-2.65489e-10
5.00179e-06
2.51536e-09
5.0025e-06
1.68282e-09
8.44658e-11
4.99987e-06
-1.83682e-11
4.99922e-06
-5.67565e-11
4.99792e-06
-9.39357e-11
4.99531e-06
-1.36132e-10
4.98989e-06
-1.75732e-10
4.97908e-06
-2.24633e-10
4.95581e-06
-2.74209e-10
4.91295e-06
-3.375e-10
4.83812e-06
-4.08559e-10
4.77999e-06
-4.38045e-10
4.80425e-06
-6.08308e-10
4.90597e-06
-7.34768e-10
4.96775e-06
-7.3421e-10
4.9882e-06
-9.02895e-10
4.98741e-06
-1.172e-09
4.98321e-06
-1.43874e-09
4.9845e-06
-1.56666e-09
4.98885e-06
-1.83663e-09
4.99243e-06
-1.89675e-09
-2.57628e-09
4.99987e-06
1.19784e-10
4.99922e-06
5.90482e-10
4.99792e-06
1.20165e-09
4.9953e-06
2.4745e-09
4.98987e-06
5.2424e-09
4.97905e-06
1.05891e-08
4.95576e-06
2.29935e-08
4.91289e-06
4.25306e-08
4.83803e-06
7.44546e-08
4.77972e-06
5.78464e-08
4.80421e-06
-2.50954e-08
4.90595e-06
-1.0247e-07
4.96772e-06
-6.25299e-08
4.98803e-06
-2.12134e-08
4.98731e-06
-4.62097e-10
4.98288e-06
2.99067e-09
4.98437e-06
-3.05707e-09
4.98884e-06
-6.29925e-09
4.9923e-06
-5.36456e-09
-4.97473e-09
4.99978e-06
3.48403e-10
4.99916e-06
1.20603e-09
4.99793e-06
2.43097e-09
4.99611e-06
4.28903e-09
4.99401e-06
7.3224e-09
4.99372e-06
1.08667e-08
4.99942e-06
1.72892e-08
5.01706e-06
2.48779e-08
5.05562e-06
3.59045e-08
5.06711e-06
4.63612e-08
5.04938e-06
-6.4754e-09
4.99606e-06
-4.91164e-08
4.98881e-06
-5.52993e-08
4.99566e-06
-2.8069e-08
5.00006e-06
-4.87046e-09
5.00226e-06
7.93024e-10
5.0016e-06
-2.39011e-09
5.00085e-06
-5.5505e-09
5.00164e-06
-6.1493e-09
-5.94221e-09
4.99987e-06
4.81475e-10
4.99956e-06
1.51997e-09
4.99912e-06
2.86394e-09
4.99883e-06
4.57097e-09
4.99927e-06
6.87651e-09
5.00026e-06
9.86803e-09
5.00347e-06
1.4069e-08
5.0096e-06
1.87384e-08
5.02458e-06
2.09128e-08
5.0555e-06
1.54144e-08
5.0498e-06
-1.60315e-09
5.0228e-06
-2.21864e-08
4.99785e-06
-3.03348e-08
4.99313e-06
-2.33559e-08
4.9986e-06
-1.03488e-08
5.0034e-06
-4.0117e-09
5.00367e-06
-2.66556e-09
5.0023e-06
-4.18145e-09
5.00211e-06
-5.96292e-09
-6.52753e-09
4.99998e-06
5.01992e-10
4.99993e-06
1.56622e-09
5.00001e-06
2.78373e-09
5.00031e-06
4.26765e-09
5.00113e-06
6.05341e-09
5.00279e-06
8.20645e-09
5.00668e-06
1.01772e-08
5.01378e-06
1.16276e-08
5.02355e-06
1.11094e-08
5.0307e-06
8.30412e-09
5.02836e-06
6.41089e-10
5.01624e-06
-1.00247e-08
5.00348e-06
-1.75759e-08
4.99774e-06
-1.76293e-08
4.99937e-06
-1.19864e-08
5.00156e-06
-6.20507e-09
5.00235e-06
-3.46028e-09
5.00207e-06
-3.91678e-09
5.00114e-06
-5.03318e-09
-5.97095e-09
5.00004e-06
4.61915e-10
5.00018e-06
1.41947e-09
5.0005e-06
2.46093e-09
5.00114e-06
3.62169e-09
5.00231e-06
4.88748e-09
5.00439e-06
6.13593e-09
5.00741e-06
7.15759e-09
5.01139e-06
7.645e-09
5.01513e-06
7.36418e-09
5.01851e-06
4.88537e-09
5.01954e-06
-3.9404e-10
5.01521e-06
-5.70475e-09
5.00851e-06
-1.08992e-08
5.00307e-06
-1.22036e-08
5.00084e-06
-9.75633e-09
5.00096e-06
-6.33675e-09
5.0015e-06
-4.00781e-09
5.00126e-06
-3.68407e-09
5.0003e-06
-4.07422e-09
-4.97189e-09
5.00007e-06
3.81442e-10
5.00032e-06
1.17405e-09
5.00079e-06
1.99225e-09
5.00156e-06
2.85152e-09
5.00274e-06
3.70866e-09
5.0044e-06
4.48082e-09
5.00655e-06
5.01526e-09
5.00909e-06
5.11312e-09
5.01202e-06
4.42986e-09
5.01438e-06
2.5089e-09
5.01413e-06
-1.36671e-10
5.01206e-06
-3.65741e-09
5.00772e-06
-6.57454e-09
5.00345e-06
-7.93989e-09
5.00088e-06
-7.19587e-09
5.00008e-06
-5.54212e-09
5.00005e-06
-3.98507e-09
4.99982e-06
-3.45349e-09
4.99911e-06
-3.36809e-09
-4.16712e-09
5.00009e-06
2.82343e-10
5.00039e-06
8.79988e-10
5.0009e-06
1.48629e-09
5.00167e-06
2.08759e-09
5.00273e-06
2.64837e-09
5.00412e-06
3.09955e-09
5.00578e-06
3.35348e-09
5.00762e-06
3.27988e-09
5.00932e-06
2.73621e-09
5.01026e-06
1.56981e-09
5.01042e-06
-3.02751e-10
5.00901e-06
-2.25396e-09
5.00647e-06
-4.04248e-09
5.00363e-06
-5.10716e-09
5.0015e-06
-5.06457e-09
5.0003e-06
-4.34489e-09
4.99965e-06
-3.34436e-09
4.99911e-06
-2.9134e-09
4.9984e-06
-2.645e-09
-3.20978e-09
5.00009e-06
1.82508e-10
5.0004e-06
5.7824e-10
5.00092e-06
9.76438e-10
5.00165e-06
1.35571e-09
5.00261e-06
1.69253e-09
5.00377e-06
1.94072e-09
5.00509e-06
2.04568e-09
5.00644e-06
1.93444e-09
5.00763e-06
1.54583e-09
5.00838e-06
8.30997e-10
5.0082e-06
-1.28981e-10
5.00732e-06
-1.37214e-09
5.00567e-06
-2.39887e-09
5.00364e-06
-3.07952e-09
5.00174e-06
-3.16801e-09
5.00029e-06
-2.889e-09
4.99927e-06
-2.32493e-09
4.99847e-06
-2.11104e-09
4.99767e-06
-1.84326e-09
-2.27237e-09
5.00008e-06
1.0443e-10
5.00036e-06
2.96187e-10
5.00085e-06
4.90163e-10
5.00154e-06
6.735e-10
5.00241e-06
8.31333e-10
5.00341e-06
9.42765e-10
5.00448e-06
9.83128e-10
5.00549e-06
9.22322e-10
5.00632e-06
7.29696e-10
5.00679e-06
3.62372e-10
5.0068e-06
-1.40822e-10
5.00606e-06
-6.32814e-10
5.00476e-06
-1.10028e-09
5.00311e-06
-1.43382e-09
5.00144e-06
-1.49868e-09
4.99998e-06
-1.43221e-09
4.99884e-06
-1.18553e-09
4.99787e-06
-1.14154e-09
4.99701e-06
-9.8021e-10
-1.42133e-09
5.00011e-06
5.00041e-06
5.0009e-06
5.00158e-06
5.00242e-06
5.00336e-06
5.00435e-06
5.00528e-06
5.00602e-06
5.00638e-06
5.00624e-06
5.00561e-06
5.0045e-06
5.00306e-06
5.00156e-06
5.00012e-06
4.99894e-06
4.9978e-06
4.99681e-06
)
;

boundaryField
{
    sides
    {
        type            calculated;
        value           uniform 0;
    }
    inlet
    {
        type            calculated;
        value           nonuniform List<scalar> 
20
(
-5e-06
-5e-06
-5e-06
-5e-06
-5e-06
-5e-06
-5e-06
-5e-06
-5e-06
-5e-06
-5e-06
-5e-06
-5e-06
-5e-06
-5e-06
-5e-06
-5e-06
-5e-06
-5e-06
-5e-06
)
;
    }
    outlet
    {
        type            calculated;
        value           nonuniform List<scalar> 
20
(
5.00184e-06
5.00135e-06
5.00146e-06
5.00138e-06
5.00166e-06
5.00195e-06
5.00273e-06
5.00416e-06
5.00338e-06
4.99509e-06
4.9947e-06
5.0026e-06
5.00269e-06
5.00058e-06
4.9993e-06
4.99831e-06
4.99744e-06
4.99674e-06
4.99615e-06
4.99538e-06
)
;
    }
    frontAndBack
    {
        type            empty;
        value           nonuniform List<scalar> 0();
    }
}


// ************************************************************************* //
