/*--------------------------------*- C++ -*----------------------------------*\
  =========                 |
  \\      /  F ield         | OpenFOAM: The Open Source CFD Toolbox
   \\    /   O peration     | Website:  https://openfoam.org
    \\  /    A nd           | Version:  9
     \\/     M anipulation  |
\*---------------------------------------------------------------------------*/
FoamFile
{
    format      ascii;
    class       volVectorField;
    location    "90";
    object      ddt0(hU);
}
// * * * * * * * * * * * * * * * * * * * * * * * * * * * * * * * * * * * * * //

dimensions      [0 2 -2 0 0 0 0];

internalField   nonuniform List<vector> 
400
(
(1.08172e-09 1.40063e-09 0)
(9.9702e-10 -3.88583e-10 0)
(-1.18389e-09 -9.7221e-10 0)
(-2.24461e-09 -2.54387e-11 0)
(-2.26766e-10 4.4893e-10 0)
(1.66412e-09 3.58304e-10 0)
(3.73562e-09 7.57908e-10 0)
(1.64218e-09 1.21907e-09 0)
(-1.60819e-09 2.69757e-09 0)
(-2.57385e-09 2.48085e-09 0)
(-1.53708e-09 3.55066e-09 0)
(-3.60114e-10 1.53701e-09 0)
(-8.83031e-10 -1.01182e-09 0)
(-2.86504e-09 3.69713e-10 0)
(-3.97333e-09 1.49493e-09 0)
(-3.19025e-09 2.02275e-09 0)
(-2.65093e-09 1.35386e-09 0)
(-1.24269e-09 -1.43563e-10 0)
(1.25189e-09 -1.89172e-09 0)
(4.7919e-11 -1.28021e-09 0)
(-8.50335e-10 2.29942e-09 0)
(-3.18613e-10 -1.41758e-09 0)
(-1.03108e-09 -1.9271e-09 0)
(-1.17566e-09 5.05896e-10 0)
(-8.95114e-10 9.99951e-10 0)
(1.26125e-09 1.58705e-09 0)
(2.61997e-09 2.63286e-09 0)
(2.5571e-09 4.62498e-09 0)
(-6.72696e-11 3.38767e-09 0)
(-2.06921e-09 5.01295e-09 0)
(1.00877e-09 9.42162e-10 0)
(-3.77222e-09 1.8255e-09 0)
(6.25623e-10 -2.96015e-09 0)
(1.13577e-09 -2.48485e-09 0)
(-1.09498e-09 2.3122e-09 0)
(-2.43661e-09 4.33978e-09 0)
(-4.60727e-09 3.92162e-09 0)
(-3.89219e-09 2.24904e-09 0)
(-1.442e-10 -1.44598e-09 0)
(3.12704e-09 -1.84889e-09 0)
(-1.98286e-09 4.60715e-10 0)
(-1.75305e-09 -1.22841e-09 0)
(-5.61695e-11 -6.35951e-10 0)
(-3.2454e-11 6.92745e-10 0)
(-8.15232e-10 2.1465e-10 0)
(2.76722e-10 2.70842e-09 0)
(2.78921e-09 4.5854e-09 0)
(1.70789e-10 5.14392e-09 0)
(2.56156e-09 -2.74602e-09 0)
(-3.64552e-09 1.48026e-09 0)
(1.36846e-09 -2.02656e-09 0)
(2.84275e-09 -5.88297e-09 0)
(-2.7802e-09 -1.47039e-09 0)
(6.86026e-09 -6.69797e-09 0)
(7.50768e-09 -3.33054e-09 0)
(1.08135e-09 1.66972e-09 0)
(-3.81881e-09 4.06989e-09 0)
(-5.49213e-09 4.30655e-09 0)
(-2.51393e-09 1.76837e-09 0)
(3.28472e-09 -2.05251e-10 0)
(-1.30138e-09 -1.59097e-09 0)
(-1.49824e-09 5.4313e-10 0)
(3.09869e-10 1.68432e-09 0)
(1.70778e-10 -5.56724e-10 0)
(-7.2368e-10 -9.20987e-10 0)
(1.25313e-09 2.26851e-09 0)
(5.58962e-10 5.5812e-09 0)
(-1.99379e-10 -5.67342e-09 0)
(-2.46955e-09 -9.90342e-10 0)
(7.80999e-09 -9.27389e-09 0)
(-1.15554e-08 3.69279e-09 0)
(7.04866e-09 -5.0873e-09 0)
(-2.02169e-10 -2.56562e-09 0)
(-2.36238e-09 7.99067e-10 0)
(1.29792e-08 -5.71898e-09 0)
(1.07426e-08 -5.025e-09 0)
(1.11222e-09 4.50787e-10 0)
(-4.93305e-09 3.94873e-09 0)
(-4.53754e-09 4.25416e-09 0)
(1.53477e-09 1.69668e-09 0)
(5.38756e-10 -1.55701e-09 0)
(-1.45467e-10 1.79864e-09 0)
(1.86284e-10 2.1539e-09 0)
(-6.50752e-10 -1.64112e-09 0)
(2.57935e-10 -1.71921e-09 0)
(2.03086e-09 2.78601e-09 0)
(-3.82257e-09 -1.66068e-09 0)
(1.25092e-09 -7.30369e-09 0)
(-5.98318e-09 -7.06984e-10 0)
(2.80922e-09 8.60715e-10 0)
(1.23093e-08 -6.26956e-09 0)
(-1.50801e-08 1.23781e-08 0)
(7.11435e-09 8.60382e-10 0)
(-2.35436e-09 3.45867e-09 0)
(-2.81249e-09 8.09289e-10 0)
(1.1216e-08 -5.4269e-09 0)
(9.85368e-09 -3.42934e-09 0)
(-6.28618e-10 2.71923e-09 0)
(-6.45974e-09 6.44628e-09 0)
(-3.43034e-09 3.49434e-09 0)
(1.23551e-09 1.22847e-10 0)
(9.60851e-10 1.85673e-09 0)
(-4.6314e-10 6.93814e-10 0)
(-1.25879e-09 -2.25649e-09 0)
(1.91265e-09 -6.66428e-10 0)
(-6.9508e-10 6.98403e-10 0)
(-8.99884e-10 -5.39366e-09 0)
(-7.12255e-09 2.19214e-11 0)
(1.19245e-08 -2.20968e-09 0)
(-1.80706e-08 1.16509e-08 0)
(1.23983e-08 -4.82289e-09 0)
(8.98446e-09 -8.75251e-09 0)
(-1.89396e-08 1.38723e-08 0)
(-1.29924e-09 3.83785e-09 0)
(-1.4981e-09 1.44001e-09 0)
(3.00034e-09 -1.86423e-09 0)
(1.03612e-08 -3.67898e-09 0)
(5.77689e-09 5.43188e-10 0)
(-3.98192e-09 5.07359e-09 0)
(-8.11344e-09 3.30528e-09 0)
(5.13093e-10 1.25127e-09 0)
(1.05258e-09 8.86476e-10 0)
(-1.21458e-09 -1.04086e-09 0)
(-8.46239e-10 -1.29694e-09 0)
(1.45346e-09 6.47095e-10 0)
(5.75646e-10 -8.48961e-10 0)
(-4.1078e-09 -1.05146e-09 0)
(1.28611e-09 1.38046e-09 0)
(-4.50321e-09 6.51273e-09 0)
(2.7658e-08 -3.14879e-08 0)
(-8.41977e-08 1.32103e-07 0)
(3.14287e-08 -2.32364e-08 0)
(2.25636e-08 -9.11995e-09 0)
(-1.81599e-08 3.10214e-09 0)
(-8.73282e-09 2.40936e-10 0)
(2.00558e-09 -1.90137e-09 0)
(9.57373e-09 -2.94223e-09 0)
(8.74367e-09 -1.8295e-09 0)
(-7.85156e-10 7.74738e-10 0)
(-9.21843e-09 8.21139e-10 0)
(-6.38674e-10 8.4957e-10 0)
(5.63627e-10 -7.21038e-10 0)
(-1.25007e-09 -1.83702e-09 0)
(-4.43377e-10 1.12124e-09 0)
(2.11854e-09 2.04741e-09 0)
(-2.23209e-10 -1.22051e-09 0)
(-7.17098e-10 2.29795e-09 0)
(-1.09301e-10 4.39533e-09 0)
(-2.08803e-08 -6.52357e-09 0)
(1.35449e-07 1.8855e-08 0)
(1.46937e-07 -1.25987e-07 0)
(-1.88214e-07 2.79744e-08 0)
(2.72334e-08 -9.94218e-10 0)
(1.30626e-08 -7.83937e-09 0)
(-7.03809e-09 -1.65772e-09 0)
(-1.33534e-09 -3.39796e-10 0)
(8.03347e-09 -2.82557e-09 0)
(9.70311e-09 -4.3013e-09 0)
(2.11124e-09 -3.9521e-09 0)
(-7.00982e-09 -1.68604e-09 0)
(-1.06537e-09 -5.15069e-10 0)
(4.61802e-11 -1.9851e-09 0)
(-1.723e-10 -1.23041e-09 0)
(6.46907e-10 3.29621e-09 0)
(8.61009e-10 3.59564e-09 0)
(1.10594e-09 -2.78603e-09 0)
(-6.83802e-10 1.2191e-10 0)
(-3.68035e-09 3.78107e-09 0)
(2.04491e-08 -3.94626e-09 0)
(-1.32691e-07 1.9327e-08 0)
(-1.4775e-07 -1.17409e-07 0)
(1.88313e-07 3.11105e-08 0)
(-3.36674e-08 1.44381e-09 0)
(-1.52691e-08 -1.8363e-09 0)
(3.05461e-09 1.97283e-09 0)
(2.34859e-09 4.63793e-09 0)
(9.45618e-09 5.84762e-10 0)
(6.51844e-09 -5.26304e-09 0)
(3.25612e-09 -7.3772e-09 0)
(-4.99164e-09 -3.29716e-09 0)
(-7.99082e-10 -1.53833e-09 0)
(3.56184e-10 -1.71931e-09 0)
(1.34758e-09 -1.39757e-10 0)
(1.69938e-09 3.568e-09 0)
(-7.75219e-10 3.26755e-09 0)
(-1.07654e-09 -2.54734e-09 0)
(7.97767e-10 -4.89698e-09 0)
(-1.56755e-10 -7.68627e-10 0)
(6.59609e-10 9.82731e-09 0)
(-2.3873e-08 -1.13316e-08 0)
(9.24785e-08 1.1144e-07 0)
(-4.73448e-08 -1.01851e-08 0)
(-2.33114e-08 4.66621e-10 0)
(1.33573e-08 1.13625e-08 0)
(5.3845e-09 1.03215e-08 0)
(-1.56174e-09 7.73458e-09 0)
(-1.06057e-08 2.39453e-09 0)
(-2.20514e-09 -4.22098e-09 0)
(2.31346e-09 -6.29882e-09 0)
(4.48322e-09 -2.69659e-09 0)
(-8.47019e-11 -1.305e-09 0)
(9.21445e-10 -1.016e-10 0)
(2.42487e-09 8.018e-10 0)
(2.21218e-09 4.96873e-10 0)
(-1.82197e-09 1.34037e-09 0)
(-2.92511e-09 1.58056e-10 0)
(-5.95009e-10 -4.53558e-09 0)
(4.76352e-09 -3.75636e-09 0)
(5.14141e-09 -1.36092e-10 0)
(-1.24779e-09 1.97061e-08 0)
(-1.84189e-08 -5.0753e-08 0)
(2.48703e-08 -1.35411e-08 0)
(4.26373e-09 2.11896e-08 0)
(-8.22124e-10 7.69722e-09 0)
(1.83232e-09 4.40867e-09 0)
(-8.29291e-09 1.85205e-09 0)
(-1.35676e-08 -1.58703e-09 0)
(-6.84611e-09 -2.0979e-09 0)
(2.31549e-09 -1.36595e-09 0)
(4.29039e-09 -4.0843e-10 0)
(5.92701e-10 -2.06199e-10 0)
(1.391e-09 1.40853e-09 0)
(1.64383e-09 1.20193e-09 0)
(2.12928e-09 -2.72628e-09 0)
(-8.57166e-10 -2.85641e-09 0)
(-3.11908e-09 3.61117e-09 0)
(-1.64253e-09 9.38343e-10 0)
(3.37671e-09 -2.45235e-09 0)
(3.38061e-09 -4.74862e-09 0)
(-3.19026e-08 -1.90577e-08 0)
(1.35575e-07 5.1938e-08 0)
(8.82938e-08 6.12207e-09 0)
(7.42187e-09 -1.61952e-08 0)
(-8.89147e-09 -6.51926e-09 0)
(-5.11592e-09 -5.6321e-09 0)
(-1.32142e-08 -7.06014e-09 0)
(-1.21682e-08 -2.79895e-09 0)
(-2.13789e-09 1.65269e-09 0)
(4.34934e-09 3.15469e-09 0)
(4.01434e-09 1.51142e-09 0)
(1.25883e-09 5.27968e-10 0)
(1.2239e-09 1.33152e-09 0)
(-7.22905e-11 1.21224e-09 0)
(2.91796e-10 -3.41446e-09 0)
(1.25584e-09 -5.3081e-09 0)
(-1.44263e-09 1.59154e-09 0)
(5.76853e-10 7.37707e-09 0)
(-4.37252e-09 6.24882e-10 0)
(6.06339e-09 -1.12423e-09 0)
(2.1065e-08 -2.91553e-08 0)
(-1.11582e-07 6.30975e-08 0)
(-8.32981e-08 -1.92338e-08 0)
(-1.93302e-08 -2.00736e-08 0)
(1.14791e-08 -1.00955e-08 0)
(-5.02337e-09 -9.67609e-09 0)
(-7.13324e-09 -5.6325e-09 0)
(-3.58817e-10 2.39934e-09 0)
(4.69587e-09 5.33091e-09 0)
(5.13983e-09 4.33633e-09 0)
(1.69738e-09 1.81601e-09 0)
(1.87629e-09 2.26877e-10 0)
(7.61883e-10 -3.59552e-10 0)
(-1.41694e-09 8.65433e-10 0)
(-1.5131e-09 -6.52163e-10 0)
(1.04394e-09 -3.99586e-09 0)
(2.16733e-09 -1.46623e-09 0)
(-1.05694e-09 5.26733e-09 0)
(3.56973e-10 4.70071e-09 0)
(-1.49998e-08 2.87329e-09 0)
(2.76781e-08 7.2428e-09 0)
(-2.54924e-08 -5.70135e-08 0)
(-3.42729e-08 -1.79608e-08 0)
(2.15518e-08 2.50802e-09 0)
(5.42403e-10 -4.45311e-09 0)
(-2.06782e-09 -3.98674e-09 0)
(4.28108e-09 2.04622e-09 0)
(6.96985e-09 5.65624e-09 0)
(5.62005e-09 4.3864e-09 0)
(2.56785e-09 1.06632e-09 0)
(-9.79517e-10 -2.20265e-10 0)
(2.09437e-09 -4.99235e-10 0)
(6.72534e-10 -2.22748e-09 0)
(-7.48846e-10 -1.04937e-10 0)
(-2.23637e-09 3.40923e-09 0)
(-3.0285e-10 5.84878e-10 0)
(1.76778e-09 -3.09597e-09 0)
(1.05412e-09 -6.58703e-10 0)
(-1.93514e-09 3.11407e-09 0)
(6.27394e-10 4.44439e-09 0)
(-4.63086e-09 1.83413e-08 0)
(-1.17166e-09 -1.30174e-08 0)
(1.07012e-08 1.72602e-08 0)
(2.74279e-09 5.71261e-09 0)
(2.82514e-09 2.79132e-09 0)
(5.56035e-09 5.27395e-09 0)
(8.28059e-09 6.34842e-09 0)
(6.69981e-09 4.41461e-09 0)
(1.75608e-09 1.24751e-10 0)
(-1.72174e-09 -4.17147e-09 0)
(-1.13534e-09 -2.87635e-09 0)
(1.61277e-09 -5.29138e-10 0)
(6.81811e-10 -2.57797e-09 0)
(1.50906e-09 -1.47057e-09 0)
(-8.51072e-10 4.48036e-09 0)
(-2.38334e-09 5.02409e-09 0)
(-2.83828e-10 -2.23986e-09 0)
(2.38036e-10 -5.77488e-09 0)
(1.13335e-09 -2.49317e-09 0)
(-7.7869e-11 8.95865e-10 0)
(1.80156e-10 4.60679e-09 0)
(-1.19096e-09 1.27934e-08 0)
(2.00197e-09 8.69398e-09 0)
(4.68987e-09 7.46471e-09 0)
(3.38326e-09 7.51444e-09 0)
(5.46483e-09 8.11651e-09 0)
(5.96132e-09 5.86007e-09 0)
(-8.1104e-13 5.86558e-10 0)
(-6.07269e-09 -4.06184e-09 0)
(-5.49381e-09 -6.34874e-09 0)
(1.97532e-09 -3.30971e-09 0)
(6.08393e-10 5.53104e-10 0)
(3.82336e-10 -6.1075e-10 0)
(2.99036e-09 -2.27087e-09 0)
(1.47037e-09 8.63075e-10 0)
(-2.94709e-09 4.18608e-09 0)
(-2.85165e-09 9.66928e-10 0)
(-8.61199e-10 -6.02966e-09 0)
(1.16836e-09 -5.22612e-09 0)
(8.08964e-10 -4.59669e-09 0)
(2.59659e-09 -1.92408e-09 0)
(3.29552e-10 -1.03127e-09 0)
(1.45228e-09 2.22195e-09 0)
(1.45117e-09 3.45938e-09 0)
(2.35462e-09 3.72445e-09 0)
(3.58071e-09 3.4699e-09 0)
(-1.96964e-09 -1.90464e-10 0)
(-8.69976e-09 -4.02143e-09 0)
(-1.04355e-08 -4.4911e-09 0)
(-4.77377e-09 -2.71895e-09 0)
(5.61327e-09 -6.61198e-10 0)
(-2.67558e-10 2.37841e-09 0)
(-8.10125e-10 1.8638e-09 0)
(1.9068e-09 -1.7207e-09 0)
(2.04655e-09 -4.50887e-09 0)
(-1.1127e-09 -1.48847e-09 0)
(-2.84563e-09 1.66102e-09 0)
(-9.95565e-10 2.25742e-10 0)
(4.14633e-10 -2.6061e-09 0)
(5.44185e-10 -2.93829e-09 0)
(-9.76928e-10 -5.00362e-09 0)
(-4.27338e-10 -5.95605e-09 0)
(2.56294e-09 -3.02404e-09 0)
(1.21685e-09 -1.96864e-09 0)
(9.74006e-10 -2.29854e-09 0)
(-2.23204e-09 -5.27224e-09 0)
(-7.45224e-09 -6.72913e-09 0)
(-9.54822e-09 -4.68717e-09 0)
(-7.48057e-09 1.02134e-10 0)
(-9.52739e-10 4.45902e-09 0)
(6.189e-09 3.21655e-09 0)
(-1.58361e-09 3.59345e-09 0)
(-2.36638e-09 3.02985e-09 0)
(-1.19959e-09 -6.07208e-10 0)
(5.45089e-10 -6.14197e-09 0)
(1.11098e-09 -6.01694e-09 0)
(6.81162e-10 -2.75891e-10 0)
(7.18029e-10 3.81679e-09 0)
(3.30768e-10 2.7655e-09 0)
(-6.25433e-10 1.04372e-09 0)
(-1.53234e-09 -1.09598e-09 0)
(3.43151e-10 -1.02276e-09 0)
(1.51992e-09 -1.37341e-09 0)
(2.71359e-10 -1.99129e-09 0)
(-1.83966e-09 -4.6774e-09 0)
(-4.09107e-09 -7.86788e-09 0)
(-3.74581e-09 -6.58613e-09 0)
(-1.43527e-09 -1.47845e-09 0)
(1.15847e-09 4.69236e-09 0)
(3.3415e-09 8.56855e-09 0)
(2.18251e-09 4.86205e-09 0)
(-2.94042e-09 1.89874e-09 0)
(-3.68052e-09 1.62731e-09 0)
(-4.03999e-09 -4.59766e-11 0)
(-1.565e-09 -2.7353e-09 0)
(2.28491e-09 -3.43548e-09 0)
(3.79107e-09 -7.9397e-10 0)
(3.04767e-09 1.82168e-09 0)
(6.18745e-10 2.15185e-09 0)
(-1.22241e-09 1.34224e-09 0)
(-1.57046e-09 6.5958e-10 0)
(6.74526e-10 5.44064e-10 0)
(1.19894e-09 1.48187e-10 0)
(-4.97713e-10 -3.92377e-10 0)
(-2.75557e-09 -1.95213e-09 0)
(-2.47649e-09 -3.1291e-09 0)
(1.65669e-09 -2.20056e-09 0)
(6.00209e-09 3.27869e-10 0)
(7.22148e-09 3.05146e-09 0)
(4.33993e-09 4.40001e-09 0)
(-3.00337e-09 2.29027e-09 0)
)
;

boundaryField
{
    sides
    {
        type            calculated;
        value           nonuniform List<vector> 
40
(
(-2.94042e-09 0 0)
(-3.68052e-09 0 0)
(-4.03999e-09 0 0)
(-1.565e-09 0 0)
(2.28491e-09 0 0)
(3.79107e-09 0 0)
(3.04767e-09 0 0)
(6.18745e-10 0 0)
(-1.22241e-09 0 0)
(-1.57046e-09 0 0)
(6.74526e-10 0 0)
(1.19894e-09 0 0)
(-4.97713e-10 0 0)
(-2.75557e-09 0 0)
(-2.47649e-09 0 0)
(1.65669e-09 0 0)
(6.00209e-09 0 0)
(7.22148e-09 0 0)
(4.33993e-09 0 0)
(-3.00337e-09 0 0)
(1.08172e-09 0 0)
(9.9702e-10 0 0)
(-1.18389e-09 0 0)
(-2.24461e-09 0 0)
(-2.26766e-10 0 0)
(1.66412e-09 0 0)
(3.73562e-09 0 0)
(1.64218e-09 0 0)
(-1.60819e-09 0 0)
(-2.57385e-09 0 0)
(-1.53708e-09 0 0)
(-3.60114e-10 0 0)
(-8.83031e-10 0 0)
(-2.86504e-09 0 0)
(-3.97333e-09 0 0)
(-3.19025e-09 0 0)
(-2.65093e-09 0 0)
(-1.24269e-09 0 0)
(1.25189e-09 0 0)
(4.7919e-11 0 0)
)
;
    }
    inlet
    {
        type            calculated;
        value           uniform (0 0 0);
    }
    outlet
    {
        type            calculated;
        value           nonuniform List<vector> 
20
(
(4.7919e-11 -1.28021e-09 0)
(3.12704e-09 -1.84889e-09 0)
(3.28472e-09 -2.05251e-10 0)
(1.53477e-09 1.69668e-09 0)
(-3.43034e-09 3.49434e-09 0)
(-8.11344e-09 3.30528e-09 0)
(-9.21843e-09 8.21139e-10 0)
(-7.00982e-09 -1.68604e-09 0)
(-4.99164e-09 -3.29716e-09 0)
(4.48322e-09 -2.69659e-09 0)
(4.29039e-09 -4.0843e-10 0)
(4.01434e-09 1.51142e-09 0)
(1.69738e-09 1.81601e-09 0)
(-9.79517e-10 -2.20265e-10 0)
(-1.13534e-09 -2.87635e-09 0)
(1.97532e-09 -3.30971e-09 0)
(5.61327e-09 -6.61198e-10 0)
(6.189e-09 3.21655e-09 0)
(2.18251e-09 4.86205e-09 0)
(-3.00337e-09 2.29027e-09 0)
)
;
    }
    frontAndBack
    {
        type            empty;
    }
}


// ************************************************************************* //
