/*--------------------------------*- C++ -*----------------------------------*\
  =========                 |
  \\      /  F ield         | OpenFOAM: The Open Source CFD Toolbox
   \\    /   O peration     | Website:  https://openfoam.org
    \\  /    A nd           | Version:  9
     \\/     M anipulation  |
\*---------------------------------------------------------------------------*/
FoamFile
{
    format      ascii;
    class       surfaceScalarField;
    location    "90";
    object      ddtCorrDdt0(phi);
}
// * * * * * * * * * * * * * * * * * * * * * * * * * * * * * * * * * * * * * //

dimensions      [0 4 -2 0 0 0 0];

internalField   nonuniform List<scalar> 
760
(
1.91317e-11
9.49011e-12
-4.34965e-12
-1.09196e-11
-1.08848e-11
-9.22098e-12
-5.94637e-12
3.38804e-12
-2.31809e-12
9.30996e-12
1.51216e-11
5.58892e-12
1.7994e-11
1.13128e-11
2.78981e-12
1.3827e-11
-1.85254e-11
2.84057e-11
-1.15604e-11
1.4635e-11
2.52247e-12
-4.55888e-12
3.74564e-12
1.27963e-11
-1.59289e-11
-1.61373e-11
-2.37841e-11
1.23718e-12
-1.48115e-11
1.32846e-11
-1.31047e-11
1.95012e-11
-1.26229e-11
1.54196e-11
5.21844e-12
5.4699e-12
3.94459e-12
-9.40086e-12
-9.9088e-12
2.47751e-14
8.31987e-12
-7.20707e-12
-1.24864e-11
-1.89532e-12
-9.7986e-12
-4.93544e-12
6.79008e-12
-7.79843e-12
6.17524e-12
1.2528e-11
1.3076e-11
1.58644e-11
1.9972e-11
1.46222e-11
3.77069e-11
-1.92203e-11
2.16548e-12
6.10728e-12
2.20936e-11
-8.40362e-12
-2.00134e-11
-1.00442e-11
-7.5623e-12
7.75542e-12
-2.73974e-11
-4.81556e-12
-3.13079e-11
-4.49568e-12
5.18752e-12
-1.71528e-11
1.96177e-11
-2.63243e-11
2.05089e-11
-1.13966e-11
1.43952e-11
1.01628e-11
-2.10231e-12
-6.80338e-12
-2.17715e-11
-4.61139e-12
-4.28621e-12
-2.49811e-12
1.15383e-11
3.37406e-12
-8.42742e-12
1.78811e-12
-8.01784e-12
-3.23602e-12
9.3676e-12
1.55466e-11
2.35429e-11
2.97881e-11
-7.80506e-12
1.70478e-11
1.07684e-11
-3.85832e-11
-3.14971e-11
-1.55319e-11
3.97351e-11
9.48898e-12
-2.09751e-11
-6.31099e-11
1.06836e-11
3.89997e-12
4.65792e-11
-3.71166e-11
2.28162e-11
-4.16302e-11
-8.30264e-12
-1.06604e-11
-2.5682e-11
1.21146e-11
-2.85047e-11
2.23402e-11
3.04489e-12
1.72537e-11
4.42107e-12
-2.29628e-11
-1.18665e-11
2.42962e-12
7.82036e-12
1.12987e-11
1.41576e-11
-1.53926e-11
-7.70251e-12
3.25248e-12
-6.41104e-12
1.30525e-11
8.70984e-12
1.82236e-11
2.95999e-11
-5.05517e-11
-7.76072e-11
4.89559e-11
2.49375e-11
-1.83721e-11
-7.87544e-11
-3.18588e-11
3.4799e-11
5.00501e-11
1.1555e-11
-3.9436e-11
-2.54901e-11
4.09699e-11
4.35317e-11
7.04662e-11
-1.07528e-11
2.8124e-11
-4.221e-11
-1.42555e-11
-1.57112e-11
-3.34064e-11
1.59335e-11
-6.73148e-12
3.10286e-11
1.60292e-11
-6.61837e-12
-3.81928e-12
1.0289e-11
1.12796e-11
-5.55936e-12
8.28579e-12
-1.29175e-11
-9.65624e-12
1.27607e-11
-1.16738e-11
3.60169e-11
2.07347e-11
-7.50095e-11
-5.30696e-11
4.66479e-11
8.12882e-12
-7.13868e-11
-3.43186e-11
1.1141e-10
1.24022e-10
-5.90279e-11
-1.62892e-10
-1.23439e-11
1.28918e-10
3.33746e-11
4.4262e-11
-3.59252e-11
-1.65211e-11
2.76294e-11
2.13554e-11
6.29826e-11
-3.82368e-12
2.10377e-11
-1.82294e-11
-2.42542e-11
7.86716e-12
-2.56725e-11
3.27294e-11
1.94631e-11
8.99137e-12
5.97487e-12
9.69703e-12
8.77409e-12
-1.81805e-11
-1.09086e-12
-1.3492e-11
-1.36962e-11
4.60165e-11
5.18442e-12
-2.23412e-11
-1.51289e-11
-3.82228e-11
-6.49046e-12
1.49693e-11
-5.17714e-12
2.96281e-11
3.36736e-11
-1.03966e-10
-3.94921e-12
1.61341e-10
-8.35629e-12
-9.50143e-11
-2.89409e-10
-3.78136e-11
8.16126e-11
2.44625e-12
5.4424e-11
-8.69801e-12
-6.74506e-12
3.88511e-11
-5.76032e-12
4.76712e-11
-1.07877e-11
7.3974e-12
-4.70523e-13
-3.3805e-11
1.5843e-11
1.08878e-11
1.49452e-11
7.68466e-12
3.21345e-12
7.80749e-13
-2.80315e-11
-9.78096e-12
5.62501e-12
3.99062e-13
3.12289e-11
1.48446e-12
-2.18683e-11
7.39281e-12
-2.93885e-11
-3.48447e-12
6.64975e-12
1.97572e-11
9.09112e-11
4.54682e-11
-1.70202e-10
-4.13677e-10
-1.95138e-10
1.57177e-09
2.57289e-10
1.37026e-10
-5.31718e-11
-1.85535e-10
-6.97925e-11
-2.95682e-11
-1.59152e-11
1.22166e-11
2.99198e-11
1.81622e-13
5.55649e-11
-7.78744e-12
2.82688e-11
-1.81168e-11
-2.94544e-11
-8.80262e-12
-4.11765e-12
1.23043e-11
5.23301e-13
-6.41805e-12
-8.69459e-12
-1.84372e-11
-8.61556e-12
6.20968e-12
1.17324e-11
3.24252e-11
1.92057e-11
-2.56671e-11
-1.79866e-11
-1.83847e-11
3.76424e-11
7.53539e-11
-1.92727e-11
-2.99391e-10
-1.26487e-10
1.91651e-09
6.1719e-10
-1.17177e-09
-5.16996e-08
-6.26684e-11
5.7989e-11
1.27325e-10
1.40083e-10
-8.13797e-13
-3.12505e-11
-3.46939e-11
2.25471e-12
2.06638e-11
-1.49796e-12
5.32476e-11
-9.99357e-12
4.04691e-11
-2.90331e-11
-1.88305e-11
-3.23035e-11
-1.13943e-11
5.10158e-12
-7.34847e-12
-8.72809e-12
-1.25659e-11
-2.18443e-12
-2.79351e-12
1.37303e-11
2.37969e-11
-2.88624e-12
1.4821e-11
1.13827e-11
-9.48917e-12
3.14889e-12
-3.04469e-11
-9.02546e-11
3.24582e-11
3.06473e-10
7.33347e-11
-1.90302e-09
-4.20005e-10
1.18132e-09
1.51835e-09
3.68685e-11
1.68387e-10
-1.55966e-10
-1.8167e-10
-6.00293e-12
-3.61672e-11
1.51254e-11
5.64054e-11
2.02816e-11
3.63538e-11
4.82319e-11
-1.60752e-09
3.20669e-11
-2.14431e-11
-7.54916e-12
-2.72474e-11
-4.80252e-10
4.90851e-14
-9.13367e-12
-4.44897e-12
-5.39575e-12
1.90014e-11
2.41994e-12
1.02535e-11
1.47112e-11
-2.59229e-11
1.42545e-11
8.00262e-13
-1.93802e-11
2.50406e-11
-2.13093e-11
-5.69407e-12
-1.47131e-11
-1.16366e-10
4.14105e-11
2.43382e-10
1.76281e-10
1.47305e-10
-1.91782e-10
-3.01879e-10
-1.27767e-10
5.35202e-11
1.37843e-10
3.61534e-11
6.21303e-11
9.03245e-12
5.60064e-11
-3.53751e-11
3.98709e-11
-3.45939e-11
8.98509e-12
5.31156e-12
-1.39819e-11
1.80243e-11
-1.8299e-11
-6.14838e-12
2.66482e-12
-3.17774e-12
-1.80635e-13
4.96755e-12
2.77554e-11
5.88722e-12
1.50814e-11
-1.00927e-11
-4.82503e-11
4.12314e-13
-7.44612e-12
1.04006e-11
2.67014e-11
-2.94004e-11
5.6238e-12
-7.05654e-12
8.57563e-11
-1.6664e-12
-1.66721e-10
-3.38405e-11
8.51177e-11
-1.16054e-09
6.77757e-11
-1.2174e-10
-2.26904e-12
5.14118e-11
1.07344e-11
1.82806e-11
-1.49993e-11
5.40928e-12
-6.43343e-11
-4.23983e-12
-5.59242e-11
-1.11026e-11
-6.79311e-12
-4.50217e-12
2.14516e-11
5.20155e-12
2.15816e-12
9.60758e-12
2.7543e-12
1.77821e-12
1.01882e-11
1.45992e-11
4.36856e-12
2.06291e-11
-2.04016e-11
-2.72322e-11
-2.6684e-11
-3.60996e-11
2.66708e-11
2.64196e-11
2.11719e-11
-5.49832e-12
-1.37623e-11
1.45033e-10
-8.17992e-11
-2.13745e-10
-1.81019e-10
9.34181e-10
3.96294e-08
1.82984e-10
4.28388e-10
-5.10433e-11
-1.82214e-10
-2.27366e-11
-6.24808e-11
-4.29499e-11
-4.23213e-11
-7.67181e-11
-2.70065e-11
-3.61378e-11
-1.21442e-11
1.21805e-11
1.58564e-11
2.29155e-11
2.09564e-11
1.00809e-11
1.52205e-11
3.02076e-12
6.70123e-13
3.17326e-12
-6.4361e-12
5.51255e-12
1.06173e-11
-1.65501e-11
1.04428e-11
-2.63634e-11
-2.54914e-11
-1.78782e-12
4.95129e-12
4.75567e-11
8.32201e-12
3.01219e-12
-9.74922e-11
3.77806e-11
1.71799e-10
-1.94354e-10
-7.79258e-10
-2.31647e-10
-2.647e-10
-4.09838e-10
5.24485e-11
-3.55996e-12
1.1864e-11
-2.69086e-11
-4.27615e-11
-5.49987e-11
-1.87113e-11
-1.68168e-11
1.20768e-11
1.40061e-11
2.87502e-11
2.7572e-11
1.80137e-11
1.77173e-11
6.02229e-12
1.24595e-11
-1.51306e-12
5.38435e-12
-8.00551e-12
-2.50884e-11
2.5334e-12
-2.03092e-12
8.78396e-12
2.34581e-11
-1.46403e-11
1.13121e-11
-1.03593e-11
-2.45476e-11
9.97316e-12
1.00039e-11
4.42657e-11
-1.23445e-10
4.54853e-12
2.71915e-10
1.77811e-10
-3.991e-10
-2.60622e-10
8.98556e-11
1.0249e-10
4.11082e-11
-2.0877e-12
-1.53202e-11
-2.53743e-11
8.47378e-12
3.85154e-12
3.37174e-11
2.1561e-11
2.79187e-11
2.51198e-11
2.13694e-11
1.13417e-11
5.10161e-12
-8.20542e-12
-8.18483e-12
3.0484e-12
-4.34697e-12
1.47013e-11
-1.57704e-11
-1.85493e-11
-3.55239e-12
-2.35534e-11
2.63981e-11
2.20678e-11
1.90934e-11
1.99185e-11
-2.33317e-11
-1.07415e-11
-1.39799e-11
-1.02937e-11
-3.5222e-12
5.2544e-12
3.19567e-11
-5.34376e-11
2.62367e-11
5.34941e-11
-3.40314e-10
2.9831e-11
5.07101e-11
1.10858e-11
3.89932e-11
2.16484e-11
3.91639e-11
3.77318e-11
3.83051e-11
4.32707e-11
3.50069e-11
1.5891e-11
1.85244e-11
-4.62618e-12
-8.82286e-12
-5.29636e-12
-3.1087e-11
-1.86131e-11
-9.67751e-12
-1.41366e-12
2.2893e-11
-1.10721e-11
6.02181e-12
-1.11728e-11
-2.65273e-11
2.14136e-11
-1.12375e-11
3.20771e-11
2.45745e-11
-4.47746e-12
-8.36962e-12
-4.63897e-11
8.23118e-12
-2.09038e-11
-4.50613e-12
-1.93405e-11
-3.18619e-12
1.99751e-11
-2.35697e-12
4.95876e-11
1.71642e-11
3.97535e-11
2.24466e-11
4.15874e-11
2.29164e-11
3.6543e-11
3.33092e-11
4.06778e-11
1.9084e-11
2.44448e-11
-2.22121e-11
-5.01956e-12
-3.99959e-11
-2.343e-11
-5.61058e-12
-2.72568e-11
-1.23621e-11
-1.74636e-11
6.72309e-12
1.87151e-11
4.89464e-12
3.04855e-11
-1.17578e-11
-1.4448e-11
-1.09097e-11
-3.11996e-11
1.23465e-11
-4.43458e-12
1.25258e-11
1.2868e-11
-1.91271e-11
-2.61165e-12
-3.52494e-11
1.55021e-11
-2.80928e-11
7.72979e-12
-3.24236e-11
-5.74954e-12
-1.77416e-11
1.03749e-11
-1.67369e-12
8.24357e-12
1.77052e-12
2.2593e-11
6.7536e-12
5.24332e-12
-3.49598e-12
-2.81305e-11
-2.13849e-11
-5.3698e-11
-2.71544e-11
-4.943e-11
-1.41819e-11
5.55039e-12
3.39604e-12
6.17148e-12
-1.55825e-11
1.85687e-11
1.66675e-12
1.52212e-11
2.78277e-11
-7.42614e-12
5.16605e-12
-3.73885e-11
-2.4692e-11
-2.53224e-11
-1.88164e-11
9.25882e-12
9.36175e-12
2.23247e-11
4.74913e-12
2.75005e-12
2.90862e-12
-8.3903e-12
-1.38421e-11
-2.22597e-11
1.07797e-11
-2.46546e-11
9.06332e-12
-1.77787e-11
6.57984e-12
-1.69595e-11
1.09346e-12
-2.8415e-11
-2.72642e-11
-4.88529e-11
-4.4751e-11
-4.60183e-11
-4.37514e-11
-2.2015e-11
-2.87678e-11
1.14906e-11
1.46972e-11
3.72134e-11
2.37593e-11
-1.26419e-11
1.78423e-11
-1.61063e-11
1.43921e-11
2.55253e-12
-3.40657e-12
1.2138e-11
-3.0282e-11
1.7916e-12
-3.37272e-11
-3.37035e-12
-1.51117e-12
3.31285e-12
2.47824e-11
4.15249e-12
2.3146e-11
-6.24809e-12
9.99493e-12
-9.36585e-12
-5.25049e-16
1.08261e-11
-3.39384e-12
7.99904e-12
-6.58152e-12
-5.10194e-12
-1.02968e-11
-1.93153e-11
-2.68925e-11
-2.1572e-11
-3.90303e-11
-1.13783e-11
-2.92748e-11
3.37897e-12
-4.88268e-12
9.90185e-12
2.26275e-11
1.20769e-11
3.86599e-11
2.22263e-11
-1.10225e-11
-3.02453e-11
-1.93993e-11
6.6478e-12
2.28809e-11
1.64534e-11
5.68272e-12
-3.82219e-13
-8.64975e-12
-6.42819e-12
1.0994e-11
8.10141e-12
-1.37115e-11
-2.22947e-11
-2.48251e-12
2.44636e-11
4.14233e-11
3.20834e-11
-1.84918e-12
)
;

boundaryField
{
    sides
    {
        type            calculated;
        value           uniform 0;
    }
    inlet
    {
        type            calculated;
        value           uniform 0;
    }
    outlet
    {
        type            calculated;
        value           nonuniform List<scalar> 
20
(
-5.96853e-12
1.8274e-11
2.90325e-11
2.04747e-11
-1.34849e-11
-5.06198e-11
-6.30384e-11
-4.91502e-11
-3.53674e-11
1.99786e-11
1.96868e-11
1.8516e-11
3.69344e-12
-9.89924e-12
-4.20197e-12
2.25484e-11
4.6584e-11
4.5976e-11
1.40085e-11
-2.14201e-11
)
;
    }
    frontAndBack
    {
        type            empty;
        value           nonuniform List<scalar> 0();
    }
}


// ************************************************************************* //
