/*--------------------------------*- C++ -*----------------------------------*\
  =========                 |
  \\      /  F ield         | OpenFOAM: The Open Source CFD Toolbox
   \\    /   O peration     | Website:  https://openfoam.org
    \\  /    A nd           | Version:  9
     \\/     M anipulation  |
\*---------------------------------------------------------------------------*/
FoamFile
{
    format      ascii;
    class       surfaceScalarField;
    location    "90";
    object      phi;
}
// * * * * * * * * * * * * * * * * * * * * * * * * * * * * * * * * * * * * * //

dimensions      [0 4 -1 0 0 0 0];

internalField   nonuniform List<scalar> 
760
(
5.0001e-06
-9.11577e-11
5.0004e-06
-3.06117e-10
5.00091e-06
-5.14329e-10
5.00162e-06
-7.06958e-10
5.00249e-06
-8.76388e-10
5.0035e-06
-1.00558e-09
5.00455e-06
-1.06106e-09
5.00557e-06
-1.01273e-09
5.0064e-06
-8.27674e-10
5.00692e-06
-5.17878e-10
5.00705e-06
-1.18913e-10
5.00665e-06
4.03794e-10
5.0058e-06
8.57735e-10
5.00469e-06
1.10643e-09
5.00352e-06
1.17619e-09
5.00257e-06
9.57703e-10
5.00186e-06
7.19623e-10
5.00162e-06
2.47305e-10
5.00151e-06
1.06201e-10
-3.92986e-10
5.00012e-06
-2.11341e-10
5.00045e-06
-6.34012e-10
5.00098e-06
-1.04803e-09
5.00172e-06
-1.44602e-09
5.00265e-06
-1.80939e-09
5.00374e-06
-2.09701e-09
5.00493e-06
-2.24725e-09
5.00611e-06
-2.18798e-09
5.00713e-06
-1.84832e-09
5.00777e-06
-1.16152e-09
5.00774e-06
-8.74785e-11
5.00726e-06
8.92541e-10
5.00627e-06
1.84594e-09
5.00495e-06
2.41585e-09
5.00368e-06
2.44934e-09
5.00277e-06
1.86476e-09
5.00225e-06
1.25153e-09
5.00191e-06
5.84051e-10
5.00166e-06
3.68107e-10
-1.48738e-10
5.00011e-06
-3.21042e-10
5.00043e-06
-9.53655e-10
5.00096e-06
-1.57856e-09
5.00172e-06
-2.20819e-09
5.00272e-06
-2.80943e-09
5.00394e-06
-3.318e-09
5.00532e-06
-3.62206e-09
5.00672e-06
-3.58938e-09
5.00793e-06
-3.0598e-09
5.00872e-06
-1.95943e-09
5.00894e-06
-3.03771e-10
5.00825e-06
1.56646e-09
5.00687e-06
3.22567e-09
5.00516e-06
4.12898e-09
5.00351e-06
4.08989e-09
5.00231e-06
3.05923e-09
5.00166e-06
1.89526e-09
5.00147e-06
7.7348e-10
5.00145e-06
3.97609e-10
-2.22078e-10
5.0001e-06
-4.22047e-10
5.00041e-06
-1.26296e-09
5.00094e-06
-2.11323e-09
5.00174e-06
-3.0107e-09
5.00285e-06
-3.91482e-09
5.00429e-06
-4.74851e-09
5.00602e-06
-5.34785e-09
5.00795e-06
-5.53307e-09
5.00984e-06
-4.95073e-09
5.01107e-06
-3.20176e-09
5.0112e-06
-4.30794e-10
5.01e-06
2.77079e-09
5.00765e-06
5.56513e-09
5.00515e-06
6.6361e-09
5.00348e-06
5.75812e-09
5.0027e-06
3.82606e-09
5.00247e-06
2.11195e-09
5.0023e-06
9.40064e-10
5.00199e-06
7.12156e-10
3.40369e-10
5.00008e-06
-5.03785e-10
5.00034e-06
-1.52178e-09
5.00083e-06
-2.60714e-09
5.00163e-06
-3.81262e-09
5.00286e-06
-5.13518e-09
5.00458e-06
-6.4627e-09
5.0068e-06
-7.57713e-09
5.00942e-06
-8.15067e-09
5.01239e-06
-7.92444e-09
5.01479e-06
-5.58783e-09
5.01482e-06
-4.84653e-10
5.01285e-06
4.75539e-09
5.00867e-06
9.74591e-09
5.0046e-06
1.07099e-08
5.00225e-06
8.11578e-09
5.00175e-06
4.32164e-09
5.00204e-06
1.80561e-09
5.00225e-06
7.27831e-10
5.00201e-06
9.56194e-10
6.29655e-10
5.00004e-06
-5.44983e-10
5.0002e-06
-1.67806e-09
5.00054e-06
-2.94856e-09
5.0012e-06
-4.4852e-09
5.00241e-06
-6.33277e-09
5.00452e-06
-8.57691e-09
5.0076e-06
-1.06536e-08
5.01167e-06
-1.22207e-08
5.01553e-06
-1.17753e-08
5.019e-06
-9.07202e-09
5.02022e-06
-1.67543e-09
5.01601e-06
8.92452e-09
5.0095e-06
1.62621e-08
5.00422e-06
1.60091e-08
5.00218e-06
1.01576e-08
5.0025e-06
3.99828e-09
5.00327e-06
1.03027e-09
5.00339e-06
6.00529e-10
5.00279e-06
1.55127e-09
1.42513e-09
4.99998e-06
-5.24899e-10
4.99994e-06
-1.63658e-09
5.00003e-06
-3.04216e-09
5.00036e-06
-4.81457e-09
5.00122e-06
-7.19273e-09
5.00292e-06
-1.02764e-08
5.0068e-06
-1.45341e-08
5.01392e-06
-1.93353e-08
5.02376e-06
-2.16021e-08
5.03092e-06
-1.62713e-08
5.02872e-06
5.3968e-10
5.01675e-06
2.09435e-08
5.00418e-06
2.87996e-08
4.99873e-06
2.14556e-08
5.00058e-06
8.31587e-09
5.00285e-06
1.72832e-09
5.00372e-06
1.61135e-10
5.00366e-06
6.51719e-10
5.00304e-06
2.16457e-09
1.68243e-09
4.99987e-06
-3.90669e-10
4.99955e-06
-1.323e-09
4.99912e-06
-2.6155e-09
4.99885e-06
-4.54395e-09
4.99933e-06
-7.66578e-09
5.00036e-06
-1.13065e-08
5.00365e-06
-1.78226e-08
5.00983e-06
-2.55117e-08
5.02486e-06
-3.6671e-08
5.05617e-06
-4.74458e-08
5.05001e-06
6.28993e-09
5.02319e-06
4.78122e-08
4.99819e-06
5.38227e-08
4.9935e-06
2.61394e-08
4.99947e-06
2.34707e-09
5.00408e-06
-2.87733e-09
5.00491e-06
-6.72479e-10
5.00373e-06
1.83145e-09
5.0035e-06
2.37791e-09
9.68882e-10
4.99977e-06
-1.58914e-10
4.99915e-06
-7.07219e-10
4.99792e-06
-1.38211e-09
4.99611e-06
-2.73185e-09
4.99402e-06
-5.57474e-09
4.99374e-06
-1.10277e-08
4.99945e-06
-2.35373e-08
5.01713e-06
-4.31984e-08
5.05572e-06
-7.523e-08
5.06678e-06
-5.86277e-08
5.04976e-06
2.37306e-08
4.99649e-06
1.01038e-07
4.9893e-06
6.09985e-08
4.99591e-06
1.95381e-08
5.00019e-06
-1.93209e-09
5.00293e-06
-5.61466e-09
5.00253e-06
-2.54895e-10
5.00184e-06
2.51185e-09
5.00254e-06
1.67361e-09
6.69309e-11
4.99986e-06
-1.68518e-11
4.9992e-06
-5.22671e-11
4.99791e-06
-8.70004e-11
4.99531e-06
-1.26698e-10
4.9899e-06
-1.66056e-10
4.97908e-06
-2.18351e-10
4.95582e-06
-2.72343e-10
4.91296e-06
-3.37948e-10
4.83813e-06
-4.08401e-10
4.78e-06
-4.39813e-10
4.80429e-06
-6.03511e-10
4.90602e-06
-7.267e-10
4.96779e-06
-7.30216e-10
4.98823e-06
-8.94933e-10
4.98745e-06
-1.15972e-09
4.98326e-06
-1.42691e-09
4.98456e-06
-1.5612e-09
4.98891e-06
-1.83161e-09
4.99248e-06
-1.89835e-09
-2.58608e-09
4.99986e-06
1.26204e-10
4.9992e-06
6.02785e-10
4.99791e-06
1.21312e-09
4.9953e-06
2.48277e-09
4.98987e-06
5.25028e-09
4.97905e-06
1.06027e-08
4.95577e-06
2.3011e-08
4.9129e-06
4.25408e-08
4.83804e-06
7.44555e-08
4.77974e-06
5.78412e-08
4.80425e-06
-2.50891e-08
4.90599e-06
-1.02474e-07
4.96776e-06
-6.25171e-08
4.98806e-06
-2.12021e-08
4.98735e-06
-4.56856e-10
4.98293e-06
2.99291e-09
4.98443e-06
-3.05381e-09
4.98889e-06
-6.28551e-09
4.99235e-06
-5.35664e-09
-4.98331e-09
4.99977e-06
3.59252e-10
4.99915e-06
1.22493e-09
4.99792e-06
2.44612e-09
4.99611e-06
4.2964e-09
4.99402e-06
7.32929e-09
4.99373e-06
1.08856e-08
4.99943e-06
1.73189e-08
5.01708e-06
2.4898e-08
5.05563e-06
3.59091e-08
5.06709e-06
4.63467e-08
5.04943e-06
-6.33675e-09
4.9961e-06
-4.90934e-08
4.98884e-06
-5.52819e-08
4.99569e-06
-2.80539e-08
5.0001e-06
-4.87093e-09
5.00231e-06
7.87134e-10
5.00166e-06
-2.3901e-09
5.00091e-06
-5.5298e-09
5.00169e-06
-6.13324e-09
-5.94988e-09
4.99987e-06
4.95158e-10
4.99955e-06
1.54331e-09
4.99911e-06
2.88209e-09
4.99883e-06
4.57907e-09
4.99928e-06
6.88342e-09
5.00027e-06
9.88786e-09
5.00348e-06
1.41067e-08
5.0096e-06
1.87733e-08
5.02459e-06
2.09254e-08
5.05556e-06
1.54082e-08
5.0498e-06
-1.64296e-09
5.02282e-06
-2.21881e-08
4.99787e-06
-3.03093e-08
4.99316e-06
-2.33362e-08
4.99864e-06
-1.03475e-08
5.00345e-06
-4.01945e-09
5.00373e-06
-2.66708e-09
5.00236e-06
-4.15657e-09
5.00216e-06
-5.94202e-09
-6.53507e-09
4.99998e-06
5.17113e-10
4.99993e-06
1.59192e-09
5e-06
2.80412e-09
5.00031e-06
4.27759e-09
5.00113e-06
6.06152e-09
5.0028e-06
8.22691e-09
5.00668e-06
1.02154e-08
5.01378e-06
1.16698e-08
5.02356e-06
1.11317e-08
5.03072e-06
8.29582e-09
5.02837e-06
6.27816e-10
5.01626e-06
-1.00156e-08
5.00351e-06
-1.75491e-08
4.99778e-06
-1.76046e-08
4.99942e-06
-1.19805e-08
5.00162e-06
-6.21322e-09
5.00241e-06
-3.46313e-09
5.00213e-06
-3.89017e-09
5.00119e-06
-5.01062e-09
-5.97896e-09
5.00004e-06
4.78099e-10
5.00018e-06
1.44584e-09
5.0005e-06
2.48122e-09
5.00114e-06
3.63243e-09
5.00232e-06
4.89693e-09
5.0044e-06
6.1561e-09
5.00742e-06
7.19328e-09
5.0114e-06
7.68553e-09
5.01513e-06
7.38807e-09
5.01853e-06
4.88535e-09
5.01956e-06
-3.97563e-10
5.01523e-06
-5.69023e-09
5.00854e-06
-1.08617e-08
5.00311e-06
-1.21711e-08
5.00088e-06
-9.74795e-09
5.00101e-06
-6.34717e-09
5.00155e-06
-4.01298e-09
5.00131e-06
-3.65835e-09
5.00035e-06
-4.05237e-09
-4.98027e-09
5.00007e-06
3.98579e-10
5.00032e-06
1.19954e-09
5.00079e-06
2.00988e-09
5.00156e-06
2.85946e-09
5.00274e-06
3.71706e-09
5.00441e-06
4.50118e-09
5.00656e-06
5.04744e-09
5.0091e-06
5.14833e-09
5.01203e-06
4.44714e-09
5.0144e-06
2.50608e-09
5.01414e-06
-1.41408e-10
5.01208e-06
-3.63892e-09
5.00775e-06
-6.53691e-09
5.00349e-06
-7.91064e-09
5.00093e-06
-7.19122e-09
5.00013e-06
-5.55535e-09
5.0001e-06
-3.99237e-09
4.99987e-06
-3.43076e-09
4.99917e-06
-3.34755e-09
-4.1745e-09
5.00009e-06
2.99108e-10
5.00039e-06
9.02757e-10
5.00091e-06
1.50011e-09
5.00167e-06
2.09043e-09
5.00273e-06
2.65199e-09
5.00412e-06
3.11768e-09
5.00579e-06
3.38456e-09
5.00763e-06
3.30978e-09
5.00933e-06
2.75066e-09
5.01027e-06
1.56435e-09
5.01043e-06
-3.10459e-10
5.00903e-06
-2.24357e-09
5.0065e-06
-4.01571e-09
5.00367e-06
-5.08546e-09
5.00154e-06
-5.0656e-09
5.00034e-06
-4.36142e-09
4.9997e-06
-3.35162e-09
4.99917e-06
-2.89196e-09
4.99845e-06
-2.62567e-09
-3.21501e-09
5.0001e-06
1.96667e-10
5.00041e-06
5.95262e-10
5.00093e-06
9.85848e-10
5.00166e-06
1.35558e-09
5.00261e-06
1.69161e-09
5.00378e-06
1.9518e-09
5.00509e-06
2.07103e-09
5.00645e-06
1.95981e-09
5.00765e-06
1.55785e-09
5.00839e-06
8.26548e-10
5.00822e-06
-1.34581e-10
5.00734e-06
-1.36437e-09
5.0057e-06
-2.38042e-09
5.00368e-06
-3.0682e-09
5.00179e-06
-3.17438e-09
5.00033e-06
-2.90298e-09
4.99931e-06
-2.32795e-09
4.99852e-06
-2.09207e-09
4.99773e-06
-1.82699e-09
-2.27508e-09
5.00008e-06
1.13192e-10
5.00037e-06
3.05496e-10
5.00087e-06
4.94754e-10
5.00155e-06
6.72738e-10
5.00241e-06
8.29329e-10
5.00341e-06
9.47089e-10
5.00448e-06
9.9692e-10
5.00551e-06
9.37959e-10
5.00633e-06
7.38296e-10
5.00679e-06
3.61818e-10
5.00681e-06
-1.42866e-10
5.00608e-06
-6.29412e-10
5.00479e-06
-1.0914e-09
5.00315e-06
-1.4284e-09
5.00148e-06
-1.50175e-09
5.00002e-06
-1.43837e-09
4.99889e-06
-1.18569e-09
4.99793e-06
-1.13065e-09
4.99707e-06
-9.70695e-10
-1.42212e-09
5.00011e-06
5.00042e-06
5.00091e-06
5.00159e-06
5.00242e-06
5.00337e-06
5.00436e-06
5.00529e-06
5.00603e-06
5.00639e-06
5.00625e-06
5.00562e-06
5.00453e-06
5.0031e-06
5.00161e-06
5.00017e-06
4.99899e-06
4.99786e-06
4.99687e-06
)
;

boundaryField
{
    sides
    {
        type            calculated;
        value           uniform 0;
    }
    inlet
    {
        type            calculated;
        value           nonuniform List<scalar> 
20
(
-5e-06
-5e-06
-5e-06
-5e-06
-5e-06
-5e-06
-5e-06
-5e-06
-5e-06
-5e-06
-5e-06
-5e-06
-5e-06
-5e-06
-5e-06
-5e-06
-5e-06
-5e-06
-5e-06
-5e-06
)
;
    }
    outlet
    {
        type            calculated;
        value           nonuniform List<scalar> 
20
(
5.0019e-06
5.00141e-06
5.00152e-06
5.00144e-06
5.00172e-06
5.002e-06
5.00278e-06
5.00421e-06
5.00344e-06
4.99514e-06
4.99475e-06
5.00265e-06
5.00275e-06
5.00063e-06
4.99935e-06
4.99837e-06
4.9975e-06
4.9968e-06
4.99621e-06
4.99544e-06
)
;
    }
    frontAndBack
    {
        type            empty;
        value           nonuniform List<scalar> 0();
    }
}


// ************************************************************************* //
