/*--------------------------------*- C++ -*----------------------------------*\
  =========                 |
  \\      /  F ield         | OpenFOAM: The Open Source CFD Toolbox
   \\    /   O peration     | Website:  https://openfoam.org
    \\  /    A nd           | Version:  9
     \\/     M anipulation  |
\*---------------------------------------------------------------------------*/
FoamFile
{
    format      ascii;
    class       volVectorField;
    location    "51";
    object      ddt0(hU);
}
// * * * * * * * * * * * * * * * * * * * * * * * * * * * * * * * * * * * * * //

dimensions      [0 2 -2 0 0 0 0];

internalField   nonuniform List<vector> 
400
(
(2.25671e-09 2.17239e-09 0)
(-1.30339e-09 2.46388e-09 0)
(-7.70185e-09 2.38782e-09 0)
(-9.88882e-09 6.82304e-10 0)
(-8.77606e-09 -1.68406e-09 0)
(-8.63179e-09 -9.03707e-10 0)
(-8.34722e-09 3.20235e-09 0)
(-1.23908e-08 6.26256e-09 0)
(-1.46718e-08 6.10994e-09 0)
(-1.02145e-08 1.69796e-09 0)
(-1.82595e-09 1.48361e-09 0)
(2.62008e-09 3.39223e-09 0)
(-3.71823e-10 4.0476e-09 0)
(-6.6457e-09 4.80084e-09 0)
(-9.58116e-09 2.32355e-09 0)
(-7.06702e-09 3.75681e-10 0)
(-2.22402e-09 1.33767e-09 0)
(-1.36284e-09 3.20716e-09 0)
(-8.77729e-09 2.23414e-09 0)
(-9.78477e-09 6.69819e-10 0)
(-5.38233e-11 6.36871e-09 0)
(-1.50266e-09 7.39073e-09 0)
(-7.06732e-09 6.56126e-09 0)
(-8.9088e-09 1.71357e-09 0)
(-9.0291e-09 -4.21141e-09 0)
(-7.62029e-09 -1.21086e-09 0)
(-7.77223e-09 9.53776e-09 0)
(-1.04891e-08 1.85609e-08 0)
(-1.41247e-08 1.37425e-08 0)
(-1.2029e-08 5.81506e-09 0)
(-6.44996e-10 -1.57956e-09 0)
(-8.43389e-10 6.43557e-09 0)
(1.56475e-09 1.02788e-08 0)
(-1.47069e-09 8.21966e-09 0)
(-5.77196e-09 3.35114e-09 0)
(-5.80516e-09 -5.41605e-10 0)
(-5.02003e-09 2.85101e-09 0)
(-5.04952e-09 1.52543e-08 0)
(-8.64415e-09 1.48574e-08 0)
(-8.29692e-09 1.60883e-09 0)
(-2.17153e-09 8.63264e-09 0)
(-3.32657e-09 1.22976e-08 0)
(-6.96266e-09 9.62039e-09 0)
(-8.65133e-09 1.68755e-09 0)
(-8.49512e-09 -5.0848e-09 0)
(-6.44237e-09 1.69965e-09 0)
(-4.83161e-09 1.71749e-08 0)
(-1.07512e-08 2.62786e-08 0)
(-1.12213e-08 1.24544e-08 0)
(-1.47316e-08 2.67688e-09 0)
(-3.70205e-09 -5.26595e-09 0)
(4.70186e-09 -9.4062e-10 0)
(-9.23331e-10 1.40543e-08 0)
(4.09427e-09 5.15373e-09 0)
(3.85073e-09 -4.36933e-09 0)
(5.96286e-10 -7.61893e-09 0)
(1.01035e-09 -1.80926e-09 0)
(-2.24668e-09 1.33061e-08 0)
(-1.47434e-08 1.52362e-08 0)
(-1.66985e-08 1.75091e-09 0)
(-2.93431e-09 8.43779e-09 0)
(-4.69389e-09 1.49628e-08 0)
(-7.63631e-09 1.14289e-08 0)
(-8.73893e-09 2.27382e-09 0)
(-7.50644e-09 -2.50274e-09 0)
(-3.8746e-09 5.78339e-09 0)
(-5.25287e-09 2.23747e-08 0)
(-9.66328e-09 1.8257e-08 0)
(-1.61769e-08 1.43637e-08 0)
(-4.06245e-09 -1.16204e-08 0)
(-1.73847e-08 -3.41171e-09 0)
(7.42678e-09 -6.41342e-10 0)
(2.21778e-09 1.17641e-08 0)
(-3.86819e-09 1.16502e-08 0)
(9.98418e-09 -7.82569e-09 0)
(1.04205e-08 -1.73658e-08 0)
(2.69327e-09 -8.99419e-09 0)
(-4.1811e-09 1.14399e-08 0)
(-8.37145e-09 1.49282e-08 0)
(-9.13185e-09 2.02053e-10 0)
(-2.55303e-09 7.81526e-09 0)
(-5.82969e-09 1.4428e-08 0)
(-7.27271e-09 1.20471e-08 0)
(-7.85505e-09 5.24525e-09 0)
(-6.16883e-09 1.19917e-09 0)
(-4.69854e-09 8.29265e-09 0)
(-1.06589e-08 1.41813e-08 0)
(-7.27163e-09 1.48994e-08 0)
(-1.7707e-08 1.139e-08 0)
(-9.0805e-09 -1.72238e-09 0)
(6.68541e-09 -1.28847e-08 0)
(-1.70049e-08 1.87039e-08 0)
(7.83845e-09 1.65687e-08 0)
(-2.52078e-09 1.5618e-08 0)
(-5.52686e-09 1.32745e-09 0)
(1.00166e-08 -1.61106e-08 0)
(1.38483e-08 -1.40701e-08 0)
(4.90226e-09 8.24866e-09 0)
(-8.36764e-09 1.39617e-08 0)
(-1.1651e-08 -1.47381e-09 0)
(-2.34858e-09 7.03464e-09 0)
(-6.58112e-09 1.30936e-08 0)
(-5.84641e-09 1.29414e-08 0)
(-6.04607e-09 8.07015e-09 0)
(-5.71091e-09 2.76976e-09 0)
(-1.07647e-08 2.7971e-09 0)
(-1.00884e-08 6.98207e-09 0)
(-1.57246e-08 2.07726e-08 0)
(3.50715e-09 9.32061e-09 0)
(-2.84405e-08 1.19993e-08 0)
(6.9142e-09 -1.25304e-08 0)
(3.17608e-09 1.19857e-09 0)
(-2.15491e-08 3.62187e-08 0)
(-1.34315e-10 2.19147e-08 0)
(-3.11894e-09 7.34622e-09 0)
(-3.60102e-09 -7.15084e-09 0)
(2.18476e-09 -1.0747e-08 0)
(2.43797e-09 3.05111e-09 0)
(1.94226e-09 7.0932e-09 0)
(-1.52283e-10 -3.05334e-09 0)
(-2.4096e-09 5.31738e-09 0)
(-6.23568e-09 1.2003e-08 0)
(-3.67459e-09 1.40297e-08 0)
(-4.31977e-09 9.22471e-09 0)
(-8.87575e-09 1.85127e-10 0)
(-1.3042e-08 -2.84259e-09 0)
(-1.43879e-08 1.05124e-08 0)
(-5.59301e-09 2.23306e-08 0)
(-1.02092e-08 2.2279e-08 0)
(1.60834e-08 -2.84897e-08 0)
(-9.94984e-08 1.2823e-07 0)
(3.40862e-08 -2.19201e-08 0)
(1.99342e-08 1.32874e-08 0)
(-1.71635e-08 2.38218e-08 0)
(-8.89697e-09 9.41022e-09 0)
(-7.19824e-09 -9.41444e-10 0)
(-7.10746e-09 -1.87345e-09 0)
(-4.05176e-09 1.13462e-08 0)
(5.17339e-10 1.18611e-08 0)
(3.64539e-09 -2.73851e-09 0)
(-2.46869e-09 3.20916e-09 0)
(-4.38905e-09 1.0392e-08 0)
(-1.60425e-09 1.32388e-08 0)
(-4.65961e-09 8.12103e-09 0)
(-1.04144e-08 -2.27741e-09 0)
(-1.44365e-08 -2.34684e-09 0)
(-1.0498e-08 1.67376e-08 0)
(-3.93227e-09 2.57622e-08 0)
(-2.49001e-08 1.03504e-08 0)
(1.33884e-07 2.90965e-08 0)
(1.09075e-07 -1.09951e-07 0)
(-1.89778e-07 5.07614e-08 0)
(3.79475e-08 1.74102e-08 0)
(1.91825e-08 5.93208e-09 0)
(-1.50776e-09 1.9101e-09 0)
(-8.37716e-09 6.52798e-10 0)
(-1.20141e-08 3.87662e-09 0)
(-1.10195e-08 1.3061e-08 0)
(-2.17686e-09 1.25023e-08 0)
(4.38608e-09 -4.35618e-10 0)
(-2.3541e-09 1.95317e-09 0)
(-2.37575e-09 7.71954e-09 0)
(-1.89483e-10 9.4533e-09 0)
(-5.31031e-09 5.21809e-09 0)
(-1.18481e-08 -8.02571e-10 0)
(-1.08796e-08 1.17322e-09 0)
(-8.1907e-09 1.54953e-08 0)
(-6.62561e-09 1.82623e-08 0)
(2.32487e-08 5.74869e-09 0)
(-1.37164e-07 1.94049e-08 0)
(-1.26761e-07 -1.09748e-07 0)
(1.74234e-07 4.27742e-08 0)
(-5.27747e-08 9.82059e-09 0)
(-1.44003e-08 2.23761e-10 0)
(1.34506e-08 -5.10131e-09 0)
(6.56888e-09 -2.99666e-09 0)
(-9.80026e-09 2.70908e-09 0)
(-1.69028e-08 1.06217e-08 0)
(-4.81366e-09 1.02779e-08 0)
(3.65171e-09 -7.93362e-10 0)
(-2.48673e-09 1.38217e-09 0)
(-1.36526e-09 4.15432e-09 0)
(-3.81112e-11 3.73606e-09 0)
(-5.25917e-09 2.82882e-09 0)
(-1.1169e-08 3.47372e-09 0)
(-1.05766e-08 5.28697e-09 0)
(-7.21639e-09 5.47024e-09 0)
(-3.48117e-09 2.48978e-09 0)
(-3.31762e-09 5.78735e-09 0)
(-1.91081e-08 -2.84833e-08 0)
(8.78772e-08 8.80435e-08 0)
(-6.3681e-08 -3.16772e-08 0)
(-2.64777e-08 -8.1677e-09 0)
(1.23079e-08 5.81264e-09 0)
(1.22682e-08 2.02906e-09 0)
(8.65292e-09 -1.55132e-09 0)
(-7.5088e-09 -1.95682e-09 0)
(-1.41339e-08 1.92607e-09 0)
(-5.90855e-09 3.24935e-09 0)
(2.71123e-09 -1.95002e-09 0)
(-2.56562e-09 5.50353e-10 0)
(-2.05109e-09 2.26282e-10 0)
(-2.29467e-10 -1.10354e-09 0)
(-4.20068e-09 1.07917e-09 0)
(-9.90678e-09 7.73609e-09 0)
(-1.16037e-08 6.40142e-09 0)
(-1.06413e-08 -4.21322e-09 0)
(-4.5587e-09 -6.0885e-09 0)
(-4.26867e-09 -1.16232e-08 0)
(-1.5421e-08 1.01285e-08 0)
(-2.39684e-08 7.57133e-08 0)
(1.22465e-08 -4.34721e-08 0)
(-2.99507e-09 9.06032e-09 0)
(3.53287e-10 1.43784e-09 0)
(8.25742e-09 4.32477e-09 0)
(1.78387e-09 2.67368e-09 0)
(-1.02221e-08 -2.70216e-09 0)
(-1.20372e-08 -5.91741e-09 0)
(1.73997e-10 -3.91984e-09 0)
(6.57615e-09 -1.91286e-09 0)
(-2.6044e-09 -9.69042e-10 0)
(-3.55598e-09 -3.54375e-09 0)
(-1.26838e-09 -4.41683e-09 0)
(-3.07473e-09 2.93889e-10 0)
(-9.09887e-09 7.52039e-09 0)
(-1.29757e-08 5.59764e-09 0)
(-1.20654e-08 -9.73199e-09 0)
(-9.62752e-09 -1.30521e-08 0)
(-6.30551e-09 -5.80864e-09 0)
(1.4557e-07 -6.56552e-09 0)
(-5.16566e-07 -8.14898e-08 0)
(-1.00342e-07 2.98983e-08 0)
(2.32108e-08 -1.71145e-08 0)
(-7.86168e-09 -3.73506e-09 0)
(6.44021e-10 5.02821e-09 0)
(-7.19137e-09 5.98743e-09 0)
(-1.16922e-08 2.61908e-09 0)
(-6.29647e-09 -3.92127e-09 0)
(6.2028e-09 -5.38229e-09 0)
(9.35548e-09 -1.55524e-09 0)
(-2.40502e-09 -2.72915e-09 0)
(-5.20409e-09 -7.15103e-09 0)
(-2.49876e-09 -6.94295e-09 0)
(-2.99215e-09 -5.47386e-10 0)
(-7.67491e-09 6.69019e-09 0)
(-1.52203e-08 2.4617e-09 0)
(-1.22037e-08 -9.5675e-09 0)
(-9.14253e-09 -1.78995e-08 0)
(4.19923e-09 -3.78469e-09 0)
(-1.59924e-07 -8.88239e-09 0)
(5.32932e-07 -8.00234e-08 0)
(7.91619e-08 9.9991e-09 0)
(-4.66159e-08 -1.7814e-08 0)
(1.01066e-08 -6.20241e-09 0)
(-6.60304e-09 2.44854e-09 0)
(-1.32849e-08 1.05281e-08 0)
(-9.94405e-09 9.74693e-09 0)
(-2.6715e-09 -2.53691e-09 0)
(6.52994e-09 -6.38491e-09 0)
(7.52929e-09 -2.95782e-10 0)
(-2.66789e-09 -4.08273e-09 0)
(-6.92842e-09 -1.03614e-08 0)
(-4.10234e-09 -9.67549e-09 0)
(-2.93289e-09 -2.58584e-09 0)
(-7.41435e-09 5.85166e-09 0)
(-1.30696e-08 2.11172e-09 0)
(-1.3617e-08 -1.18843e-08 0)
(-5.30804e-09 -1.9033e-08 0)
(-1.37741e-08 -1.44664e-08 0)
(2.88167e-08 6.46109e-09 0)
(-4.56028e-08 9.96596e-08 0)
(-2.55912e-08 -4.14258e-08 0)
(1.66389e-08 -1.45613e-08 0)
(-7.81348e-09 -1.64621e-08 0)
(-1.12217e-08 -2.17194e-09 0)
(-1.03643e-08 1.18348e-08 0)
(-7.66927e-09 1.14379e-08 0)
(-5.82433e-10 -3.94867e-09 0)
(6.40824e-09 -8.24321e-09 0)
(3.5862e-09 -3.45441e-11 0)
(-3.49306e-09 -5.82548e-09 0)
(-8.55918e-09 -1.26274e-08 0)
(-6.36045e-09 -1.16825e-08 0)
(-3.60635e-09 -4.7317e-09 0)
(-5.92294e-09 3.78062e-09 0)
(-1.20778e-08 3.49029e-09 0)
(-1.20966e-08 -1.19625e-08 0)
(-1.011e-08 -2.33002e-08 0)
(-2.47268e-09 -1.51558e-08 0)
(-1.25542e-08 1.32847e-09 0)
(-5.27199e-09 -2.05685e-08 0)
(-4.62534e-10 -4.6228e-09 0)
(-9.40955e-09 -2.74254e-08 0)
(-3.65547e-09 -2.0395e-08 0)
(-7.92282e-09 -2.72047e-09 0)
(-1.00389e-08 1.10427e-08 0)
(-3.86169e-09 1.16983e-08 0)
(3.52319e-09 -3.74763e-09 0)
(4.85511e-09 -9.43502e-09 0)
(-1.05196e-09 -5.54638e-10 0)
(-3.67116e-09 -8.60952e-09 0)
(-8.94098e-09 -1.33989e-08 0)
(-8.70401e-09 -1.07568e-08 0)
(-5.32336e-09 -4.31278e-09 0)
(-4.88058e-09 1.59439e-09 0)
(-9.51983e-09 1.74345e-09 0)
(-1.20158e-08 -8.49605e-09 0)
(-1.00643e-08 -2.16512e-08 0)
(-1.08942e-08 -1.54886e-08 0)
(-1.226e-08 -4.81913e-09 0)
(-2.98844e-09 1.79687e-09 0)
(-5.34606e-09 -1.61629e-08 0)
(1.20758e-09 -2.47169e-08 0)
(-6.13824e-09 -2.14715e-08 0)
(-1.24667e-08 -5.67998e-09 0)
(-5.8805e-09 1.16342e-08 0)
(5.10846e-09 1.31493e-08 0)
(8.54113e-09 -4.06065e-09 0)
(2.64897e-09 -1.00297e-08 0)
(-5.31253e-09 -4.79373e-10 0)
(-2.10139e-09 -1.10434e-08 0)
(-6.61774e-09 -1.27488e-08 0)
(-9.91244e-09 -7.52807e-09 0)
(-8.06906e-09 -1.10953e-09 0)
(-5.84747e-09 9.48319e-10 0)
(-7.14392e-09 -2.51023e-09 0)
(-1.03639e-08 -1.0079e-08 0)
(-1.0885e-08 -1.63972e-08 0)
(-1.22464e-08 -1.43167e-08 0)
(-8.84782e-09 1.39096e-09 0)
(-5.71227e-09 3.89919e-09 0)
(-1.99846e-09 -8.83159e-09 0)
(-5.728e-09 -2.25721e-08 0)
(-1.06652e-08 -1.93963e-08 0)
(-6.34657e-09 6.00402e-11 0)
(2.52289e-09 1.66854e-08 0)
(1.04191e-08 1.48531e-08 0)
(1.00037e-08 -4.10292e-09 0)
(-2.91962e-10 -1.06205e-08 0)
(-9.81213e-09 -1.18983e-09 0)
(9.26533e-10 -1.05659e-08 0)
(-2.84173e-09 -1.20631e-08 0)
(-9.55536e-09 -4.44727e-09 0)
(-1.11106e-08 3.10526e-09 0)
(-8.51154e-09 3.80947e-09 0)
(-7.14261e-09 -5.06576e-09 0)
(-8.02493e-09 -1.48081e-08 0)
(-1.16451e-08 -1.81447e-08 0)
(-1.23994e-08 -1.13376e-08 0)
(-9.64956e-09 1.49014e-09 0)
(-6.74542e-09 6.2305e-09 0)
(-2.35992e-09 -2.70878e-09 0)
(-2.67067e-09 -1.33326e-08 0)
(-3.65951e-09 -7.52856e-09 0)
(-1.46646e-09 8.01768e-09 0)
(4.46968e-09 1.86967e-08 0)
(9.84367e-09 1.34616e-08 0)
(5.72475e-09 -5.3869e-09 0)
(-6.96047e-09 -1.21154e-08 0)
(-1.37994e-08 -2.77751e-09 0)
(2.9043e-09 -6.67694e-09 0)
(-9.69359e-11 -9.72937e-09 0)
(-7.74994e-09 -3.05539e-09 0)
(-1.16736e-08 4.39864e-09 0)
(-1.17183e-08 4.97249e-09 0)
(-9.64907e-09 -3.28098e-09 0)
(-8.94903e-09 -1.41268e-08 0)
(-1.1056e-08 -1.7307e-08 0)
(-1.20667e-08 -1.14402e-08 0)
(-7.66693e-09 -2.26667e-09 0)
(-6.63429e-10 2.5974e-09 0)
(-6.72168e-10 -3.96135e-10 0)
(-4.67739e-09 -4.79864e-09 0)
(-5.75223e-09 -1.50072e-09 0)
(-2.90392e-09 7.59097e-09 0)
(7.52584e-10 1.34928e-08 0)
(2.59187e-09 7.5161e-09 0)
(-2.39591e-09 -7.59356e-09 0)
(-1.36291e-08 -1.23191e-08 0)
(-1.53072e-08 -3.5787e-09 0)
(2.84998e-09 -2.03005e-09 0)
(1.00263e-09 -3.75172e-09 0)
(-6.25166e-09 -1.42151e-09 0)
(-1.09984e-08 1.70456e-09 0)
(-1.32337e-08 1.91043e-09 0)
(-1.16519e-08 -8.44258e-10 0)
(-1.01584e-08 -5.35549e-09 0)
(-1.16229e-08 -6.84607e-09 0)
(-1.29521e-08 -5.71948e-09 0)
(-8.64653e-09 -2.59588e-09 0)
(-3.19466e-09 -1.76991e-09 0)
(-5.61278e-10 -3.16868e-09 0)
(-2.79377e-09 -2.87748e-09 0)
(-5.11933e-09 -5.01153e-10 0)
(-4.89459e-09 2.91633e-09 0)
(-5.79553e-09 4.43962e-09 0)
(-5.92345e-09 1.70515e-09 0)
(-8.09149e-09 -3.99782e-09 0)
(-1.55354e-08 -5.73121e-09 0)
(-1.37649e-08 -1.86003e-09 0)
)
;

boundaryField
{
    sides
    {
        type            calculated;
        value           nonuniform List<vector> 
40
(
(2.84998e-09 0 0)
(1.00263e-09 0 0)
(-6.25166e-09 0 0)
(-1.09984e-08 0 0)
(-1.32337e-08 0 0)
(-1.16519e-08 0 0)
(-1.01584e-08 0 0)
(-1.16229e-08 0 0)
(-1.29521e-08 0 0)
(-8.64653e-09 0 0)
(-3.19466e-09 0 0)
(-5.61278e-10 0 0)
(-2.79377e-09 0 0)
(-5.11933e-09 0 0)
(-4.89459e-09 0 0)
(-5.79553e-09 0 0)
(-5.92345e-09 0 0)
(-8.09149e-09 0 0)
(-1.55354e-08 0 0)
(-1.37649e-08 0 0)
(2.25671e-09 0 0)
(-1.30339e-09 0 0)
(-7.70185e-09 0 0)
(-9.88882e-09 0 0)
(-8.77606e-09 0 0)
(-8.63179e-09 0 0)
(-8.34722e-09 0 0)
(-1.23908e-08 0 0)
(-1.46718e-08 0 0)
(-1.02145e-08 0 0)
(-1.82595e-09 0 0)
(2.62008e-09 0 0)
(-3.71823e-10 0 0)
(-6.6457e-09 0 0)
(-9.58116e-09 0 0)
(-7.06702e-09 0 0)
(-2.22402e-09 0 0)
(-1.36284e-09 0 0)
(-8.77729e-09 0 0)
(-9.78477e-09 0 0)
)
;
    }
    inlet
    {
        type            calculated;
        value           uniform (0 0 0);
    }
    outlet
    {
        type            calculated;
        value           nonuniform List<vector> 
20
(
(-9.78477e-09 6.69819e-10 0)
(-8.29692e-09 1.60883e-09 0)
(-1.66985e-08 1.75091e-09 0)
(-9.13185e-09 2.02053e-10 0)
(-1.1651e-08 -1.47381e-09 0)
(-1.52283e-10 -3.05334e-09 0)
(3.64539e-09 -2.73851e-09 0)
(4.38608e-09 -4.35618e-10 0)
(3.65171e-09 -7.93362e-10 0)
(2.71123e-09 -1.95002e-09 0)
(6.57615e-09 -1.91286e-09 0)
(9.35548e-09 -1.55524e-09 0)
(7.52929e-09 -2.95782e-10 0)
(3.5862e-09 -3.45441e-11 0)
(-1.05196e-09 -5.54638e-10 0)
(-5.31253e-09 -4.79373e-10 0)
(-9.81213e-09 -1.18983e-09 0)
(-1.37994e-08 -2.77751e-09 0)
(-1.53072e-08 -3.5787e-09 0)
(-1.37649e-08 -1.86003e-09 0)
)
;
    }
    frontAndBack
    {
        type            empty;
    }
}


// ************************************************************************* //
