/*--------------------------------*- C++ -*----------------------------------*\
  =========                 |
  \\      /  F ield         | OpenFOAM: The Open Source CFD Toolbox
   \\    /   O peration     | Website:  https://openfoam.org
    \\  /    A nd           | Version:  9
     \\/     M anipulation  |
\*---------------------------------------------------------------------------*/
FoamFile
{
    format      ascii;
    class       surfaceScalarField;
    location    "51";
    object      ddtCorrDdt0(phi);
}
// * * * * * * * * * * * * * * * * * * * * * * * * * * * * * * * * * * * * * //

dimensions      [0 4 -2 0 0 0 0];

internalField   nonuniform List<scalar> 
760
(
8.42634e-12
2.33156e-11
-2.73345e-11
1.972e-11
-3.86284e-11
2.18936e-11
-4.23485e-11
5.25725e-12
-4.97875e-11
-1.65868e-11
-4.80306e-11
-1.11211e-11
-5.92414e-11
3.03273e-11
-6.91654e-11
6.06539e-11
-6.12248e-11
6.4504e-11
-2.65228e-11
1.88215e-11
3.4332e-12
-9.84572e-12
7.46752e-12
3.60402e-11
-1.50998e-11
3.96542e-11
-3.83778e-11
4.65016e-11
-3.79572e-11
2.02456e-11
-2.28002e-11
3.75127e-12
-1.55543e-11
1.83932e-11
-2.10997e-11
5.70664e-11
-4.79015e-11
5.71574e-11
6.40837e-12
-1.11523e-12
4.30347e-11
-2.21911e-11
4.97936e-11
-3.39125e-11
4.06241e-11
-4.62607e-11
5.85611e-12
-4.96308e-11
-3.07654e-11
-4.05462e-11
-3.6846e-12
-5.09396e-11
6.80827e-11
-5.64249e-11
1.30876e-10
-7.20432e-11
7.27097e-11
-2.52509e-11
3.31757e-11
-7.97726e-12
-3.4739e-11
1.98829e-12
2.05437e-11
1.13409e-11
5.19141e-11
-1.98123e-11
3.0049e-11
-2.66264e-11
5.84787e-12
-2.66422e-11
-1.53625e-11
-2.68229e-11
5.95196e-12
-3.49306e-11
6.75173e-11
-4.35182e-11
6.94074e-11
8.72015e-12
-1.53412e-11
4.46827e-11
-2.15703e-11
7.26531e-11
-3.51881e-11
5.37444e-11
-5.37575e-11
7.38595e-12
-4.13502e-11
-2.27204e-11
-2.70848e-11
2.24118e-11
-2.56894e-11
1.0946e-10
-7.23e-11
1.36764e-10
-5.37142e-11
4.48798e-11
-7.33354e-11
-1.71747e-11
3.2481e-11
-2.11496e-11
-4.23342e-12
-4.78959e-11
1.22244e-11
7.13995e-11
2.63899e-11
1.56118e-11
1.05659e-11
-5.71302e-11
5.71389e-12
-7.40023e-11
2.0759e-12
-3.32142e-11
-4.28204e-11
7.07073e-11
-8.61187e-11
8.91181e-11
5.391e-12
-1.76175e-11
3.98456e-11
-2.76747e-11
7.4861e-11
-4.30455e-11
5.90292e-11
-5.60487e-11
1.63299e-11
-2.39345e-11
2.88999e-12
-1.14235e-11
4.13048e-11
-2.18717e-11
1.17255e-10
-1.08461e-10
3.87632e-11
-2.30988e-11
9.09067e-11
-6.46901e-11
-9.73517e-11
-4.64857e-11
-1.29904e-11
6.92379e-11
2.62281e-11
-3.43258e-11
3.84909e-11
2.32102e-11
9.49397e-11
6.09021e-11
-1.6154e-11
3.3429e-11
-9.81658e-11
-1.46917e-12
-6.92789e-11
-3.39897e-11
3.27986e-11
-4.85172e-11
5.93519e-11
-4.4134e-12
-1.80367e-11
3.79178e-11
-3.04667e-11
6.62176e-11
-4.7547e-11
5.94502e-11
-4.31752e-11
3.77068e-11
-1.83894e-11
1.57997e-11
1.54075e-13
4.7379e-11
-1.14413e-10
1.25575e-11
-2.14239e-12
1.08162e-10
-1.39588e-10
1.67491e-11
6.57068e-11
1.16989e-10
-7.92893e-11
-2.11596e-10
-6.16478e-12
1.72549e-10
3.80489e-11
1.40806e-10
-4.69968e-11
6.13807e-11
1.65944e-11
4.06915e-11
7.23885e-11
-4.4438e-11
5.23256e-11
-6.70074e-11
-1.48504e-11
2.75477e-11
-5.55079e-11
4.86053e-11
-1.49605e-11
-2.39548e-11
3.23247e-11
-2.89194e-11
6.17343e-11
-3.5351e-11
6.87587e-11
-3.67336e-11
4.63611e-11
-5.06965e-12
1.8445e-11
-8.09293e-11
-1.97192e-11
-7.5927e-11
4.34254e-11
-3.01896e-11
9.2348e-11
-1.98041e-11
9.89478e-11
-1.5021e-10
3.11497e-11
1.43949e-10
-6.90674e-11
-1.21146e-10
-2.44076e-10
-4.03615e-11
1.97935e-10
7.32188e-12
1.56522e-10
-2.97628e-11
3.94034e-11
9.63341e-13
-1.01011e-11
1.87116e-11
-2.02251e-11
5.99289e-12
3.92418e-11
2.74457e-12
4.55007e-11
-1.58704e-11
-2.63544e-11
2.22718e-11
-1.76797e-11
5.88382e-11
-2.32205e-11
7.24233e-11
-2.66813e-11
4.91822e-11
-4.99436e-11
-1.5607e-11
-8.97702e-11
-1.1376e-11
-5.78171e-11
6.02083e-11
-3.44082e-11
1.34925e-10
6.90507e-11
1.39243e-10
-2.80815e-10
-4.42443e-10
-1.87999e-10
1.98366e-09
2.43433e-10
1.34264e-10
-5.90488e-11
-8.60864e-11
-5.75609e-11
6.20406e-11
-3.93666e-11
4.41047e-11
-3.46453e-11
-5.80497e-14
-2.60682e-11
2.49435e-10
-1.56483e-11
5.99462e-11
1.23941e-11
6.61476e-11
-6.58012e-12
-1.65173e-11
1.30175e-11
-3.088e-12
4.94713e-11
-1.1269e-11
6.16461e-11
-4.91396e-11
3.09271e-11
-6.23915e-11
-1.04482e-11
-7.9578e-11
-1.23965e-11
-3.71309e-11
1.18621e-10
6.05947e-11
7.2548e-11
-3.2513e-10
-6.53689e-11
1.817e-09
7.57405e-10
-1.28765e-09
-5.18576e-08
-9.3969e-12
2.35183e-10
1.56397e-10
2.25606e-10
3.48231e-11
1.99786e-11
-3.2626e-11
-8.80838e-12
-5.0415e-11
-2.93333e-11
-5.54154e-11
3.52744e-12
-4.28571e-11
7.37867e-11
1.13722e-11
6.72354e-11
3.09266e-13
-5.55962e-13
9.23165e-12
1.00166e-11
3.1378e-11
-1.22883e-11
3.37272e-11
-6.21632e-11
1.81906e-11
-8.05159e-11
3.16657e-12
-1.70091e-11
3.31299e-11
-2.00408e-11
4.0656e-11
-1.09394e-10
6.78464e-11
3.39287e-10
8.77555e-11
-1.88418e-09
-5.59163e-10
1.2197e-09
1.86771e-09
-8.77609e-11
3.56608e-11
-1.91115e-10
-2.06551e-10
2.60126e-11
-4.70144e-11
6.122e-11
7.48592e-12
-7.87295e-12
-2.34939e-11
-7.36637e-11
-2.33365e-09
-6.07155e-11
3.20463e-11
3.69039e-12
2.93257e-11
-4.87627e-10
1.0024e-11
5.44032e-12
1.14084e-11
1.05625e-11
-1.37452e-11
3.02988e-12
-6.84e-11
1.04024e-11
-6.81215e-11
3.66841e-11
-1.34216e-11
2.67796e-11
-2.62289e-11
1.83265e-12
-9.62595e-12
-2.88918e-11
-1.39309e-10
-1.68604e-11
2.83852e-10
1.18473e-10
5.03969e-11
-4.99362e-10
-3.17995e-10
-1.70969e-10
1.98788e-11
1.04713e-10
4.56408e-11
5.45876e-11
7.27237e-11
3.8075e-11
3.51895e-12
1.12559e-11
-6.43899e-11
-1.12163e-11
-5.14807e-11
-1.85775e-11
-7.35594e-12
-1.01504e-11
-1.11211e-11
1.05402e-11
-1.40366e-12
2.22995e-12
-9.72259e-12
-1.3412e-11
-1.57405e-11
-4.85321e-11
2.99118e-12
-6.999e-11
4.69938e-11
-3.00218e-11
3.10694e-11
-4.51964e-11
-5.0961e-11
-3.24956e-11
-3.94029e-11
-5.35127e-13
-7.7693e-11
-2.19158e-10
-1.48419e-11
9.03449e-11
3.79202e-09
-7.01956e-12
-2.3555e-10
-2.56021e-11
3.94208e-11
2.37112e-11
1.69112e-11
3.52133e-11
3.18246e-11
-2.23687e-11
2.37532e-11
-6.43537e-11
-6.0093e-12
-2.72298e-11
-3.39033e-11
1.93404e-11
-3.00627e-11
-1.10766e-11
2.81266e-12
-1.11441e-11
-8.88271e-12
-2.74088e-11
-1.62496e-11
-2.79398e-11
-2.66719e-11
3.36389e-12
-6.45686e-11
3.15145e-11
-7.40536e-11
2.14356e-11
-2.60427e-11
-4.83282e-11
-8.15932e-11
-6.26618e-11
1.2376e-10
-2.04402e-11
-1.25489e-10
-1.25983e-12
-2.44823e-09
-3.48487e-08
2.34679e-10
6.1453e-10
-4.14446e-11
-1.64454e-10
-5.75771e-12
-3.43154e-11
-1.63767e-11
2.40944e-11
-4.96153e-11
4.82323e-11
-5.06887e-11
3.69403e-11
2.96059e-12
-1.2761e-11
4.19819e-11
-2.82845e-11
-4.04164e-12
-6.26703e-12
-1.79066e-11
-2.0271e-11
-4.42874e-11
-1.46663e-11
-3.93724e-11
-1.96207e-11
-7.35288e-12
-6.07224e-11
3.12446e-11
-9.60064e-11
8.70793e-14
-4.02374e-11
-4.1757e-11
-3.61373e-12
-9.50584e-11
-1.37268e-10
-4.47642e-11
1.07213e-10
-1.18399e-10
2.47527e-09
2.85812e-09
-3.91645e-10
-4.8229e-10
1.5147e-11
-2.39577e-11
8.13374e-13
-5.72602e-11
-5.6957e-11
-1.92732e-11
-6.28672e-11
4.24453e-11
-3.36407e-11
5.40883e-11
1.33205e-11
-5.03227e-12
3.88915e-11
-2.97693e-11
1.92577e-12
-1.80011e-11
-2.32909e-11
-2.89833e-11
-5.83808e-11
-1.96962e-11
-5.6549e-11
-9.07788e-12
-2.04142e-11
-6.7923e-11
2.30014e-11
-8.00804e-11
1.74927e-11
-4.75257e-11
-7.68069e-11
-1.56199e-11
-9.38443e-11
-5.41992e-11
-8.98428e-11
1.5994e-10
1.29621e-10
-4.17149e-10
-3.51659e-10
1.0785e-10
9.46381e-11
9.25352e-12
-1.1076e-10
-5.55877e-11
-9.9809e-11
-5.87506e-11
-3.59227e-12
-4.59205e-11
5.94304e-11
-1.8732e-11
5.51528e-11
1.77976e-11
-2.22331e-11
2.66678e-11
-4.61761e-11
-1.94629e-12
-2.94388e-11
-3.46528e-11
-4.16917e-11
-6.69299e-11
-2.81995e-11
-6.09275e-11
-4.65159e-12
-2.93801e-11
-4.85674e-11
1.31109e-11
-9.48369e-11
1.87712e-11
-3.54621e-11
-4.16432e-11
-3.72523e-11
-1.33543e-10
-1.31818e-11
-6.4205e-11
-8.59146e-11
-6.57361e-11
1.86449e-11
1.97602e-10
-4.48995e-11
-9.57633e-11
-1.7579e-11
-1.24598e-10
-2.9095e-11
-9.14928e-11
-5.51742e-11
-2.15838e-11
-3.31271e-11
5.24773e-11
5.51107e-12
5.70165e-11
2.34403e-11
-2.37194e-11
8.71753e-12
-5.13113e-11
-3.77468e-12
-3.24203e-11
-5.12576e-11
-5.04851e-11
-6.53528e-11
-4.30736e-11
-4.67703e-11
-7.57682e-12
-1.77807e-11
-2.80759e-11
-9.30559e-13
-7.58892e-11
2.52743e-12
-7.0485e-11
-3.49316e-11
-1.96922e-11
-8.1797e-11
-8.22077e-11
-8.8513e-11
-3.55594e-11
1.58003e-12
-1.83272e-11
7.84246e-12
-6.65606e-12
-7.55462e-11
-3.77824e-12
-1.32388e-10
-5.38545e-11
-1.19444e-10
-5.26279e-11
-2.34469e-11
3.09345e-12
6.43194e-11
4.27545e-11
6.72038e-11
2.97095e-11
-1.56483e-11
-1.04072e-11
-4.5832e-11
-2.43544e-12
-1.733e-11
-5.97811e-11
-4.72502e-11
-6.04035e-11
-5.50272e-11
-2.74236e-11
-2.99991e-11
5.09774e-12
-1.48336e-11
7.13821e-12
-5.1373e-11
-2.7898e-11
-7.05397e-11
-6.13306e-11
-5.65491e-11
-7.53421e-11
-4.85914e-11
-5.07215e-11
-3.54374e-11
9.53172e-12
-2.81683e-11
8.65456e-12
-7.95411e-12
-2.25646e-11
-4.01381e-11
-9.34603e-11
-4.54041e-11
-7.17682e-11
-1.24414e-11
1.99698e-11
3.67865e-11
9.19206e-11
6.12599e-11
7.62379e-11
2.70592e-11
-1.84185e-11
-3.26045e-11
-5.31211e-11
-8.68879e-12
6.59434e-12
-4.5803e-11
-3.2524e-11
-5.80076e-11
-6.03263e-11
-1.50767e-11
-5.46516e-11
2.2852e-11
-2.95175e-11
2.25211e-11
-3.09616e-11
-3.12942e-11
-6.12484e-11
-8.6066e-11
-6.98403e-11
-9.52956e-11
-5.18226e-11
-5.02894e-11
-3.9062e-11
8.57628e-12
-2.04094e-11
2.38216e-11
-1.53545e-11
1.04225e-12
-1.59982e-11
-3.33334e-11
-6.94125e-12
-5.401e-12
8.52531e-12
5.71158e-11
3.71754e-11
9.78494e-11
4.57742e-11
6.2214e-11
4.52611e-13
-3.3094e-11
-5.96878e-11
-6.27518e-11
-1.60378e-11
1.22619e-11
-2.2966e-11
-9.56602e-12
-3.92575e-11
-5.14321e-11
-1.01733e-11
-6.87379e-11
2.29427e-11
-5.62462e-11
2.10148e-11
-3.91543e-11
-1.32706e-11
-5.679e-11
-6.3438e-11
-6.82225e-11
-7.33287e-11
-4.64844e-11
-5.00047e-11
-9.27839e-12
-1.30137e-11
-6.23675e-12
1.28973e-11
-2.1158e-11
3.48054e-12
-2.34823e-11
-3.92233e-12
-1.244e-11
6.9379e-12
-4.0327e-13
3.69904e-11
5.82455e-12
5.42854e-11
-8.70329e-13
2.88697e-11
-3.55635e-11
-2.76194e-11
-7.61294e-11
-4.53595e-11
-1.51318e-11
5.83683e-12
4.027e-12
-3.66261e-11
-7.52166e-11
-6.94132e-11
-5.46862e-11
-5.60212e-11
-7.0617e-11
-5.04803e-11
-2.09117e-11
-8.26959e-12
-1.47255e-11
-2.01313e-11
-1.29636e-11
-1.94891e-11
-3.49854e-11
-4.21641e-11
-5.55522e-11
-7.25215e-11
)
;

boundaryField
{
    sides
    {
        type            calculated;
        value           uniform 0;
    }
    inlet
    {
        type            calculated;
        value           uniform 0;
    }
    outlet
    {
        type            calculated;
        value           nonuniform List<scalar> 
20
(
-5.30783e-11
-4.48101e-11
-8.46413e-11
-4.77231e-11
-5.87734e-11
1.41463e-12
2.5523e-11
2.77643e-11
2.05257e-11
2.00678e-11
3.70011e-11
5.08157e-11
3.85643e-11
1.47488e-11
-1.08733e-11
-3.31627e-11
-5.75997e-11
-7.8478e-11
-8.63644e-11
-7.80368e-11
)
;
    }
    frontAndBack
    {
        type            empty;
        value           nonuniform List<scalar> 0();
    }
}


// ************************************************************************* //
