/*--------------------------------*- C++ -*----------------------------------*\
  =========                 |
  \\      /  F ield         | OpenFOAM: The Open Source CFD Toolbox
   \\    /   O peration     | Website:  https://openfoam.org
    \\  /    A nd           | Version:  9
     \\/     M anipulation  |
\*---------------------------------------------------------------------------*/
FoamFile
{
    format      ascii;
    class       surfaceScalarField;
    location    "51";
    object      phi;
}
// * * * * * * * * * * * * * * * * * * * * * * * * * * * * * * * * * * * * * //

dimensions      [0 4 -1 0 0 0 0];

internalField   nonuniform List<scalar> 
760
(
5.0001e-06
-9.17043e-11
5.00041e-06
-3.10137e-10
5.00094e-06
-5.21869e-10
5.00166e-06
-7.16738e-10
5.00253e-06
-8.82023e-10
5.00353e-06
-1.0021e-09
5.00457e-06
-1.05451e-09
5.00558e-06
-1.01342e-09
5.00642e-06
-8.36326e-10
5.00696e-06
-5.23342e-10
5.00708e-06
-1.11976e-10
5.00667e-06
4.25187e-10
5.00582e-06
8.75758e-10
5.00472e-06
1.11392e-09
5.00357e-06
1.17765e-09
5.00263e-06
9.63433e-10
5.00191e-06
7.37026e-10
5.00166e-06
2.67237e-10
5.00156e-06
1.03631e-10
-3.98776e-10
5.00013e-06
-2.10188e-10
5.00046e-06
-6.40105e-10
5.00101e-06
-1.06336e-09
5.00176e-06
-1.46699e-09
5.00269e-06
-1.82142e-09
5.00377e-06
-2.09044e-09
5.00495e-06
-2.23373e-09
5.00613e-06
-2.18803e-09
5.00715e-06
-1.8645e-09
5.00781e-06
-1.17229e-09
5.00777e-06
-6.47994e-11
5.00728e-06
9.28319e-10
5.00629e-06
1.87936e-09
5.00498e-06
2.42891e-09
5.00372e-06
2.45136e-09
5.00283e-06
1.87399e-09
5.0023e-06
1.279e-09
5.00196e-06
6.13345e-10
5.0017e-06
3.67337e-10
-1.65302e-10
5.00012e-06
-3.16984e-10
5.00044e-06
-9.61413e-10
5.00099e-06
-1.60251e-09
5.00176e-06
-2.24018e-09
5.00276e-06
-2.82688e-09
5.00398e-06
-3.30819e-09
5.00535e-06
-3.60199e-09
5.00674e-06
-3.58782e-09
5.00796e-06
-3.07897e-09
5.00875e-06
-1.97041e-09
5.00897e-06
-2.79089e-10
5.00828e-06
1.61791e-09
5.0069e-06
3.26831e-09
5.00519e-06
4.14286e-09
5.00355e-06
4.08888e-09
5.00235e-06
3.07013e-09
5.00171e-06
1.93467e-09
5.00151e-06
8.17758e-10
5.00149e-06
3.87926e-10
-2.40074e-10
5.00011e-06
-4.15383e-10
5.00043e-06
-1.27291e-09
5.00097e-06
-2.14512e-09
5.00178e-06
-3.05048e-09
5.00289e-06
-3.93438e-09
5.00432e-06
-4.73443e-09
5.00605e-06
-5.3235e-09
5.00797e-06
-5.53313e-09
5.00987e-06
-4.97667e-09
5.0111e-06
-3.21652e-09
5.01123e-06
-4.03946e-10
5.01002e-06
2.8312e-09
5.00767e-06
5.6133e-09
5.00518e-06
6.64942e-09
5.00352e-06
5.75597e-09
5.00274e-06
3.8378e-09
5.00252e-06
2.15275e-09
5.00235e-06
9.82245e-10
5.00204e-06
7.02224e-10
3.15623e-10
5.00009e-06
-4.97071e-10
5.00036e-06
-1.53388e-09
5.00086e-06
-2.64188e-09
5.00167e-06
-3.85317e-09
5.00289e-06
-5.15354e-09
5.00462e-06
-6.44821e-09
5.00683e-06
-7.55481e-09
5.00945e-06
-8.15455e-09
5.01242e-06
-7.9574e-09
5.01482e-06
-5.60998e-09
5.01485e-06
-4.50322e-10
5.01288e-06
4.81754e-09
5.0087e-06
9.79928e-09
5.00463e-06
1.07255e-08
5.00228e-06
8.11512e-09
5.00179e-06
4.33536e-09
5.00208e-06
1.85038e-09
5.00229e-06
7.72967e-10
5.00205e-06
9.34012e-10
5.96351e-10
5.00005e-06
-5.41096e-10
5.00022e-06
-1.69066e-09
5.00056e-06
-2.97941e-09
5.00124e-06
-4.52014e-09
5.00245e-06
-6.34914e-09
5.00456e-06
-8.56644e-09
5.00764e-06
-1.06376e-08
5.01171e-06
-1.22288e-08
5.01556e-06
-1.18065e-08
5.01903e-06
-9.08952e-09
5.02025e-06
-1.64892e-09
5.01605e-06
8.98509e-09
5.00954e-06
1.63179e-08
5.00424e-06
1.60325e-08
5.0022e-06
1.0165e-08
5.00253e-06
4.01561e-09
5.00331e-06
1.07167e-09
5.00344e-06
6.39013e-10
5.00284e-06
1.5288e-09
1.39282e-09
4.99999e-06
-5.24563e-10
4.99996e-06
-1.64708e-09
5.00006e-06
-3.06441e-09
5.00039e-06
-4.84136e-09
5.00126e-06
-7.20849e-09
5.00296e-06
-1.02719e-08
5.00684e-06
-1.45216e-08
5.01396e-06
-1.9342e-08
5.02379e-06
-2.16282e-08
5.03094e-06
-1.62903e-08
5.02876e-06
5.87845e-10
5.01679e-06
2.09991e-08
5.00421e-06
2.88539e-08
4.99876e-06
2.14814e-08
5.0006e-06
8.32852e-09
5.00287e-06
1.74632e-09
5.00375e-06
1.99033e-10
5.0037e-06
6.87397e-10
5.00309e-06
2.14434e-09
1.65299e-09
4.99988e-06
-3.91631e-10
4.99958e-06
-1.32863e-09
4.99916e-06
-2.62806e-09
4.99889e-06
-4.56285e-09
4.99936e-06
-7.68079e-09
5.0004e-06
-1.13061e-08
5.0037e-06
-1.78146e-08
5.00988e-06
-2.55162e-08
5.0249e-06
-3.66873e-08
5.05617e-06
-4.7442e-08
5.05005e-06
6.30041e-09
5.02323e-06
4.78708e-08
4.99823e-06
5.38699e-08
4.99353e-06
2.61637e-08
4.99948e-06
2.36168e-09
5.00409e-06
-2.86179e-09
5.00493e-06
-6.44098e-10
5.00376e-06
1.86269e-09
5.00355e-06
2.36397e-09
9.46181e-10
4.99979e-06
-1.58027e-10
4.99919e-06
-7.06713e-10
4.99796e-06
-1.38524e-09
4.99614e-06
-2.74228e-09
4.99405e-06
-5.58519e-09
4.99378e-06
-1.10271e-08
4.9995e-06
-2.35316e-08
5.01718e-06
-4.32034e-08
5.05577e-06
-7.52417e-08
5.06682e-06
-5.86466e-08
5.04978e-06
2.37436e-08
4.99652e-06
1.01047e-07
4.98933e-06
6.10171e-08
4.99594e-06
1.95498e-08
5.00021e-06
-1.91698e-09
5.00294e-06
-5.60315e-09
5.00254e-06
-2.50282e-10
5.00187e-06
2.52796e-09
5.00258e-06
1.66191e-09
6.25512e-11
4.99988e-06
-1.32414e-11
4.99924e-06
-4.60211e-11
4.99795e-06
-8.20281e-11
4.99534e-06
-1.25847e-10
4.98992e-06
-1.67966e-10
4.97913e-06
-2.20209e-10
4.95588e-06
-2.74753e-10
4.91301e-06
-3.43553e-10
4.83816e-06
-4.18557e-10
4.78003e-06
-4.56889e-10
4.80431e-06
-6.27129e-10
4.90606e-06
-7.40103e-10
4.96783e-06
-7.31818e-10
4.98826e-06
-8.86835e-10
4.98747e-06
-1.14705e-09
4.98327e-06
-1.4203e-09
4.98457e-06
-1.5641e-09
4.98893e-06
-1.83544e-09
4.99251e-06
-1.91335e-09
-2.59811e-09
4.99988e-06
1.30665e-10
4.99924e-06
6.13189e-10
4.99795e-06
1.22677e-09
4.99533e-06
2.4977e-09
4.98991e-06
5.25906e-09
4.9791e-06
1.05964e-08
4.95583e-06
2.29967e-08
4.91294e-06
4.25331e-08
4.83807e-06
7.44517e-08
4.77976e-06
5.78349e-08
4.80428e-06
-2.50188e-08
4.90603e-06
-1.02498e-07
4.96781e-06
-6.25229e-08
4.9881e-06
-2.11929e-08
4.98737e-06
-4.40088e-10
4.98294e-06
2.99652e-09
4.98444e-06
-3.07508e-09
4.98892e-06
-6.31099e-09
4.99239e-06
-5.37615e-09
-4.99191e-09
4.99979e-06
3.62513e-10
4.99918e-06
1.23829e-09
4.99795e-06
2.46896e-09
4.99614e-06
4.32395e-09
4.99405e-06
7.34646e-09
4.99377e-06
1.08772e-08
4.99948e-06
1.72942e-08
5.01712e-06
2.48851e-08
5.05566e-06
3.59239e-08
5.06712e-06
4.63949e-08
5.04947e-06
-8.5787e-09
4.99615e-06
-4.90836e-08
4.98889e-06
-5.52813e-08
4.99572e-06
-2.80387e-08
5.00012e-06
-4.85163e-09
5.00233e-06
7.88115e-10
5.00168e-06
-2.42788e-09
5.00094e-06
-5.57361e-09
5.00172e-06
-6.15392e-09
-5.95314e-09
4.99988e-06
4.96412e-10
4.99958e-06
1.55969e-09
4.99915e-06
2.91268e-09
4.99887e-06
4.61484e-09
4.99931e-06
6.90463e-09
5.0003e-06
9.87744e-09
5.00352e-06
1.40776e-08
5.00965e-06
1.87603e-08
5.02463e-06
2.09337e-08
5.05559e-06
1.54123e-08
5.04982e-06
-1.60803e-09
5.02284e-06
-2.22359e-08
4.9979e-06
-3.03338e-08
4.99318e-06
-2.33291e-08
4.99866e-06
-1.03322e-08
5.00347e-06
-4.02523e-09
5.00376e-06
-2.71098e-09
5.0024e-06
-4.21189e-09
5.0022e-06
-5.96077e-09
-6.53293e-09
4.99999e-06
5.17004e-10
4.99996e-06
1.61088e-09
5.00004e-06
2.8403e-09
5.00035e-06
4.31583e-09
5.00117e-06
6.07977e-09
5.00283e-06
8.2138e-09
5.00672e-06
1.01875e-08
5.01382e-06
1.16601e-08
5.02361e-06
1.11428e-08
5.03075e-06
8.29268e-09
5.0284e-06
5.86278e-10
5.01628e-06
-1.00776e-08
5.00353e-06
-1.75926e-08
4.9978e-06
-1.76079e-08
4.99944e-06
-1.19689e-08
5.00164e-06
-6.22084e-09
5.00244e-06
-3.51191e-09
5.00218e-06
-3.94608e-09
5.00123e-06
-5.02266e-09
-5.97101e-09
5.00005e-06
4.76921e-10
5.00021e-06
1.46575e-09
5.00054e-06
2.52032e-09
5.00119e-06
3.67042e-09
5.00236e-06
4.90827e-09
5.00443e-06
6.13673e-09
5.00745e-06
7.16704e-09
5.01143e-06
7.68126e-09
5.01517e-06
7.40917e-09
5.01856e-06
4.88779e-09
5.01958e-06
-4.29957e-10
5.01525e-06
-5.76284e-09
5.00857e-06
-1.09105e-08
5.00314e-06
-1.21758e-08
5.0009e-06
-9.73536e-09
5.00104e-06
-6.35223e-09
5.0016e-06
-4.05868e-09
5.00136e-06
-3.70949e-09
5.00039e-06
-4.05866e-09
-4.96897e-09
5.00009e-06
3.96055e-10
5.00034e-06
1.2174e-09
5.00082e-06
2.04794e-09
5.00161e-06
2.89735e-09
5.00279e-06
3.72513e-09
5.00445e-06
4.47541e-09
5.00659e-06
5.01981e-09
5.00913e-06
5.14876e-09
5.01206e-06
4.47309e-09
5.01442e-06
2.52382e-09
5.01417e-06
-1.7513e-10
5.01211e-06
-3.69502e-09
5.00778e-06
-6.57493e-09
5.00351e-06
-7.91118e-09
5.00096e-06
-7.17709e-09
5.00018e-06
-5.55523e-09
5.00016e-06
-4.02974e-09
4.99992e-06
-3.47747e-09
4.99921e-06
-3.35498e-09
-4.1646e-09
5.00011e-06
2.95601e-10
5.00042e-06
9.15249e-10
5.00093e-06
1.53142e-09
5.00171e-06
2.12706e-09
5.00278e-06
2.66411e-09
5.00416e-06
3.09329e-09
5.00582e-06
3.35246e-09
5.00766e-06
3.30469e-09
5.00936e-06
2.771e-09
5.0103e-06
1.57868e-09
5.01045e-06
-3.26695e-10
5.00905e-06
-2.28246e-09
5.00652e-06
-4.04395e-09
5.00371e-06
-5.08332e-09
5.00159e-06
-5.04618e-09
5.0004e-06
-4.3551e-09
4.99976e-06
-3.38402e-09
4.99921e-06
-2.93845e-09
4.99849e-06
-2.64015e-09
-3.21041e-09
5.00011e-06
1.93772e-10
5.00043e-06
6.01259e-10
5.00095e-06
1.00572e-09
5.0017e-06
1.3852e-09
5.00266e-06
1.70872e-09
5.00382e-06
1.93933e-09
5.00512e-06
2.04331e-09
5.00647e-06
1.94616e-09
5.00767e-06
1.56386e-09
5.00841e-06
8.33197e-10
5.00824e-06
-1.53934e-10
5.00736e-06
-1.39335e-09
5.00572e-06
-2.3982e-09
5.00372e-06
-3.06226e-09
5.00184e-06
-3.15847e-09
5.00039e-06
-2.90126e-09
4.99937e-06
-2.35874e-09
4.99856e-06
-2.13601e-09
4.99777e-06
-1.84745e-09
-2.27637e-09
5.00009e-06
1.1138e-10
5.00039e-06
3.07027e-10
5.00089e-06
5.03427e-10
5.00159e-06
6.89252e-10
5.00245e-06
8.42208e-10
5.00345e-06
9.44359e-10
5.00451e-06
9.81897e-10
5.00552e-06
9.26738e-10
5.00635e-06
7.36033e-10
5.00683e-06
3.58298e-10
5.00683e-06
-1.53165e-10
5.00609e-06
-6.48315e-10
5.00481e-06
-1.10482e-09
5.00319e-06
-1.42952e-09
5.00154e-06
-1.49656e-09
5.00008e-06
-1.43994e-09
4.99893e-06
-1.20448e-09
4.99796e-06
-1.1581e-09
4.99711e-06
-9.86849e-10
-1.42526e-09
5.00012e-06
5.00044e-06
5.00094e-06
5.00163e-06
5.00246e-06
5.0034e-06
5.00438e-06
5.00531e-06
5.00605e-06
5.00642e-06
5.00628e-06
5.00564e-06
5.00455e-06
5.00314e-06
5.00165e-06
5.00023e-06
4.99903e-06
4.99789e-06
4.99692e-06
)
;

boundaryField
{
    sides
    {
        type            calculated;
        value           uniform 0;
    }
    inlet
    {
        type            calculated;
        value           nonuniform List<scalar> 
20
(
-5e-06
-5e-06
-5e-06
-5e-06
-5e-06
-5e-06
-5e-06
-5e-06
-5e-06
-5e-06
-5e-06
-5e-06
-5e-06
-5e-06
-5e-06
-5e-06
-5e-06
-5e-06
-5e-06
-5e-06
)
;
    }
    outlet
    {
        type            calculated;
        value           nonuniform List<scalar> 
20
(
5.00196e-06
5.00147e-06
5.00157e-06
5.00148e-06
5.00176e-06
5.00204e-06
5.00283e-06
5.00426e-06
5.00347e-06
4.99518e-06
4.99478e-06
5.00268e-06
5.00278e-06
5.00067e-06
4.99938e-06
4.9984e-06
4.99753e-06
4.99683e-06
4.99626e-06
4.9955e-06
)
;
    }
    frontAndBack
    {
        type            empty;
        value           nonuniform List<scalar> 0();
    }
}


// ************************************************************************* //
