/*--------------------------------*- C++ -*----------------------------------*\
  =========                 |
  \\      /  F ield         | OpenFOAM: The Open Source CFD Toolbox
   \\    /   O peration     | Website:  https://openfoam.org
    \\  /    A nd           | Version:  9
     \\/     M anipulation  |
\*---------------------------------------------------------------------------*/
FoamFile
{
    format      ascii;
    class       surfaceScalarField;
    location    "63";
    object      ddtCorrDdt0(phi);
}
// * * * * * * * * * * * * * * * * * * * * * * * * * * * * * * * * * * * * * //

dimensions      [0 4 -2 0 0 0 0];

internalField   nonuniform List<scalar> 
760
(
-4.11814e-11
-1.3291e-11
-3.51072e-11
-1.24721e-12
6.45232e-12
1.0781e-11
9.44796e-12
-5.31158e-12
4.53617e-12
-1.7828e-12
1.25483e-11
2.36866e-11
1.62645e-11
4.03418e-12
2.90475e-11
-1.4912e-12
1.34197e-11
-2.24462e-11
2.03347e-12
-2.03117e-11
1.9151e-11
4.21642e-13
8.29368e-13
-2.148e-11
1.10028e-11
-1.20942e-11
-8.68042e-12
-3.39979e-11
-7.82925e-12
-1.95123e-11
2.443e-11
-6.69081e-13
4.13716e-12
-1.10731e-11
-4.33182e-11
-2.0211e-11
-1.20491e-11
-1.97975e-11
4.61924e-13
-3.4178e-11
-2.50247e-11
-2.05916e-11
-7.07983e-12
-5.80487e-12
-6.79107e-13
-9.16566e-15
-1.10571e-11
1.78475e-11
2.02404e-11
7.4756e-13
2.72212e-11
2.26955e-11
1.42321e-11
1.33495e-11
-2.15415e-11
1.67874e-11
-2.75783e-11
1.50252e-11
-3.08008e-11
6.45328e-12
-2.63759e-11
1.47214e-11
-4.46567e-12
-5.36989e-12
-3.62448e-11
1.89993e-12
-3.66663e-11
6.44758e-13
-2.73952e-11
5.55667e-12
-1.31647e-12
-1.36181e-12
-2.70065e-12
-1.51348e-11
-2.61352e-11
-1.95326e-11
-2.79248e-11
-1.67666e-11
-9.53183e-12
-2.33669e-11
-2.78772e-12
-1.76984e-11
-2.13117e-11
-2.47393e-11
6.65883e-12
-2.54619e-12
1.35477e-11
2.45646e-11
-5.34583e-13
2.23058e-11
9.62187e-12
8.89077e-12
1.40345e-11
-1.67663e-11
4.22477e-12
-5.20291e-11
2.65768e-11
7.20346e-12
9.54437e-12
-5.54757e-11
-1.20058e-12
7.32799e-12
2.24002e-12
-1.59792e-11
2.58962e-12
-3.91892e-11
1.02129e-11
-1.88792e-11
-3.02038e-12
2.6873e-12
-1.60192e-11
1.06955e-11
-1.41087e-11
-9.51139e-12
7.03736e-12
-3.57997e-11
-1.3814e-11
1.1219e-11
-1.54687e-11
4.68878e-12
-2.25257e-11
-1.10313e-11
-3.00046e-11
9.6154e-12
-1.24623e-11
4.51514e-13
8.18267e-12
8.05645e-13
1.78222e-11
4.20066e-12
1.03549e-11
-8.74911e-12
-2.1001e-11
4.4548e-11
-2.08198e-11
-4.76557e-11
-4.15214e-11
7.13449e-11
1.23703e-10
-1.12898e-11
-8.33345e-11
-1.84389e-11
1.54351e-11
1.57199e-11
-4.22822e-12
9.33771e-12
-2.66052e-11
-1.48003e-11
4.30765e-12
-2.59526e-11
2.99882e-11
-1.39784e-12
2.00273e-11
1.12315e-11
-6.7794e-12
-8.53499e-12
2.42138e-11
-5.35719e-12
1.34644e-11
-1.56233e-11
-1.76398e-13
-3.06583e-11
4.82196e-12
-2.80682e-11
-3.75899e-12
-8.0781e-12
3.77881e-12
9.19338e-12
1.65692e-12
1.29047e-11
-1.45982e-11
-3.72966e-11
2.16668e-11
5.52956e-11
5.97134e-11
-1.50271e-10
-1.37466e-10
5.2043e-11
1.19135e-10
1.22275e-10
-1.91557e-11
-1.07815e-10
-2.06701e-11
-8.66272e-12
2.52381e-11
2.25387e-11
-7.03852e-12
1.50187e-11
-3.34384e-11
4.11869e-11
-9.67865e-12
4.75948e-11
6.79017e-12
1.95477e-11
1.60995e-12
3.54061e-11
7.75952e-12
1.79261e-11
-1.133e-11
1.08968e-12
-3.18395e-11
2.24109e-12
-3.57686e-11
-5.84987e-12
-1.23521e-11
1.93386e-11
1.6475e-11
-3.53012e-11
-1.65997e-11
8.4675e-11
5.17009e-11
-1.78646e-10
-1.98364e-10
2.4513e-10
3.50006e-10
-1.47069e-10
-2.78162e-10
-9.66228e-11
3.13347e-10
1.22484e-10
1.2644e-10
1.42195e-11
-8.20715e-11
-1.1493e-11
-2.47923e-11
-6.78311e-12
2.45596e-11
-1.13286e-11
4.78152e-11
2.36951e-12
5.02977e-11
-1.17753e-11
2.63694e-11
4.80643e-12
3.88901e-11
1.83767e-11
1.62738e-11
-9.42859e-12
-3.55815e-12
-3.39692e-11
2.44845e-13
-2.91673e-11
7.60144e-12
-1.61873e-12
-5.7352e-12
6.13768e-12
4.91133e-11
2.69207e-11
-1.16488e-10
-7.87078e-11
1.58659e-10
8.47931e-11
-2.71307e-10
7.6444e-11
4.73922e-10
-4.76461e-10
-3.09027e-10
-3.433e-10
-1.18956e-10
7.77242e-11
6.76867e-11
5.17256e-11
3.34989e-11
-2.14591e-11
-2.50604e-13
5.01235e-12
-5.75362e-13
2.724e-11
1.26155e-11
3.29073e-11
-2.5507e-11
7.47247e-12
-4.54623e-12
3.12583e-11
2.08103e-11
7.01029e-12
-1.14017e-11
-5.25597e-12
-2.51348e-11
5.23035e-12
-1.55528e-11
-5.02336e-13
6.31733e-12
2.7725e-11
1.75857e-11
-1.37934e-11
-2.12906e-11
-5.01581e-11
5.44521e-11
3.02473e-10
-8.22217e-11
1.00338e-10
-5.58932e-10
1.608e-09
-8.15576e-09
1.56291e-10
2.48409e-10
-1.08371e-10
-2.22904e-10
-2.00039e-11
-4.15597e-11
3.43612e-11
-9.62833e-12
6.7501e-12
4.73571e-12
1.5778e-11
3.30031e-11
1.69426e-11
9.03072e-12
-3.21206e-11
-1.52827e-11
-1.0456e-11
1.34287e-11
1.18764e-11
6.74544e-13
-8.99645e-12
-3.5637e-12
-1.29135e-11
7.49384e-12
2.83814e-12
6.70517e-12
6.60163e-12
1.9062e-14
1.30114e-11
3.22557e-11
4.64454e-12
5.98511e-11
-9.32198e-11
-2.92594e-10
1.13636e-10
-9.16651e-11
5.75039e-11
-1.60558e-09
-3.04839e-10
-1.56361e-10
-2.89547e-10
1.17082e-10
1.16446e-10
1.76136e-11
5.65386e-11
-5.09e-12
5.16938e-13
3.66594e-13
-1.65346e-11
-2.34533e-11
-8.26198e-10
9.49627e-12
-1.18108e-11
-2.16178e-11
-2.5884e-11
-5.98701e-10
-1.8396e-12
1.57436e-12
-1.94956e-12
-5.77191e-12
3.88263e-12
3.46258e-12
5.24938e-12
9.41395e-12
6.02048e-12
8.11704e-12
1.36073e-11
-1.18826e-13
-3.26065e-11
-1.30363e-11
1.19101e-10
3.75338e-11
-1.34788e-10
-1.69227e-10
2.84445e-10
4.45465e-10
-4.69847e-10
-3.62464e-10
3.11002e-10
4.3704e-10
8.5564e-11
1.77862e-10
-5.30126e-11
-9.31467e-12
-3.20995e-11
1.25291e-11
-1.09332e-12
1.06389e-11
4.34738e-11
1.43734e-11
-2.11426e-12
-4.19473e-12
-2.71301e-11
-1.03724e-11
-5.71088e-12
-1.15132e-11
-4.53165e-12
2.49279e-12
3.71878e-12
7.36208e-12
1.27745e-11
4.53786e-12
1.60628e-11
5.32837e-12
-2.20008e-12
-2.03966e-12
1.66523e-12
1.22674e-11
-3.75208e-12
-5.15731e-11
1.28143e-11
2.94755e-10
1.34265e-10
-4.53788e-10
-3.44565e-10
3.2718e-10
-8.82079e-10
3.07267e-11
-1.22205e-10
-1.84628e-10
-1.45112e-10
-5.25749e-11
-1.47235e-11
-3.19473e-11
2.80764e-11
-1.86688e-11
9.06837e-12
-2.53697e-12
1.76123e-12
-1.47957e-11
2.60847e-12
-1.56464e-11
6.9963e-12
6.08806e-13
-1.21895e-11
-8.24081e-12
3.45565e-12
1.52561e-11
1.14154e-11
2.44156e-11
-4.1189e-12
1.64243e-11
1.24598e-11
-3.12737e-12
-2.46047e-12
-1.51488e-11
2.6925e-12
3.03044e-11
2.63115e-11
3.52613e-11
5.30945e-11
-6.79705e-11
5.29226e-10
-9.43313e-11
6.93394e-10
3.0241e-08
-3.67848e-11
1.3647e-10
-4.33939e-11
-1.51247e-10
-3.77615e-11
-3.54966e-11
-5.32919e-11
1.31292e-11
-1.75488e-11
1.20029e-11
-3.45552e-13
5.95678e-12
-1.54337e-11
8.65815e-12
-1.51607e-11
2.2111e-11
8.68309e-12
-2.74836e-12
-1.33097e-11
3.47391e-12
2.30023e-11
8.84872e-12
3.78014e-11
-7.07033e-12
2.31995e-11
5.32704e-12
-2.58944e-12
2.463e-11
-1.26092e-11
2.58899e-11
7.54765e-12
1.47619e-11
4.47413e-11
-6.7757e-11
7.4162e-11
-4.97195e-10
-2.03788e-10
-5.03141e-10
1.75357e-10
-1.25282e-10
-3.07912e-10
6.21872e-11
-1.21481e-12
2.86504e-11
1.67946e-11
-1.01101e-11
1.00253e-11
-1.36545e-11
1.03081e-11
-3.9062e-12
-5.4826e-12
-1.64725e-11
-3.88582e-12
-1.69382e-11
2.00851e-11
1.069e-11
1.31068e-11
-1.63503e-11
5.61234e-12
2.15879e-11
1.47103e-12
4.9843e-11
-1.17226e-11
3.68942e-11
3.61803e-12
1.2181e-11
2.75686e-11
-9.24804e-12
4.2535e-11
1.85147e-13
6.1987e-12
1.43369e-11
-1.45431e-10
2.28146e-11
3.16997e-10
2.1159e-10
-3.5529e-10
-2.67403e-10
9.17288e-11
1.12046e-10
7.64383e-11
3.70577e-11
3.33061e-11
3.07572e-11
1.00885e-11
2.56414e-11
-5.32352e-12
2.95819e-12
-6.56264e-12
-2.69231e-11
-1.30279e-11
-2.8286e-11
-1.37209e-11
5.58665e-12
7.53319e-12
2.44913e-11
-9.14412e-12
1.53475e-11
9.30478e-12
-5.71569e-12
4.92059e-11
-1.14333e-11
5.35826e-11
-4.0592e-12
2.52154e-11
2.48306e-11
2.01568e-12
2.65007e-11
-1.10363e-11
1.08425e-11
-7.79395e-12
1.31407e-11
9.84626e-12
-4.32541e-11
-1.07387e-11
6.57497e-11
-3.98589e-10
3.99466e-11
1.78947e-11
3.17167e-11
2.77305e-11
1.91344e-11
2.87575e-11
-6.47476e-13
1.0846e-11
-1.6727e-11
-7.86871e-12
-1.80531e-11
-3.98601e-11
-9.30998e-12
-4.59889e-11
-5.66437e-12
-1.19207e-11
-3.13213e-13
1.56067e-11
8.95601e-12
2.86644e-11
4.98285e-12
-1.61128e-12
2.56125e-11
-1.32866e-11
5.22579e-11
-5.00574e-12
2.82477e-11
5.7578e-12
4.95931e-12
1.10033e-11
-1.07345e-11
1.6256e-11
-8.17724e-12
1.88084e-12
-1.72355e-11
-1.26943e-11
-1.09625e-11
2.59058e-11
2.56505e-12
2.42671e-11
-1.42672e-11
4.35307e-12
-1.12137e-12
-7.94321e-12
1.08317e-11
-6.86979e-12
9.38516e-12
-3.04996e-11
-1.41729e-11
-3.92069e-11
-3.69828e-11
-1.372e-11
-3.37917e-11
4.44422e-12
-1.01823e-11
-3.78186e-12
-9.42541e-12
2.63356e-11
2.34069e-11
1.88693e-11
1.82122e-11
6.57863e-12
-1.17822e-11
1.23665e-11
-4.52761e-12
1.37467e-11
-9.49904e-12
-6.47416e-12
-1.02889e-12
5.2332e-13
5.06585e-12
6.53415e-12
1.94047e-11
1.09697e-11
1.65104e-11
-1.91222e-11
4.77506e-12
-2.73676e-11
3.29228e-12
-3.17932e-11
-1.04785e-11
-1.43035e-11
-9.71226e-12
1.01163e-11
-2.17699e-11
1.12431e-12
-3.90789e-11
-1.3294e-11
-4.73907e-11
-1.4055e-11
-2.33394e-11
6.35298e-12
1.15873e-11
2.34545e-11
9.71937e-12
-3.01985e-11
2.81641e-11
-2.36071e-12
3.50574e-11
2.58067e-11
6.69633e-12
9.39724e-12
-2.84283e-11
-7.22115e-12
-2.57838e-11
-8.02632e-12
-1.04562e-11
-9.37266e-12
8.01644e-12
1.11726e-11
3.40044e-11
1.28488e-11
3.58413e-11
7.13909e-12
1.51687e-11
1.37956e-11
-4.90958e-12
8.9241e-12
-1.02586e-11
-4.31291e-13
1.85481e-12
-1.92005e-11
6.30018e-12
-2.14197e-11
-2.28486e-12
-2.284e-11
-1.37466e-11
-3.71663e-11
-4.22809e-12
-2.8647e-11
3.86049e-11
1.29253e-11
6.42119e-11
3.07368e-11
-2.71271e-11
1.55462e-11
-2.71503e-11
2.91782e-11
6.70865e-12
1.03263e-11
2.40657e-11
-2.97465e-11
7.54674e-12
-3.69414e-11
-5.01811e-12
-1.46601e-11
-1.10119e-12
8.82487e-12
1.18256e-11
3.12714e-11
1.08499e-11
3.61567e-11
5.19359e-12
3.0164e-11
1.10539e-11
1.46679e-11
1.30137e-11
1.33558e-11
3.79996e-12
1.10602e-11
-1.02407e-11
7.81939e-12
-7.7972e-12
2.1422e-12
5.08171e-12
-8.40632e-12
5.71244e-12
1.70364e-12
-3.86436e-12
4.0301e-11
6.44437e-12
6.15305e-11
3.1585e-11
-1.51714e-11
-3.85175e-11
-1.5792e-11
2.48763e-11
2.09532e-11
1.56172e-12
5.89513e-12
1.42494e-11
1.14574e-11
8.43166e-12
4.75458e-12
8.89197e-12
5.9828e-12
-2.7194e-12
-2.17041e-12
2.7502e-11
4.75813e-11
2.06607e-11
-1.24502e-11
)
;

boundaryField
{
    sides
    {
        type            calculated;
        value           uniform 0;
    }
    inlet
    {
        type            calculated;
        value           uniform 0;
    }
    outlet
    {
        type            calculated;
        value           nonuniform List<scalar> 
20
(
1.62392e-11
7.57296e-12
2.90506e-12
1.37244e-11
2.03573e-12
-3.20943e-11
-5.92537e-11
-6.81926e-11
-5.97674e-11
-2.00412e-11
-8.72712e-12
-5.23998e-12
-6.72859e-12
-8.00037e-12
-7.51397e-12
3.3137e-12
2.41503e-11
3.64595e-11
1.70508e-11
-1.96274e-11
)
;
    }
    frontAndBack
    {
        type            empty;
        value           nonuniform List<scalar> 0();
    }
}


// ************************************************************************* //
