/*--------------------------------*- C++ -*----------------------------------*\
  =========                 |
  \\      /  F ield         | OpenFOAM: The Open Source CFD Toolbox
   \\    /   O peration     | Website:  https://openfoam.org
    \\  /    A nd           | Version:  9
     \\/     M anipulation  |
\*---------------------------------------------------------------------------*/
FoamFile
{
    format      ascii;
    class       volVectorField;
    location    "63";
    object      ddtCorrDdt0(hU);
}
// * * * * * * * * * * * * * * * * * * * * * * * * * * * * * * * * * * * * * //

dimensions      [0 2 -2 0 0 0 0];

internalField   nonuniform List<vector> 
400
(
(-4.38745e-09 -8.06954e-10 0)
(-7.45239e-09 -4.61389e-10 0)
(-3.05212e-09 4.02581e-10 0)
(1.39778e-09 -4.17429e-10 0)
(2.64041e-09 -4.21525e-11 0)
(1.52438e-09 2.2018e-09 0)
(2.86736e-09 5.21861e-10 0)
(3.02789e-09 -1.38147e-10 0)
(4.92667e-09 -2.21906e-09 0)
(1.76126e-09 -1.55348e-09 0)
(2.2643e-09 1.82434e-10 0)
(1.39638e-09 -1.50899e-09 0)
(8.53925e-10 -1.17465e-09 0)
(1.28146e-09 -3.32206e-09 0)
(-1.22833e-09 -1.94682e-09 0)
(1.80141e-09 -1.70847e-10 0)
(2.06741e-09 -1.44457e-09 0)
(-4.67223e-09 -2.53436e-09 0)
(-4.71032e-09 -3.50886e-10 0)
(1.46391e-10 -3.89446e-10 0)
(-1.90709e-09 -3.26386e-09 0)
(-6.17301e-09 -1.13267e-09 0)
(-3.28082e-09 4.44782e-10 0)
(3.84168e-10 -1.4116e-09 0)
(1.91748e-09 1.72735e-09 0)
(1.84462e-09 4.79876e-09 0)
(2.13824e-09 2.05704e-09 0)
(3.06815e-09 -1.90009e-09 0)
(2.67546e-09 -4.81882e-09 0)
(4.30304e-09 -4.60868e-09 0)
(1.60087e-09 -1.03551e-09 0)
(2.01855e-09 -2.60802e-09 0)
(7.83976e-10 -4.89622e-09 0)
(-1.182e-11 -7.03845e-09 0)
(1.06152e-09 -4.82376e-09 0)
(2.95095e-10 -5.04027e-10 0)
(1.78673e-13 -1.26433e-09 0)
(-1.72188e-09 -4.9586e-09 0)
(-3.28741e-09 -5.38104e-09 0)
(-1.3575e-09 -1.95951e-09 0)
(1.78144e-09 -4.75988e-09 0)
(-2.68097e-09 -2.39786e-09 0)
(-2.64586e-09 -2.46084e-09 0)
(-4.02414e-10 -1.45199e-09 0)
(8.51458e-10 4.19485e-09 0)
(2.14947e-09 4.96896e-09 0)
(3.80092e-10 2.52657e-09 0)
(2.56333e-09 -3.59776e-09 0)
(1.67245e-09 -7.66994e-09 0)
(2.76907e-09 -2.63146e-09 0)
(4.85163e-09 -5.94561e-09 0)
(-4.41144e-10 -1.96845e-10 0)
(6.97086e-10 -5.31813e-09 0)
(3.94213e-10 -7.8658e-09 0)
(1.43087e-09 -4.88785e-09 0)
(6.25984e-10 -3.45922e-10 0)
(-1.64208e-09 5.0053e-10 0)
(-2.66294e-09 -4.04085e-09 0)
(-1.38798e-09 -7.20917e-09 0)
(1.1057e-09 -3.06439e-09 0)
(4.14531e-09 -3.83711e-09 0)
(4.24545e-10 -3.95653e-09 0)
(-6.62669e-10 -5.54177e-09 0)
(-4.47807e-10 -1.78731e-09 0)
(7.20891e-10 3.23565e-09 0)
(5.33076e-10 4.21434e-09 0)
(7.09316e-10 1.91619e-09 0)
(-1.29222e-09 -3.76817e-09 0)
(5.20763e-09 -7.51608e-09 0)
(-1.66921e-09 -3.53938e-09 0)
(1.86985e-09 5.18318e-09 0)
(8.72784e-09 -7.75991e-09 0)
(-5.62013e-09 -1.16594e-10 0)
(5.34211e-10 -4.55992e-09 0)
(2.65133e-09 -4.8589e-09 0)
(-1.10376e-09 8.85788e-10 0)
(-3.40612e-09 4.06174e-09 0)
(-1.84707e-09 2.87517e-10 0)
(6.0082e-11 -4.56283e-09 0)
(2.4716e-09 -3.19813e-09 0)
(4.62722e-09 -2.07776e-09 0)
(3.23575e-09 -3.90672e-09 0)
(1.07636e-09 -6.20046e-09 0)
(3.9035e-11 -4.14622e-09 0)
(-2.16287e-10 1.51879e-10 0)
(9.58541e-10 2.77787e-09 0)
(-1.07719e-09 2.15802e-09 0)
(2.21244e-09 -6.14228e-09 0)
(-5.86766e-09 2.67904e-09 0)
(1.91691e-08 -1.60964e-08 0)
(-1.89624e-08 1.68816e-08 0)
(2.04839e-09 4.01836e-10 0)
(1.29331e-08 -8.78947e-09 0)
(-7.4072e-09 4.13209e-10 0)
(7.24833e-10 -1.84471e-10 0)
(2.69393e-09 2.26825e-09 0)
(-3.0403e-09 7.48164e-09 0)
(-4.33504e-09 6.73794e-09 0)
(-1.72379e-09 5.46725e-10 0)
(1.46629e-09 -9.57305e-10 0)
(3.79895e-09 1.86856e-10 0)
(5.05492e-09 -2.92339e-09 0)
(2.31911e-09 -6.4269e-09 0)
(-2.64692e-10 -6.34061e-09 0)
(-2.69912e-12 -1.85554e-09 0)
(4.93536e-10 2.63772e-09 0)
(-1.68409e-10 -4.39687e-10 0)
(2.4058e-09 1.95381e-10 0)
(-5.38871e-09 -1.18281e-08 0)
(1.56741e-09 1.22095e-08 0)
(2.04496e-08 -1.48644e-08 0)
(-3.98611e-08 4.28911e-08 0)
(9.94741e-09 -4.95234e-10 0)
(1.6296e-08 -8.80355e-09 0)
(-2.75852e-09 2.27886e-10 0)
(-1.72009e-09 4.09722e-09 0)
(-3.91677e-10 8.86943e-09 0)
(-5.73235e-10 1.00023e-08 0)
(-2.15516e-09 5.36042e-09 0)
(-4.11244e-09 1.09021e-09 0)
(1.9758e-09 2.57876e-09 0)
(5.64468e-09 -2.19834e-09 0)
(2.23637e-09 -6.67776e-09 0)
(-3.05329e-10 -6.47581e-09 0)
(-1.88582e-10 -1.33465e-09 0)
(7.94385e-10 2.2662e-09 0)
(3.23172e-09 8.06988e-10 0)
(-7.9893e-09 -1.79599e-09 0)
(1.96925e-08 -1.41326e-08 0)
(-4.33244e-08 3.90785e-08 0)
(4.63821e-08 -6.7154e-08 0)
(1.56882e-08 2.60431e-09 0)
(-5.61827e-08 1.80206e-08 0)
(6.89624e-10 -5.40346e-09 0)
(1.23164e-08 -5.31964e-09 0)
(2.30021e-09 3.31377e-09 0)
(2.47797e-10 8.37746e-09 0)
(1.43231e-09 8.93993e-09 0)
(-1.78631e-09 3.44794e-09 0)
(-8.4817e-09 3.37152e-11 0)
(5.48614e-11 4.03439e-09 0)
(4.29468e-09 -1.96003e-09 0)
(1.75647e-09 -5.94444e-09 0)
(-6.46462e-10 -4.59511e-09 0)
(1.09741e-10 3.24888e-10 0)
(1.98227e-09 2.46136e-09 0)
(1.08704e-09 7.49719e-10 0)
(-1.47722e-09 -4.68142e-09 0)
(1.47242e-08 1.04496e-08 0)
(-3.95022e-08 -3.86597e-08 0)
(3.38898e-07 7.71587e-08 0)
(1.01618e-07 -2.64816e-08 0)
(-2.09861e-10 -1.21017e-08 0)
(-1.68635e-08 4.46257e-09 0)
(2.94972e-09 -6.07329e-10 0)
(4.97914e-09 3.38943e-10 0)
(1.89551e-09 6.8709e-09 0)
(3.28657e-09 5.3002e-09 0)
(-1.27444e-09 -4.57002e-10 0)
(-1.03653e-08 -1.31149e-09 0)
(-1.66421e-09 3.46136e-09 0)
(2.23086e-09 -1.87985e-09 0)
(9.97808e-10 -3.88386e-09 0)
(-2.6729e-10 -1.55075e-09 0)
(1.65724e-10 1.2903e-09 0)
(1.88121e-09 2.97518e-09 0)
(2.8276e-09 -8.2291e-10 0)
(5.68901e-09 -5.11673e-09 0)
(-1.2479e-08 9.51879e-09 0)
(4.02668e-08 -3.7334e-08 0)
(-3.37054e-07 7.69219e-08 0)
(-1.02306e-07 -2.36165e-08 0)
(2.24024e-09 -8.2208e-09 0)
(1.70794e-08 4.34395e-09 0)
(-9.44959e-10 6.66793e-10 0)
(1.3152e-09 -2.0559e-09 0)
(-5.91493e-09 -1.4133e-09 0)
(6.8339e-10 -7.54871e-10 0)
(-1.19336e-09 -5.36174e-09 0)
(-8.18152e-09 -4.82195e-09 0)
(-2.50398e-09 1.45979e-09 0)
(4.87527e-10 -1.43099e-09 0)
(1.06378e-09 -1.05572e-09 0)
(-1.29239e-10 9.96887e-10 0)
(5.7222e-10 1.62403e-09 0)
(1.51257e-09 1.40578e-09 0)
(5.30563e-10 -4.68244e-10 0)
(9.4792e-09 -4.03922e-09 0)
(-1.68254e-08 -1.14427e-08 0)
(4.40939e-08 4.72598e-08 0)
(-4.17272e-08 -6.57607e-08 0)
(-1.68267e-08 1.98921e-08 0)
(5.32224e-08 2.99281e-08 0)
(-2.8568e-09 2.31876e-09 0)
(-1.01857e-08 -4.81204e-10 0)
(-4.73627e-09 -7.49586e-10 0)
(7.75721e-09 -3.30647e-09 0)
(2.87103e-09 -2.54802e-09 0)
(-1.92241e-09 -5.27731e-09 0)
(-5.7741e-09 -4.50679e-09 0)
(-2.81869e-09 -2.92386e-10 0)
(-1.44577e-10 -1.53587e-10 0)
(1.28073e-09 1.61396e-09 0)
(3.95491e-10 2.47327e-09 0)
(2.13717e-10 5.80203e-10 0)
(1.05398e-09 1.81564e-10 0)
(1.42029e-09 -1.18697e-09 0)
(-3.24199e-10 3.273e-09 0)
(2.07299e-08 -5.29414e-09 0)
(-1.13304e-08 1.53089e-08 0)
(-3.31355e-08 -1.31977e-08 0)
(6.5462e-08 3.97474e-08 0)
(-2.9507e-08 7.79692e-09 0)
(-2.4822e-08 1.71946e-09 0)
(-5.97674e-09 4.1319e-09 0)
(-5.34501e-09 1.4692e-09 0)
(-2.92582e-09 1.58978e-09 0)
(-1.13632e-09 7.44278e-11 0)
(-2.49989e-09 -3.75003e-10 0)
(-2.91431e-09 -5.03775e-10 0)
(-2.84157e-09 -1.46035e-09 0)
(-1.38778e-11 1.82168e-09 0)
(1.37419e-09 3.84167e-09 0)
(2.92218e-10 3.29453e-09 0)
(3.43346e-10 -4.86848e-10 0)
(1.09908e-09 -1.71233e-09 0)
(1.99864e-09 2.7071e-09 0)
(3.84744e-09 6.05137e-09 0)
(2.58073e-09 1.00428e-08 0)
(5.2886e-10 -2.94672e-08 0)
(2.44475e-07 1.15928e-08 0)
(3.42343e-09 -1.81956e-08 0)
(-7.45975e-09 -2.41922e-08 0)
(-7.73839e-09 -3.41982e-10 0)
(-9.10172e-09 4.33032e-09 0)
(-7.38714e-09 3.72713e-09 0)
(-2.19248e-09 1.53308e-09 0)
(-1.23539e-09 1.39501e-09 0)
(-2.48123e-09 3.16735e-09 0)
(-2.49369e-09 1.08637e-09 0)
(-2.33671e-09 -2.41992e-09 0)
(9.15851e-10 3.6624e-09 0)
(1.44396e-09 6.42986e-09 0)
(-2.91445e-10 4.17409e-09 0)
(1.05873e-10 -4.80121e-10 0)
(2.49872e-09 -2.98605e-09 0)
(5.35637e-09 3.2132e-09 0)
(1.01809e-09 1.01198e-08 0)
(6.70744e-09 5.67655e-09 0)
(-1.96655e-08 -1.99175e-08 0)
(-1.95849e-07 1.22598e-08 0)
(-1.31869e-08 -3.31439e-08 0)
(-7.31928e-09 -1.43772e-08 0)
(1.15888e-08 -2.63447e-09 0)
(1.53654e-09 2.18499e-09 0)
(-2.40563e-09 4.27403e-09 0)
(-2.25061e-09 1.06195e-09 0)
(-2.25687e-09 8.71656e-10 0)
(-2.63274e-09 4.51224e-09 0)
(-2.77196e-09 2.13468e-09 0)
(-7.32255e-10 -3.06793e-09 0)
(2.44375e-09 4.38506e-09 0)
(1.2307e-09 8.96317e-09 0)
(-1.16164e-09 6.23083e-09 0)
(-5.94726e-10 1.01167e-09 0)
(2.88132e-09 -2.33834e-09 0)
(5.58774e-09 7.15458e-10 0)
(4.94989e-09 5.86643e-09 0)
(-1.47411e-08 7.18097e-09 0)
(2.51436e-08 7.01643e-09 0)
(-8.89744e-09 -7.95806e-09 0)
(-3.41291e-08 -8.01615e-09 0)
(2.48412e-08 5.87065e-09 0)
(1.01355e-08 4.90155e-09 0)
(4.02058e-09 3.69308e-09 0)
(7.42487e-10 1.27085e-09 0)
(-1.54775e-09 -3.28798e-09 0)
(-2.36626e-09 -3.12234e-09 0)
(-2.07093e-09 2.70699e-09 0)
(-2.51603e-09 1.93287e-09 0)
(1.98709e-09 -2.46261e-09 0)
(3.61261e-09 3.20473e-09 0)
(1.47554e-09 9.95709e-09 0)
(-1.57516e-09 9.08802e-09 0)
(-1.19686e-09 3.74266e-09 0)
(1.51297e-09 -6.89651e-10 0)
(4.74108e-09 -7.87398e-10 0)
(2.26577e-09 8.51547e-10 0)
(3.94705e-09 3.70789e-09 0)
(-2.16137e-09 1.6852e-08 0)
(2.40103e-10 -2.00984e-08 0)
(1.3053e-08 1.36674e-08 0)
(6.06023e-09 8.66238e-09 0)
(5.58041e-09 6.3623e-09 0)
(1.35781e-09 3.42093e-09 0)
(-1.66299e-09 -8.64268e-10 0)
(-3.20337e-09 -6.94784e-09 0)
(-3.06817e-09 -7.72996e-09 0)
(-1.42535e-09 -9.68357e-10 0)
(-1.37211e-09 5.60771e-10 0)
(4.07871e-09 1.02092e-10 0)
(3.2428e-09 1.7507e-09 0)
(1.82069e-09 7.54902e-09 0)
(-6.24807e-10 1.03241e-08 0)
(-1.75008e-09 5.18987e-09 0)
(4.59291e-10 8.10043e-10 0)
(8.5463e-10 -1.67545e-09 0)
(2.75048e-09 -9.9945e-10 0)
(1.41708e-09 -5.11914e-10 0)
(-2.22486e-10 -2.04033e-09 0)
(4.92327e-10 1.74412e-09 0)
(5.69925e-09 -1.78508e-09 0)
(3.68607e-09 1.39413e-09 0)
(-1.34054e-09 2.9588e-09 0)
(-1.78796e-09 1.58691e-09 0)
(-3.41789e-09 -2.76033e-09 0)
(-6.26766e-09 -8.27384e-09 0)
(-5.39123e-09 -8.28722e-09 0)
(-1.70578e-09 -2.38462e-09 0)
(1.17373e-09 -6.10802e-10 0)
(3.67183e-09 3.53911e-09 0)
(4.33636e-10 2.58002e-09 0)
(1.84336e-09 3.35963e-09 0)
(9.4201e-10 6.24859e-09 0)
(-5.47286e-10 4.00687e-09 0)
(-1.19427e-09 -1.09151e-10 0)
(-6.44077e-10 -7.81834e-10 0)
(-3.80205e-10 1.12297e-10 0)
(2.0679e-09 -2.11643e-10 0)
(3.76416e-09 -2.7391e-09 0)
(2.69359e-09 -4.4985e-09 0)
(9.69694e-10 -5.14668e-09 0)
(-1.29063e-09 -1.80967e-09 0)
(-1.80548e-09 2.02537e-09 0)
(-3.36865e-09 1.16174e-09 0)
(-6.46233e-09 -3.09109e-09 0)
(-7.56789e-09 -5.53915e-09 0)
(-6.5926e-09 -2.91716e-09 0)
(-2.56541e-09 1.33508e-09 0)
(4.09904e-09 5.54512e-10 0)
(5.77717e-10 5.03699e-09 0)
(-3.42879e-09 5.36548e-09 0)
(4.65066e-10 2.12906e-09 0)
(2.7604e-09 -9.02569e-10 0)
(1.51207e-09 -1.3758e-09 0)
(-7.21606e-10 -2.20329e-09 0)
(-1.57594e-09 4.96329e-10 0)
(-5.77697e-10 3.97894e-09 0)
(1.92908e-09 5.06147e-09 0)
(2.23337e-09 7.51805e-10 0)
(2.62406e-09 -4.10357e-09 0)
(2.36471e-09 -3.7841e-09 0)
(5.26056e-10 -5.38559e-10 0)
(-2.00367e-09 2.29116e-09 0)
(-4.29801e-09 4.27431e-10 0)
(-4.41939e-09 -2.23851e-09 0)
(-5.35215e-09 -1.4583e-09 0)
(-6.53899e-09 4.79868e-09 0)
(-2.27209e-09 9.30739e-09 0)
(5.21478e-09 4.43109e-09 0)
(-2.89417e-09 3.71711e-09 0)
(-5.21633e-09 6.04133e-09 0)
(-1.88804e-09 2.73119e-09 0)
(2.69915e-09 -4.47247e-09 0)
(3.27555e-09 -6.26613e-09 0)
(1.03923e-09 -3.70867e-09 0)
(-7.45585e-10 3.85949e-10 0)
(4.45948e-10 5.61852e-09 0)
(1.6306e-09 7.13951e-09 0)
(2.14902e-09 5.36545e-09 0)
(2.32386e-09 3.37197e-09 0)
(2.11861e-09 1.7324e-09 0)
(1.22893e-09 2.24877e-09 0)
(-6.58905e-10 2.63436e-09 0)
(-1.177e-09 1.56649e-09 0)
(-5.0476e-11 -6.39024e-10 0)
(4.21619e-10 9.55669e-10 0)
(-4.39326e-10 9.04931e-09 0)
(1.37296e-09 1.41677e-08 0)
(1.82667e-09 6.82825e-09 0)
(-4.96762e-09 1.28564e-09 0)
(-5.38177e-09 2.56557e-09 0)
(-3.59081e-09 1.32474e-09 0)
(1.58334e-09 -2.3382e-09 0)
(3.98487e-09 -3.58589e-09 0)
(2.27285e-09 -2.14032e-09 0)
(5.57639e-10 -4.41895e-11 0)
(1.13236e-09 2.29032e-09 0)
(2.34149e-09 3.33394e-09 0)
(2.66638e-09 3.32403e-09 0)
(1.53908e-09 3.16385e-09 0)
(1.1781e-09 2.30512e-09 0)
(1.12173e-09 2.08878e-09 0)
(4.09208e-10 1.86584e-09 0)
(4.99251e-10 1.28594e-09 0)
(2.93724e-09 1.88668e-10 0)
(6.1984e-09 1.0124e-09 0)
(5.68722e-09 4.80243e-09 0)
(2.92721e-09 7.09566e-09 0)
(-4.14e-09 3.37161e-09 0)
)
;

boundaryField
{
    sides
    {
        type            calculated;
        value           nonuniform List<vector> 
40
(
(-4.96762e-09 0 0)
(-5.38177e-09 0 0)
(-3.59081e-09 0 0)
(1.58334e-09 0 0)
(3.98487e-09 0 0)
(2.27285e-09 0 0)
(5.57639e-10 0 0)
(1.13236e-09 0 0)
(2.34149e-09 0 0)
(2.66638e-09 0 0)
(1.53908e-09 0 0)
(1.1781e-09 0 0)
(1.12173e-09 0 0)
(4.09208e-10 0 0)
(4.99251e-10 0 0)
(2.93724e-09 0 0)
(6.1984e-09 0 0)
(5.68722e-09 0 0)
(2.92721e-09 0 0)
(-4.14e-09 0 0)
(-4.38745e-09 0 0)
(-7.45239e-09 0 0)
(-3.05212e-09 0 0)
(1.39778e-09 0 0)
(2.64041e-09 0 0)
(1.52438e-09 0 0)
(2.86736e-09 0 0)
(3.02789e-09 0 0)
(4.92667e-09 0 0)
(1.76126e-09 0 0)
(2.2643e-09 0 0)
(1.39638e-09 0 0)
(8.53925e-10 0 0)
(1.28146e-09 0 0)
(-1.22833e-09 0 0)
(1.80141e-09 0 0)
(2.06741e-09 0 0)
(-4.67223e-09 0 0)
(-4.71032e-09 0 0)
(1.46391e-10 0 0)
)
;
    }
    inlet
    {
        type            calculated;
        value           uniform (0 0 0);
    }
    outlet
    {
        type            calculated;
        value           nonuniform List<vector> 
20
(
(1.46391e-10 -3.89446e-10 0)
(-1.3575e-09 -1.95951e-09 0)
(1.1057e-09 -3.06439e-09 0)
(2.4716e-09 -3.19813e-09 0)
(1.46629e-09 -9.57305e-10 0)
(-4.11244e-09 1.09021e-09 0)
(-8.4817e-09 3.37152e-11 0)
(-1.03653e-08 -1.31149e-09 0)
(-8.18152e-09 -4.82195e-09 0)
(-5.7741e-09 -4.50679e-09 0)
(-2.91431e-09 -5.03775e-10 0)
(-2.49369e-09 1.08637e-09 0)
(-2.77196e-09 2.13468e-09 0)
(-2.51603e-09 1.93287e-09 0)
(-1.37211e-09 5.60771e-10 0)
(1.17373e-09 -6.10802e-10 0)
(4.09904e-09 5.54512e-10 0)
(5.21478e-09 4.43109e-09 0)
(1.82667e-09 6.82825e-09 0)
(-4.14e-09 3.37161e-09 0)
)
;
    }
    frontAndBack
    {
        type            empty;
    }
}


// ************************************************************************* //
