/*--------------------------------*- C++ -*----------------------------------*\
  =========                 |
  \\      /  F ield         | OpenFOAM: The Open Source CFD Toolbox
   \\    /   O peration     | Website:  https://openfoam.org
    \\  /    A nd           | Version:  9
     \\/     M anipulation  |
\*---------------------------------------------------------------------------*/
FoamFile
{
    format      ascii;
    class       volVectorField;
    location    "63";
    object      hU_0;
}
// * * * * * * * * * * * * * * * * * * * * * * * * * * * * * * * * * * * * * //

dimensions      [0 2 -1 0 0 0 0];

internalField   nonuniform List<vector> 
400
(
(0.001 -2.42504e-08 0)
(0.00100004 -7.10511e-08 0)
(0.00100012 -1.13571e-07 0)
(0.00100024 -1.52251e-07 0)
(0.00100039 -1.87245e-07 0)
(0.00100058 -2.17069e-07 0)
(0.00100078 -2.37532e-07 0)
(0.00100099 -2.45633e-07 0)
(0.00100118 -2.36091e-07 0)
(0.00100133 -2.10601e-07 0)
(0.00100141 -1.68143e-07 0)
(0.0010014 -1.28662e-07 0)
(0.00100129 -9.94414e-08 0)
(0.00100111 -9.33846e-08 0)
(0.00100087 -9.95805e-08 0)
(0.00100065 -1.35301e-07 0)
(0.00100044 -1.56342e-07 0)
(0.00100034 -2.01299e-07 0)
(0.00100026 -1.89008e-07 0)
(0.00100033 -2.68581e-07 0)
(0.001 -2.68438e-08 0)
(0.00100005 -8.00843e-08 0)
(0.00100013 -1.29187e-07 0)
(0.00100026 -1.73981e-07 0)
(0.00100042 -2.13259e-07 0)
(0.00100062 -2.41053e-07 0)
(0.00100084 -2.47404e-07 0)
(0.00100108 -2.21246e-07 0)
(0.0010013 -1.5425e-07 0)
(0.00100147 -4.66323e-08 0)
(0.00100157 9.43169e-08 0)
(0.00100154 2.46867e-07 0)
(0.00100141 3.8825e-07 0)
(0.00100119 4.75862e-07 0)
(0.00100093 5.05317e-07 0)
(0.00100067 4.52847e-07 0)
(0.00100049 3.78797e-07 0)
(0.00100037 2.55753e-07 0)
(0.00100033 2.0377e-07 0)
(0.00100029 8.08618e-08 0)
(0.001 -5.30837e-08 0)
(0.00100004 -1.60877e-07 0)
(0.00100013 -2.682e-07 0)
(0.00100026 -3.73694e-07 0)
(0.00100043 -4.73269e-07 0)
(0.00100065 -5.5662e-07 0)
(0.0010009 -6.06009e-07 0)
(0.00100117 -5.99415e-07 0)
(0.00100143 -5.17956e-07 0)
(0.00100165 -3.50815e-07 0)
(0.00100177 -1.09644e-07 0)
(0.00100176 1.61251e-07 0)
(0.0010016 3.99538e-07 0)
(0.00100131 5.18843e-07 0)
(0.00100095 4.99951e-07 0)
(0.00100062 3.55349e-07 0)
(0.00100037 2.03764e-07 0)
(0.00100026 4.45498e-08 0)
(0.00100022 -4.94122e-09 0)
(0.0010003 -1.17292e-07 0)
(0.001 -7.45492e-08 0)
(0.00100004 -2.24678e-07 0)
(0.00100013 -3.76457e-07 0)
(0.00100026 -5.30195e-07 0)
(0.00100045 -6.80025e-07 0)
(0.00100069 -8.11563e-07 0)
(0.001001 -8.92623e-07 0)
(0.00100135 -8.88431e-07 0)
(0.00100171 -7.56425e-07 0)
(0.00100203 -4.73964e-07 0)
(0.00100222 -2.3792e-08 0)
(0.00100219 4.90556e-07 0)
(0.00100193 9.34091e-07 0)
(0.00100147 1.13812e-06 0)
(0.00100097 1.05545e-06 0)
(0.00100059 7.45033e-07 0)
(0.00100041 4.2412e-07 0)
(0.00100035 1.67294e-07 0)
(0.0010004 9.9426e-08 0)
(0.00100035 1.83618e-10 0)
(0.001 -9.2427e-08 0)
(0.00100004 -2.80667e-07 0)
(0.00100012 -4.7852e-07 0)
(0.00100025 -6.93352e-07 0)
(0.00100045 -9.20022e-07 0)
(0.00100072 -1.14124e-06 0)
(0.0010011 -1.30316e-06 0)
(0.00100156 -1.34105e-06 0)
(0.00100207 -1.17651e-06 0)
(0.00100257 -7.78743e-07 0)
(0.0010029 -1.70887e-07 0)
(0.00100289 5.75262e-07 0)
(0.00100245 1.22781e-06 0)
(0.00100168 1.5102e-06 0)
(0.00100087 1.37584e-06 0)
(0.00100031 9.6642e-07 0)
(0.00100013 5.81213e-07 0)
(0.00100022 3.10741e-07 0)
(0.00100037 2.58988e-07 0)
(0.00100043 1.67688e-07 0)
(0.001 -1.05042e-07 0)
(0.00100003 -3.21223e-07 0)
(0.00100009 -5.63416e-07 0)
(0.00100019 -8.43845e-07 0)
(0.00100038 -1.17216e-06 0)
(0.00100069 -1.52727e-06 0)
(0.00100115 -1.8638e-06 0)
(0.00100179 -2.05826e-06 0)
(0.00100254 -1.91318e-06 0)
(0.00100326 -1.20222e-06 0)
(0.00100377 8.52778e-08 0)
(0.00100378 1.53962e-06 0)
(0.0010031 2.42929e-06 0)
(0.00100192 2.30345e-06 0)
(0.00100082 1.43107e-06 0)
(0.00100019 4.93974e-07 0)
(0.00100018 1.274e-08 0)
(0.00100037 -8.86547e-08 0)
(0.00100064 5.73682e-08 0)
(0.00100055 4.96803e-08 0)
(0.001 -1.04204e-07 0)
(0.001 -3.35931e-07 0)
(0.00100002 -6.03039e-07 0)
(0.00100008 -9.61341e-07 0)
(0.00100021 -1.39208e-06 0)
(0.00100049 -1.94847e-06 0)
(0.001001 -2.49351e-06 0)
(0.00100188 -3.08752e-06 0)
(0.00100321 -3.23572e-06 0)
(0.00100473 -2.87954e-06 0)
(0.00100574 -6.7471e-07 0)
(0.00100535 2.55358e-06 0)
(0.0010035 4.82486e-06 0)
(0.00100113 4.73493e-06 0)
(0.000999613 3.02942e-06 0)
(0.000999375 1.26549e-06 0)
(0.00100001 4.30196e-07 0)
(0.00100056 3.22907e-07 0)
(0.00100093 5.5897e-07 0)
(0.00100066 5.33611e-07 0)
(0.000999996 -9.37324e-08 0)
(0.000999969 -2.90657e-07 0)
(0.000999907 -5.78034e-07 0)
(0.000999876 -9.56532e-07 0)
(0.00099988 -1.5774e-06 0)
(0.0010001 -2.3467e-06 0)
(0.0010005 -3.4059e-06 0)
(0.00100153 -4.12756e-06 0)
(0.00100308 -4.37299e-06 0)
(0.00100601 -2.54715e-06 0)
(0.00100911 7.56593e-07 0)
(0.00100915 4.2668e-06 0)
(0.00100551 4.71928e-06 0)
(0.00100074 2.78258e-06 0)
(0.000998155 7.35942e-07 0)
(0.000998278 -2.73677e-07 0)
(0.000999802 -2.86594e-07 0)
(0.00100088 -1.28813e-08 0)
(0.00100133 2.09245e-07 0)
(0.00100085 1.02266e-07 0)
(0.000999996 -4.98172e-08 0)
(0.000999916 -2.04945e-07 0)
(0.000999756 -3.8729e-07 0)
(0.000999531 -7.34944e-07 0)
(0.000999289 -1.33851e-06 0)
(0.000999213 -2.48252e-06 0)
(0.000999709 -4.68956e-06 0)
(0.0010014 -8.07039e-06 0)
(0.00100492 -1.32858e-05 0)
(0.00100959 -1.49112e-05 0)
(0.00101189 3.84452e-06 0)
(0.00100893 1.87296e-05 0)
(0.00100222 1.57823e-05 0)
(0.000997569 5.74234e-06 0)
(0.000996889 -3.15819e-07 0)
(0.000998465 -1.26327e-06 0)
(0.00100028 -9.55843e-08 0)
(0.00100101 6.32184e-07 0)
(0.00100108 6.49317e-07 0)
(0.00100054 2.42903e-07 0)
(0.000999804 -1.97996e-08 0)
(0.00100017 -6.68327e-08 0)
(0.000999215 -1.51586e-07 0)
(0.000999904 -2.48633e-07 0)
(0.000997523 -5.92262e-07 0)
(0.000998846 -1.13192e-06 0)
(0.000993349 -2.8846e-06 0)
(0.000997533 -5.59389e-06 0)
(0.00099167 -1.15446e-05 0)
(0.000915836 -1.27067e-05 0)
(0.000951468 2.70202e-07 0)
(0.00101023 1.46407e-05 0)
(0.000990954 1.30839e-05 0)
(0.000983976 5.14055e-06 0)
(0.000989589 1.94607e-07 0)
(0.000996285 -7.81441e-07 0)
(0.000999241 -1.12616e-07 0)
(0.000999417 2.4676e-07 0)
(0.000998651 1.72219e-07 0)
(0.000998508 -1.85934e-07 0)
(0.000999804 1.36059e-08 0)
(0.00100017 4.68207e-08 0)
(0.000999215 1.1801e-07 0)
(0.000999903 2.00084e-07 0)
(0.00099752 5.29156e-07 0)
(0.00099884 1.05113e-06 0)
(0.000993341 2.78622e-06 0)
(0.00099752 5.47287e-06 0)
(0.000991653 1.13958e-05 0)
(0.000915811 1.25467e-05 0)
(0.000951437 -4.70102e-07 0)
(0.0010102 -1.49076e-05 0)
(0.000990946 -1.34087e-05 0)
(0.000983969 -5.53488e-06 0)
(0.00098957 -6.47481e-07 0)
(0.000996247 2.4852e-07 0)
(0.0009992 -4.72389e-07 0)
(0.000999371 -1.00241e-06 0)
(0.000998637 -9.89653e-07 0)
(0.000998458 -8.89729e-07 0)
(0.000999995 4.36112e-08 0)
(0.000999915 1.85746e-07 0)
(0.000999755 3.5474e-07 0)
(0.000999531 6.87473e-07 0)
(0.000999287 1.27611e-06 0)
(0.000999212 2.40144e-06 0)
(0.000999704 4.5897e-06 0)
(0.00100139 7.94338e-06 0)
(0.0010049 1.3133e-05 0)
(0.00100958 1.47167e-05 0)
(0.0010119 -4.06728e-06 0)
(0.0010089 -1.9006e-05 0)
(0.00100214 -1.60936e-05 0)
(0.00099748 -6.12058e-06 0)
(0.000996818 -8.31654e-08 0)
(0.000998405 7.75828e-07 0)
(0.00100017 -4.26843e-07 0)
(0.00100085 -1.30386e-06 0)
(0.00100088 -1.37928e-06 0)
(0.00100037 -1.25172e-06 0)
(0.000999996 8.76099e-08 0)
(0.000999968 2.72562e-07 0)
(0.000999905 5.46649e-07 0)
(0.000999872 9.10297e-07 0)
(0.000999872 1.51299e-06 0)
(0.00100008 2.26173e-06 0)
(0.00100048 3.29519e-06 0)
(0.00100149 3.99295e-06 0)
(0.00100303 4.21295e-06 0)
(0.00100594 2.36462e-06 0)
(0.00100902 -9.81977e-07 0)
(0.00100907 -4.53814e-06 0)
(0.00100543 -5.01627e-06 0)
(0.00100067 -3.12675e-06 0)
(0.000998061 -1.13017e-06 0)
(0.000998138 -2.51225e-07 0)
(0.000999626 -3.22049e-07 0)
(0.00100064 -7.39252e-07 0)
(0.00100106 -9.66488e-07 0)
(0.00100055 -1.07489e-06 0)
(0.001 9.84234e-08 0)
(0.001 3.18478e-07 0)
(0.00100002 5.73425e-07 0)
(0.00100007 9.17333e-07 0)
(0.0010002 1.33277e-06 0)
(0.00100047 1.87167e-06 0)
(0.00100097 2.40134e-06 0)
(0.00100186 2.97763e-06 0)
(0.00100318 3.11229e-06 0)
(0.00100469 2.73353e-06 0)
(0.00100568 5.10089e-07 0)
(0.00100528 -2.74928e-06 0)
(0.00100339 -5.07257e-06 0)
(0.00100097 -5.06763e-06 0)
(0.000999413 -3.44882e-06 0)
(0.000999125 -1.79475e-06 0)
(0.000999748 -1.02042e-06 0)
(0.00100026 -1.05635e-06 0)
(0.00100062 -1.30612e-06 0)
(0.00100024 -1.51667e-06 0)
(0.001 9.99987e-08 0)
(0.00100003 3.05476e-07 0)
(0.00100008 5.36878e-07 0)
(0.00100019 8.05167e-07 0)
(0.00100037 1.12062e-06 0)
(0.00100066 1.46064e-06 0)
(0.00100112 1.7817e-06 0)
(0.00100174 1.95384e-06 0)
(0.00100248 1.78298e-06 0)
(0.00100318 1.03439e-06 0)
(0.00100366 -2.76683e-07 0)
(0.00100364 -1.77618e-06 0)
(0.00100293 -2.70523e-06 0)
(0.00100171 -2.62886e-06 0)
(0.00100058 -1.77885e-06 0)
(0.000999908 -8.96551e-07 0)
(0.000999862 -4.2708e-07 0)
(0.000999985 -4.45353e-07 0)
(0.00100022 -6.15596e-07 0)
(0.00100001 -8.49906e-07 0)
(0.001 8.81131e-08 0)
(0.00100004 2.66998e-07 0)
(0.00100011 4.55224e-07 0)
(0.00100024 6.60594e-07 0)
(0.00100043 8.76858e-07 0)
(0.0010007 1.08597e-06 0)
(0.00100106 1.23376e-06 0)
(0.0010015 1.25598e-06 0)
(0.001002 1.07391e-06 0)
(0.00100249 6.55844e-07 0)
(0.0010028 1.83542e-08 0)
(0.00100275 -7.67665e-07 0)
(0.00100228 -1.44626e-06 0)
(0.00100147 -1.77211e-06 0)
(0.00100063 -1.6682e-06 0)
(0.00100001 -1.34954e-06 0)
(0.000999798 -1.02939e-06 0)
(0.000999769 -9.34409e-07 0)
(0.000999889 -9.44575e-07 0)
(0.000999771 -1.10979e-06 0)
(0.001 7.06937e-08 0)
(0.00100004 2.12411e-07 0)
(0.00100012 3.55326e-07 0)
(0.00100025 5.00507e-07 0)
(0.00100043 6.43197e-07 0)
(0.00100067 7.66982e-07 0)
(0.00100096 8.40767e-07 0)
(0.00100129 8.28576e-07 0)
(0.00100163 6.91739e-07 0)
(0.00100191 4.05282e-07 0)
(0.00100206 -4.68796e-08 0)
(0.001002 -5.73851e-07 0)
(0.00100171 -1.03231e-06 0)
(0.0010012 -1.27923e-06 0)
(0.00100065 -1.22957e-06 0)
(0.00100017 -9.95442e-07 0)
(0.000999918 -7.02013e-07 0)
(0.000999744 -5.54465e-07 0)
(0.000999756 -4.86238e-07 0)
(0.000999565 -5.99238e-07 0)
(0.001 5.09222e-08 0)
(0.00100004 1.52092e-07 0)
(0.00100013 2.48528e-07 0)
(0.00100025 3.38436e-07 0)
(0.00100041 4.20519e-07 0)
(0.00100062 4.83704e-07 0)
(0.00100086 5.10499e-07 0)
(0.00100112 4.74992e-07 0)
(0.00100137 3.61593e-07 0)
(0.00100157 1.55092e-07 0)
(0.00100167 -1.16455e-07 0)
(0.00100161 -4.1894e-07 0)
(0.0010014 -6.78392e-07 0)
(0.00100104 -8.40021e-07 0)
(0.00100064 -8.49416e-07 0)
(0.00100023 -7.71058e-07 0)
(0.000999954 -6.37804e-07 0)
(0.000999693 -5.94698e-07 0)
(0.000999632 -5.59942e-07 0)
(0.000999391 -6.84924e-07 0)
(0.001 3.44013e-08 0)
(0.00100004 1.06073e-07 0)
(0.00100011 1.76286e-07 0)
(0.00100023 2.4211e-07 0)
(0.00100038 3.01361e-07 0)
(0.00100056 3.4935e-07 0)
(0.00100077 3.75805e-07 0)
(0.00100098 3.6935e-07 0)
(0.00100117 3.19665e-07 0)
(0.0010013 2.23449e-07 0)
(0.00100137 8.59326e-08 0)
(0.00100132 -6.93719e-08 0)
(0.00100115 -2.03926e-07 0)
(0.00100087 -2.95176e-07 0)
(0.00100054 -3.11026e-07 0)
(0.00100017 -2.81447e-07 0)
(0.000999904 -2.02431e-07 0)
(0.000999617 -1.67358e-07 0)
(0.000999521 -1.17349e-07 0)
(0.000999252 -1.98284e-07 0)
(0.001 -4.30707e-09 0)
(0.00100004 -9.51344e-09 0)
(0.00100012 -1.21495e-08 0)
(0.00100024 -1.4365e-08 0)
(0.00100039 -1.7349e-08 0)
(0.00100056 -2.32182e-08 0)
(0.00100075 -3.38744e-08 0)
(0.00100094 -5.34555e-08 0)
(0.00100112 -8.1897e-08 0)
(0.00100124 -1.22445e-07 0)
(0.00100128 -1.70102e-07 0)
(0.00100122 -2.30872e-07 0)
(0.00100107 -2.89621e-07 0)
(0.00100081 -3.40386e-07 0)
(0.00100054 -3.59032e-07 0)
(0.00100018 -3.67707e-07 0)
(0.000999948 -3.42276e-07 0)
(0.000999612 -3.52451e-07 0)
(0.000999525 -3.27525e-07 0)
(0.000999132 -4.10546e-07 0)
)
;

boundaryField
{
    sides
    {
        type            slip;
    }
    inlet
    {
        type            fixedValue;
        value           uniform (0.001 0 0);
    }
    outlet
    {
        type            zeroGradient;
    }
    frontAndBack
    {
        type            empty;
    }
}


// ************************************************************************* //
