/*--------------------------------*- C++ -*----------------------------------*\
  =========                 |
  \\      /  F ield         | OpenFOAM: The Open Source CFD Toolbox
   \\    /   O peration     | Website:  https://openfoam.org
    \\  /    A nd           | Version:  9
     \\/     M anipulation  |
\*---------------------------------------------------------------------------*/
FoamFile
{
    format      ascii;
    class       surfaceScalarField;
    location    "63";
    object      phi_0;
}
// * * * * * * * * * * * * * * * * * * * * * * * * * * * * * * * * * * * * * //

dimensions      [0 4 -1 0 0 0 0];

internalField   nonuniform List<scalar> 
760
(
5.0001e-06
-9.35454e-11
5.00041e-06
-3.10489e-10
5.00092e-06
-5.15558e-10
5.00162e-06
-7.04392e-10
5.00249e-06
-8.74987e-10
5.0035e-06
-1.00584e-09
5.00456e-06
-1.06412e-09
5.00558e-06
-1.01552e-09
5.00642e-06
-8.30942e-10
5.00694e-06
-5.19839e-10
5.00706e-06
-1.2242e-10
5.00667e-06
3.93468e-10
5.00582e-06
8.48661e-10
5.00471e-06
1.09892e-09
5.00353e-06
1.17205e-09
5.00258e-06
9.55012e-10
5.00187e-06
7.14946e-10
5.00163e-06
2.38249e-10
5.00152e-06
9.96317e-11
-3.9328e-10
5.00012e-06
-2.15784e-10
5.00045e-06
-6.41472e-10
5.00099e-06
-1.05063e-09
5.00172e-06
-1.44331e-09
5.00266e-06
-1.80584e-09
5.00375e-06
-2.09795e-09
5.00494e-06
-2.25527e-09
5.00612e-06
-2.19744e-09
5.00715e-06
-1.85189e-09
5.00779e-06
-1.1649e-09
5.00776e-06
-9.24642e-11
5.00727e-06
8.79107e-10
5.00629e-06
1.83183e-09
5.00497e-06
2.40672e-09
5.00369e-06
2.44399e-09
5.00279e-06
1.86173e-09
5.00226e-06
1.2448e-09
5.00193e-06
5.7035e-10
5.00167e-06
3.57815e-10
-1.49314e-10
5.00011e-06
-3.25913e-10
5.00043e-06
-9.62984e-10
5.00096e-06
-1.58432e-09
5.00173e-06
-2.206e-09
5.00273e-06
-2.8031e-09
5.00395e-06
-3.32174e-09
5.00533e-06
-3.63728e-09
5.00674e-06
-3.60402e-09
5.00794e-06
-3.06101e-09
5.00874e-06
-1.95816e-09
5.00895e-06
-3.09814e-10
5.00827e-06
1.55793e-09
5.00689e-06
3.20875e-09
5.00517e-06
4.12277e-09
5.00352e-06
4.09229e-09
5.00232e-06
3.06242e-09
5.00168e-06
1.88867e-09
5.00149e-06
7.53087e-10
5.00146e-06
3.81883e-10
-2.23807e-10
5.0001e-06
-4.27845e-10
5.00041e-06
-1.27434e-09
5.00095e-06
-2.12066e-09
5.00175e-06
-3.00654e-09
5.00286e-06
-3.90871e-09
5.00429e-06
-4.7565e-09
5.00603e-06
-5.37058e-09
5.00796e-06
-5.54342e-09
5.00985e-06
-4.95697e-09
5.01109e-06
-3.19012e-09
5.01122e-06
-4.39158e-10
5.01001e-06
2.75681e-09
5.00767e-06
5.5542e-09
5.00516e-06
6.62725e-09
5.00349e-06
5.76401e-09
5.00272e-06
3.83654e-09
5.00249e-06
2.10933e-09
5.00232e-06
9.2158e-10
5.00201e-06
6.95595e-10
3.3812e-10
5.00008e-06
-5.11515e-10
5.00034e-06
-1.53454e-09
5.00083e-06
-2.61316e-09
5.00164e-06
-3.80696e-09
5.00286e-06
-5.12993e-09
5.00458e-06
-6.47584e-09
5.00681e-06
-7.59587e-09
5.00943e-06
-8.16969e-09
5.01241e-06
-7.92296e-09
5.01479e-06
-5.59969e-09
5.01485e-06
-4.64983e-10
5.01287e-06
4.72484e-09
5.00869e-06
9.72679e-09
5.00462e-06
1.07097e-08
5.00226e-06
8.12311e-09
5.00176e-06
4.33349e-09
5.00206e-06
1.80546e-09
5.00227e-06
7.08172e-10
5.00203e-06
9.38577e-10
6.27203e-10
5.00004e-06
-5.53386e-10
5.0002e-06
-1.69029e-09
5.00054e-06
-2.95284e-09
5.00121e-06
-4.4788e-09
5.00241e-06
-6.33052e-09
5.00453e-06
-8.58724e-09
5.00761e-06
-1.06752e-08
5.01168e-06
-1.22363e-08
5.01554e-06
-1.17843e-08
5.01903e-06
-9.08538e-09
5.02022e-06
-1.66481e-09
5.01605e-06
8.94475e-09
5.00953e-06
1.62343e-08
5.00423e-06
1.59972e-08
5.00219e-06
1.01655e-08
5.00252e-06
4.00895e-09
5.00328e-06
1.03037e-09
5.00341e-06
5.84837e-10
5.00281e-06
1.53642e-09
1.42301e-09
4.99998e-06
-5.31825e-10
4.99994e-06
-1.64628e-09
5.00003e-06
-3.04469e-09
5.00036e-06
-4.81047e-09
5.00123e-06
-7.19095e-09
5.00293e-06
-1.02866e-08
5.00681e-06
-1.45512e-08
5.01393e-06
-1.9352e-08
5.02374e-06
-2.16193e-08
5.03098e-06
-1.62169e-08
5.02873e-06
5.13226e-10
5.01674e-06
2.09398e-08
5.00421e-06
2.8812e-08
4.99876e-06
2.1453e-08
5.0006e-06
8.31879e-09
5.00287e-06
1.73488e-09
5.00373e-06
1.59915e-10
5.00367e-06
6.40292e-10
5.00306e-06
2.15218e-09
1.68106e-09
4.99987e-06
-3.94694e-10
4.99955e-06
-1.32883e-09
4.99912e-06
-2.6169e-09
4.99886e-06
-4.5418e-09
4.99934e-06
-7.66692e-09
5.00037e-06
-1.13113e-08
5.00366e-06
-1.78378e-08
5.00983e-06
-2.55226e-08
5.02489e-06
-3.665e-08
5.05612e-06
-4.74776e-08
5.0501e-06
5.62089e-09
5.0232e-06
4.77784e-08
4.9982e-06
5.38183e-08
4.99352e-06
2.61466e-08
4.99949e-06
2.34991e-09
5.00409e-06
-2.87453e-09
5.00492e-06
-6.72895e-10
5.00374e-06
1.82229e-09
5.00352e-06
2.36936e-09
9.67732e-10
4.99977e-06
-1.59717e-10
4.99915e-06
-7.08898e-10
4.99792e-06
-1.38224e-09
4.99611e-06
-2.73183e-09
4.99403e-06
-5.57629e-09
4.99375e-06
-1.10319e-08
4.99946e-06
-2.35399e-08
5.01715e-06
-4.32084e-08
5.05572e-06
-7.52493e-08
5.06686e-06
-5.85786e-08
5.0497e-06
2.36872e-08
4.99652e-06
1.01035e-07
4.98932e-06
6.10175e-08
4.99592e-06
1.95403e-08
5.00021e-06
-1.93389e-09
5.00295e-06
-5.61667e-09
5.00254e-06
-2.43641e-10
5.00186e-06
2.5055e-09
5.00256e-06
1.66679e-09
6.99236e-11
4.99986e-06
-1.50574e-11
4.9992e-06
-5.01667e-11
4.99791e-06
-8.57149e-11
4.99531e-06
-1.26905e-10
4.98991e-06
-1.68667e-10
4.9791e-06
-2.1983e-10
4.95583e-06
-2.73432e-10
4.91296e-06
-3.37937e-10
4.83817e-06
-4.19112e-10
4.77997e-06
-4.69084e-10
4.80432e-06
-5.91334e-10
4.90607e-06
-7.0674e-10
4.96779e-06
-7.50261e-10
4.98824e-06
-9.00559e-10
4.98747e-06
-1.1594e-09
4.98328e-06
-1.42654e-09
4.98458e-06
-1.56053e-09
4.98892e-06
-1.83236e-09
4.99249e-06
-1.90369e-09
-2.59009e-09
4.99986e-06
1.29341e-10
4.9992e-06
6.08319e-10
4.99791e-06
1.21611e-09
4.9953e-06
2.48358e-09
4.98989e-06
5.24918e-09
4.97907e-06
1.0601e-08
4.95578e-06
2.30138e-08
4.9129e-06
4.25406e-08
4.83805e-06
7.44578e-08
4.77976e-06
5.78403e-08
4.80428e-06
-2.50484e-08
4.90598e-06
-1.02481e-07
4.96778e-06
-6.2508e-08
4.98808e-06
-2.11914e-08
4.98738e-06
-4.47797e-10
4.98295e-06
2.99877e-09
4.98445e-06
-3.05152e-09
4.98891e-06
-6.28367e-09
4.99236e-06
-5.36141e-09
-4.98945e-09
4.99977e-06
3.63287e-10
4.99915e-06
1.23353e-09
4.99792e-06
2.45131e-09
4.99611e-06
4.29717e-09
4.99403e-06
7.33109e-09
4.99374e-06
1.08868e-08
4.99944e-06
1.73209e-08
5.01708e-06
2.49036e-08
5.05564e-06
3.59225e-08
5.06713e-06
4.63565e-08
5.04948e-06
-7.98513e-09
4.99612e-06
-4.90995e-08
4.98886e-06
-5.52527e-08
4.99571e-06
-2.8032e-08
5.00012e-06
-4.85824e-09
5.00233e-06
7.91341e-10
5.00168e-06
-2.3889e-09
5.00092e-06
-5.52674e-09
5.0017e-06
-6.13703e-09
-5.95717e-09
4.99987e-06
5.00624e-10
4.99955e-06
1.55482e-09
4.99911e-06
2.88885e-09
4.99883e-06
4.57874e-09
4.99928e-06
6.88452e-09
5.00028e-06
9.89569e-09
5.00349e-06
1.41149e-08
5.00962e-06
1.87802e-08
5.0246e-06
2.09198e-08
5.05558e-06
1.54263e-08
5.04977e-06
-1.66885e-09
5.02285e-06
-2.21561e-08
4.99789e-06
-3.02827e-08
4.99317e-06
-2.3321e-08
4.99865e-06
-1.03413e-08
5.00347e-06
-4.02203e-09
5.00375e-06
-2.66964e-09
5.00237e-06
-4.15103e-09
5.00218e-06
-5.94249e-09
-6.54192e-09
4.99998e-06
5.25153e-10
4.99993e-06
1.60548e-09
5.00001e-06
2.81141e-09
5.00031e-06
4.27416e-09
5.00114e-06
6.05989e-09
5.0028e-06
8.23802e-09
5.00669e-06
1.02336e-08
5.0138e-06
1.16778e-08
5.02359e-06
1.11286e-08
5.0307e-06
8.2791e-09
5.02841e-06
6.46971e-10
5.01629e-06
-1.00008e-08
5.00352e-06
-1.75337e-08
4.99779e-06
-1.75948e-08
4.99943e-06
-1.19843e-08
5.00162e-06
-6.22288e-09
5.00242e-06
-3.46562e-09
5.00215e-06
-3.87899e-09
5.00121e-06
-5.00671e-09
-5.98494e-09
5.00004e-06
4.88375e-10
5.00018e-06
1.46042e-09
5.00051e-06
2.48762e-09
5.00115e-06
3.62665e-09
5.00232e-06
4.89078e-09
5.0044e-06
6.16741e-09
5.00743e-06
7.21619e-09
5.01141e-06
7.70303e-09
5.01515e-06
7.38714e-09
5.01854e-06
4.87367e-09
5.01958e-06
-3.97975e-10
5.01525e-06
-5.68667e-09
5.00856e-06
-1.08501e-08
5.00313e-06
-1.21679e-08
5.00089e-06
-9.75528e-09
5.00102e-06
-6.35716e-09
5.00157e-06
-4.01186e-09
5.00133e-06
-3.642e-09
5.00037e-06
-4.04533e-09
-4.98569e-09
5.00007e-06
4.08285e-10
5.00032e-06
1.21385e-09
5.0008e-06
2.01623e-09
5.00157e-06
2.85355e-09
5.00275e-06
3.70978e-09
5.00442e-06
4.50775e-09
5.00657e-06
5.06978e-09
5.00911e-06
5.16657e-09
5.01205e-06
4.45262e-09
5.01442e-06
2.50064e-09
5.01416e-06
-1.39368e-10
5.0121e-06
-3.62885e-09
5.00777e-06
-6.52327e-09
5.0035e-06
-7.90387e-09
5.00094e-06
-7.19434e-09
5.00015e-06
-5.56002e-09
5.00012e-06
-3.98647e-09
4.99989e-06
-3.41207e-09
4.99919e-06
-3.33935e-09
-4.17936e-09
5.00009e-06
3.0469e-10
5.0004e-06
9.14856e-10
5.00091e-06
1.50815e-09
5.00168e-06
2.08859e-09
5.00274e-06
2.64687e-09
5.00413e-06
3.11994e-09
5.0058e-06
3.39655e-09
5.00764e-06
3.3225e-09
5.00934e-06
2.75573e-09
5.01028e-06
1.56699e-09
5.01045e-06
-3.04906e-10
5.00904e-06
-2.22695e-09
5.00652e-06
-3.99536e-09
5.00369e-06
-5.07131e-09
5.00156e-06
-5.05893e-09
5.00036e-06
-4.35776e-09
4.99972e-06
-3.34319e-09
4.99918e-06
-2.87523e-09
4.99847e-06
-2.61842e-09
-3.21891e-09
5.0001e-06
1.96971e-10
5.00041e-06
6.03166e-10
5.00093e-06
9.94942e-10
5.00167e-06
1.35935e-09
5.00262e-06
1.69043e-09
5.00378e-06
1.95145e-09
5.0051e-06
2.07255e-09
5.00646e-06
1.96165e-09
5.00766e-06
1.5569e-09
5.0084e-06
8.26883e-10
5.00823e-06
-1.27748e-10
5.00735e-06
-1.34842e-09
5.00572e-06
-2.36113e-09
5.0037e-06
-3.05238e-09
5.00181e-06
-3.16262e-09
5.00035e-06
-2.89578e-09
4.99933e-06
-2.32136e-09
4.99854e-06
-2.0809e-09
4.99775e-06
-1.82179e-09
-2.27764e-09
5.00009e-06
1.11539e-10
5.00038e-06
3.08877e-10
5.00087e-06
5.00948e-10
5.00156e-06
6.7721e-10
5.00242e-06
8.30463e-10
5.00342e-06
9.46363e-10
5.00449e-06
9.95065e-10
5.00552e-06
9.34937e-10
5.00634e-06
7.34736e-10
5.00681e-06
3.59183e-10
5.00682e-06
-1.40954e-10
5.00609e-06
-6.21883e-10
5.00481e-06
-1.08116e-09
5.00317e-06
-1.4182e-09
5.0015e-06
-1.49317e-09
5.00004e-06
-1.43333e-09
4.9989e-06
-1.1829e-09
4.99794e-06
-1.12627e-09
4.99708e-06
-9.68448e-10
-1.42353e-09
5.00012e-06
5.00043e-06
5.00092e-06
5.00159e-06
5.00242e-06
5.00337e-06
5.00437e-06
5.00531e-06
5.00605e-06
5.00641e-06
5.00626e-06
5.00564e-06
5.00455e-06
5.00312e-06
5.00162e-06
5.00018e-06
4.999e-06
4.99786e-06
4.99688e-06
)
;

boundaryField
{
    sides
    {
        type            calculated;
        value           uniform 0;
    }
    inlet
    {
        type            calculated;
        value           nonuniform List<scalar> 
20
(
-5e-06
-5e-06
-5e-06
-5e-06
-5e-06
-5e-06
-5e-06
-5e-06
-5e-06
-5e-06
-5e-06
-5e-06
-5e-06
-5e-06
-5e-06
-5e-06
-5e-06
-5e-06
-5e-06
-5e-06
)
;
    }
    outlet
    {
        type            calculated;
        value           nonuniform List<scalar> 
20
(
5.00191e-06
5.00142e-06
5.00154e-06
5.00145e-06
5.00175e-06
5.00202e-06
5.0028e-06
5.00423e-06
5.00345e-06
4.99515e-06
4.99476e-06
5.00267e-06
5.00276e-06
5.00065e-06
4.99937e-06
4.99838e-06
4.99751e-06
4.99681e-06
4.99622e-06
4.99545e-06
)
;
    }
    frontAndBack
    {
        type            empty;
        value           nonuniform List<scalar> 0();
    }
}


// ************************************************************************* //
