/*--------------------------------*- C++ -*----------------------------------*\
  =========                 |
  \\      /  F ield         | OpenFOAM: The Open Source CFD Toolbox
   \\    /   O peration     | Website:  https://openfoam.org
    \\  /    A nd           | Version:  9
     \\/     M anipulation  |
\*---------------------------------------------------------------------------*/
FoamFile
{
    format      ascii;
    class       volVectorField;
    location    "14";
    object      ddtCorrDdt0(hU);
}
// * * * * * * * * * * * * * * * * * * * * * * * * * * * * * * * * * * * * * //

dimensions      [0 2 -2 0 0 0 0];

internalField   nonuniform List<vector> 
400
(
(-2.61172e-07 -9.84972e-08 0)
(-1.63296e-07 2.5672e-08 0)
(-2.82502e-08 -3.03087e-09 0)
(4.5261e-07 -5.81162e-08 0)
(8.26113e-07 2.01777e-08 0)
(6.00131e-07 1.87518e-07 0)
(1.87437e-07 1.96087e-07 0)
(-8.09088e-09 5.64013e-08 0)
(-2.33395e-08 2.00035e-08 0)
(1.64805e-07 9.11832e-09 0)
(2.68565e-07 1.15121e-07 0)
(2.05012e-07 1.31476e-07 0)
(2.05431e-07 -3.78976e-09 0)
(2.56049e-07 -1.86109e-08 0)
(5.87263e-07 1.96557e-08 0)
(8.91982e-07 5.39991e-08 0)
(8.15434e-07 1.68008e-08 0)
(1.70437e-07 -5.43945e-08 0)
(-8.82263e-07 -1.03044e-07 0)
(-1.61187e-06 -6.35318e-08 0)
(-1.69902e-07 -2.04597e-07 0)
(-8.46062e-08 9.24743e-08 0)
(1.65415e-08 1.73269e-08 0)
(4.70651e-07 -1.40481e-07 0)
(8.46015e-07 9.88162e-08 0)
(6.01604e-07 5.32381e-07 0)
(1.44635e-07 5.59947e-07 0)
(-8.80496e-08 2.07081e-07 0)
(-1.41693e-07 -1.29185e-07 0)
(-6.99087e-08 3.65438e-08 0)
(1.13789e-07 3.61153e-07 0)
(1.50882e-07 3.88017e-07 0)
(1.38027e-07 1.29996e-07 0)
(3.50242e-07 -6.25447e-08 0)
(5.66996e-07 3.09208e-08 0)
(7.67576e-07 1.53189e-07 0)
(7.51959e-07 1.12069e-07 0)
(1.71548e-07 -6.88291e-08 0)
(-7.26902e-07 -4.01429e-07 0)
(-1.48992e-06 -2.96688e-07 0)
(-9.76283e-08 -2.02833e-07 0)
(-2.21623e-08 2.0827e-07 0)
(7.98337e-08 6.67239e-08 0)
(5.20441e-07 -2.15402e-07 0)
(8.81253e-07 1.28714e-07 0)
(6.23875e-07 7.07825e-07 0)
(1.36313e-07 7.4241e-07 0)
(-3.01266e-07 1.42762e-07 0)
(-3.97399e-07 -3.23967e-07 0)
(-2.56862e-07 2.63634e-08 0)
(-6.80899e-08 5.64125e-07 0)
(2.4649e-08 5.97524e-07 0)
(1.33161e-07 2.24242e-07 0)
(2.92105e-07 -1.44781e-07 0)
(5.15614e-07 -3.66789e-08 0)
(6.52517e-07 1.77643e-07 0)
(5.33455e-07 8.06719e-08 0)
(7.52347e-08 -2.17403e-07 0)
(-7.63897e-07 -5.79977e-07 0)
(-1.17706e-06 -4.25907e-07 0)
(-1.54782e-08 -1.30834e-07 0)
(5.96138e-08 3.77777e-07 0)
(1.42741e-07 1.55671e-07 0)
(5.70922e-07 -2.57159e-07 0)
(8.95359e-07 2.4855e-08 0)
(6.29455e-07 6.00324e-07 0)
(7.24052e-08 5.73002e-07 0)
(-4.16086e-07 -1.80743e-07 0)
(-5.95906e-07 -5.27804e-07 0)
(-5.69773e-07 -1.14324e-07 0)
(-3.26022e-07 5.53265e-07 0)
(-6.21521e-08 6.46569e-07 0)
(8.70694e-08 1.65811e-07 0)
(2.4472e-07 -2.69757e-07 0)
(3.61362e-07 -1.38556e-07 0)
(3.23129e-07 1.7922e-07 0)
(3.58277e-07 3.05364e-08 0)
(1.17423e-07 -3.3954e-07 0)
(-3.64407e-07 -8.88634e-07 0)
(-8.77862e-07 -5.76501e-07 0)
(5.67577e-09 1.33277e-08 0)
(1.33258e-07 5.6715e-07 0)
(1.92322e-07 2.61704e-07 0)
(5.34565e-07 -2.59496e-07 0)
(7.80568e-07 -1.19341e-07 0)
(5.73099e-07 3.35312e-07 0)
(6.03996e-08 1.55048e-07 0)
(-4.70974e-07 -6.03383e-07 0)
(-8.66616e-07 -9.01789e-07 0)
(-8.65396e-07 -3.40718e-07 0)
(-5.60157e-07 4.82296e-07 0)
(-5.43171e-08 5.78378e-07 0)
(1.07884e-07 5.73329e-08 0)
(1.21748e-07 -3.5592e-07 0)
(1.83187e-07 -1.95986e-07 0)
(1.28579e-07 9.04374e-08 0)
(6.15556e-08 -1.11841e-08 0)
(-2.16004e-08 -4.24601e-07 0)
(-1.69901e-07 -1.04215e-06 0)
(-2.43777e-07 -6.97777e-07 0)
(-4.48763e-09 1.61005e-07 0)
(1.54505e-07 7.17833e-07 0)
(2.13955e-07 3.5055e-07 0)
(4.38181e-07 -2.69608e-07 0)
(5.74546e-07 -2.69582e-07 0)
(4.10099e-07 2.95656e-08 0)
(2.8214e-08 -2.7204e-07 0)
(-4.29732e-07 -1.03971e-06 0)
(-9.16294e-07 -1.29341e-06 0)
(-9.92377e-07 -6.06906e-07 0)
(-6.71537e-07 2.90003e-07 0)
(-1.98166e-07 4.12448e-07 0)
(1.04728e-07 -2.04376e-07 0)
(4.99433e-08 -5.3919e-07 0)
(-1.25287e-07 -3.20498e-07 0)
(-2.51639e-07 -2.21002e-09 0)
(-2.20297e-07 -1.09939e-08 0)
(1.59904e-07 -4.70772e-07 0)
(2.53597e-07 -9.90737e-07 0)
(2.07881e-07 -6.91653e-07 0)
(-3.43169e-08 2.72962e-07 0)
(1.56604e-07 7.62977e-07 0)
(1.79396e-07 3.86275e-07 0)
(2.44623e-07 -2.58705e-07 0)
(2.83725e-07 -3.61477e-07 0)
(2.19169e-07 -2.23467e-07 0)
(1.3861e-08 -5.86503e-07 0)
(-4.0725e-07 -1.2565e-06 0)
(-8.95002e-07 -1.39604e-06 0)
(-1.07911e-06 -6.87886e-07 0)
(-6.78109e-07 8.61681e-08 0)
(-2.57955e-07 3.20769e-07 0)
(4.25362e-08 -1.59592e-07 0)
(7.53779e-08 -5.41526e-07 0)
(-2.14874e-07 -4.08129e-07 0)
(-4.59673e-07 -5.33394e-08 0)
(-3.57519e-07 -9.45149e-08 0)
(5.34074e-08 -4.58427e-07 0)
(4.94519e-07 -1.03967e-06 0)
(7.66154e-07 -6.74759e-07 0)
(-9.69677e-08 3.03346e-07 0)
(1.14442e-07 6.83228e-07 0)
(1.10865e-07 3.54611e-07 0)
(4.72625e-08 -2.02383e-07 0)
(-6.04832e-09 -3.57767e-07 0)
(-1.16929e-08 -3.42906e-07 0)
(2.00281e-09 -7.24947e-07 0)
(-2.35218e-07 -1.33996e-06 0)
(-7.64626e-07 -1.42877e-06 0)
(-1.06807e-06 -7.63602e-07 0)
(-1.03651e-06 -3.26827e-08 0)
(-1.43208e-07 1.01182e-07 0)
(2.10772e-08 -1.1918e-07 0)
(-1.62114e-07 -3.34755e-07 0)
(-5.04708e-07 -2.34369e-07 0)
(-7.65407e-07 -2.52481e-08 0)
(-6.21669e-07 -1.06148e-07 0)
(1.01018e-07 -3.91076e-07 0)
(8.56129e-07 -8.22059e-07 0)
(1.24647e-06 -5.26836e-07 0)
(-1.595e-07 2.38324e-07 0)
(8.63517e-08 4.98128e-07 0)
(5.76429e-08 2.64632e-07 0)
(-1.52659e-07 -1.05911e-07 0)
(-2.81363e-07 -2.54513e-07 0)
(-2.31527e-07 -3.32553e-07 0)
(-1.13873e-07 -6.23844e-07 0)
(-2.3139e-07 -9.96904e-07 0)
(-6.10913e-07 -1.06322e-06 0)
(-9.3489e-07 -6.55905e-07 0)
(-4.89855e-07 -7.498e-08 0)
(-2.64801e-07 1.60424e-08 0)
(1.52422e-07 -1.717e-07 0)
(-1.0645e-07 -3.38824e-07 0)
(-6.66861e-07 -1.00454e-07 0)
(-9.88661e-07 1.33189e-07 0)
(-7.57363e-07 -1.75512e-08 0)
(1.23851e-07 -3.67955e-07 0)
(1.08077e-06 -5.58666e-07 0)
(1.52605e-06 -3.19161e-07 0)
(-1.88307e-07 1.07752e-07 0)
(6.54301e-08 2.19901e-07 0)
(2.15157e-08 1.25835e-07 0)
(-2.69205e-07 5.72172e-09 0)
(-4.52578e-07 -4.34314e-08 0)
(-3.41221e-07 -1.19603e-07 0)
(-9.42529e-08 -2.62093e-07 0)
(-1.50379e-07 -3.39441e-07 0)
(-5.12152e-07 -3.0476e-07 0)
(-8.01371e-07 -2.25261e-07 0)
(-9.39186e-07 5.17169e-09 0)
(-2.07776e-07 1.72066e-07 0)
(1.36259e-07 1.3992e-08 0)
(-2.07151e-07 -1.46068e-07 0)
(-8.77673e-07 4.92961e-08 0)
(-1.07267e-06 1.81537e-07 0)
(-6.08483e-07 -8.12917e-08 0)
(6.89177e-08 -2.9322e-07 0)
(9.69857e-07 -2.42856e-07 0)
(1.7139e-06 -1.30184e-07 0)
(-1.75877e-07 -6.36241e-08 0)
(7.16988e-08 -1.19548e-07 0)
(1.489e-08 -1.54507e-08 0)
(-2.56524e-07 1.34357e-07 0)
(-4.40985e-07 1.98668e-07 0)
(-3.46841e-07 2.11405e-07 0)
(-1.05664e-07 2.5627e-07 0)
(-1.62386e-07 2.4973e-07 0)
(-5.02185e-07 2.11018e-07 0)
(-8.52211e-07 1.77416e-07 0)
(-7.92246e-07 -2.52616e-08 0)
(-2.3747e-07 -1.15812e-08 0)
(8.20237e-08 2.04452e-07 0)
(-1.97086e-07 4.22012e-07 0)
(-9.00004e-07 2.46921e-07 0)
(-1.0865e-06 2.05826e-08 0)
(-6.43467e-07 1.18408e-07 0)
(3.43013e-08 2.32664e-07 0)
(9.37701e-07 1.72894e-08 0)
(1.70449e-06 -7.89297e-08 0)
(-1.42042e-07 -1.9673e-07 0)
(1.28934e-07 -4.38049e-07 0)
(7.26044e-08 -1.81438e-07 0)
(-1.40599e-07 2.2848e-07 0)
(-2.6967e-07 3.8182e-07 0)
(-2.25145e-07 4.06873e-07 0)
(-1.13055e-07 6.33061e-07 0)
(-2.2382e-07 9.13904e-07 0)
(-5.94079e-07 9.35126e-07 0)
(-9.98962e-07 5.34347e-07 0)
(-3.2382e-07 4.85531e-08 0)
(-2.40188e-07 5.57976e-10 0)
(9.89829e-08 3.50352e-07 0)
(-9.19556e-08 5.69936e-07 0)
(-6.93171e-07 3.2469e-07 0)
(-1.06413e-06 6.29115e-08 0)
(-8.18082e-07 1.29456e-07 0)
(1.15945e-07 3.93892e-07 0)
(1.02545e-06 4.25278e-07 0)
(1.51329e-06 1.74634e-07 0)
(-9.3036e-08 -2.67645e-07 0)
(1.40084e-07 -6.58519e-07 0)
(1.37936e-07 -3.04589e-07 0)
(6.63871e-08 2.88388e-07 0)
(-8.08695e-10 4.51104e-07 0)
(-1.4955e-08 3.99787e-07 0)
(-1.17156e-08 7.26077e-07 0)
(-2.4379e-07 1.25719e-06 0)
(-8.0301e-07 1.26994e-06 0)
(-1.06866e-06 6.22497e-07 0)
(-1.22858e-06 1.78167e-08 0)
(-1.75718e-07 -9.52514e-08 0)
(4.40576e-08 2.52142e-07 0)
(-1.84729e-07 4.83283e-07 0)
(-5.12477e-07 3.57296e-07 0)
(-7.27277e-07 1.21076e-07 0)
(-6.02716e-07 1.05377e-07 0)
(5.22433e-08 3.57643e-07 0)
(7.8098e-07 6.93418e-07 0)
(1.16651e-06 4.15519e-07 0)
(-3.10862e-08 -2.66661e-07 0)
(1.71962e-07 -7.45631e-07 0)
(2.05202e-07 -3.40438e-07 0)
(2.56363e-07 3.15105e-07 0)
(3.0236e-07 4.21545e-07 0)
(2.34628e-07 2.78661e-07 0)
(1.84047e-08 5.77708e-07 0)
(-4.19611e-07 1.20844e-06 0)
(-9.10511e-07 1.29967e-06 0)
(-1.06227e-06 6.37946e-07 0)
(-8.27848e-07 -9.63597e-08 0)
(-2.89116e-07 -1.93533e-07 0)
(6.03312e-08 2.87003e-07 0)
(5.76948e-08 6.98959e-07 0)
(-2.20494e-07 5.39586e-07 0)
(-4.90778e-07 1.12177e-07 0)
(-3.9212e-07 5.17302e-08 0)
(7.13453e-08 3.80832e-07 0)
(4.95525e-07 8.40713e-07 0)
(6.67084e-07 5.17511e-07 0)
(1.52036e-08 -1.7061e-07 0)
(1.63212e-07 -7.03802e-07 0)
(2.26587e-07 -3.29958e-07 0)
(4.56393e-07 3.13636e-07 0)
(6.1961e-07 3.27915e-07 0)
(4.46352e-07 1.48333e-08 0)
(6.44813e-08 2.24016e-07 0)
(-4.29055e-07 9.45336e-07 0)
(-9.09957e-07 1.20133e-06 0)
(-1.02629e-06 5.34014e-07 0)
(-7.04246e-07 -2.27754e-07 0)
(-2.21284e-07 -2.20353e-07 0)
(8.71786e-08 4.26504e-07 0)
(1.02815e-07 7.65302e-07 0)
(-9.19126e-08 4.84658e-07 0)
(-2.66215e-07 7.19296e-08 0)
(-1.85382e-07 5.41007e-08 0)
(6.90996e-08 3.9943e-07 0)
(1.75553e-07 8.8558e-07 0)
(1.18418e-07 5.62126e-07 0)
(2.24834e-08 -2.90497e-08 0)
(1.18843e-07 -5.70024e-07 0)
(2.19457e-07 -2.4676e-07 0)
(5.9688e-07 3.04617e-07 0)
(8.31028e-07 1.50469e-07 0)
(5.90568e-07 -3.60788e-07 0)
(8.33915e-08 -2.29103e-07 0)
(-4.51762e-07 5.05444e-07 0)
(-8.37467e-07 8.44001e-07 0)
(-8.38511e-07 3.04909e-07 0)
(-4.95909e-07 -4.09455e-07 0)
(-7.1434e-08 -4.36435e-07 0)
(7.30854e-08 1.19148e-07 0)
(9.21654e-08 5.31075e-07 0)
(1.40188e-07 3.49783e-07 0)
(1.02498e-07 1.55885e-09 0)
(8.51153e-08 1.89232e-09 0)
(4.71723e-08 3.44493e-07 0)
(-1.74783e-07 8.37207e-07 0)
(-4.12104e-07 5.36655e-07 0)
(-2.31882e-08 1.02935e-07 0)
(5.31076e-08 -3.89643e-07 0)
(1.68687e-07 -1.3169e-07 0)
(6.3177e-07 2.48922e-07 0)
(9.36576e-07 -6.3777e-08 0)
(6.6295e-07 -6.51936e-07 0)
(1.23084e-07 -5.91243e-07 0)
(-3.53186e-07 1.09231e-07 0)
(-6.37858e-07 5.47025e-07 0)
(-5.84172e-07 1.40522e-07 0)
(-3.61715e-07 -5.76912e-07 0)
(-1.43468e-07 -5.86979e-07 0)
(1.3701e-08 -9.02708e-09 0)
(2.11233e-07 4.61053e-07 0)
(3.22616e-07 2.77584e-07 0)
(3.42481e-07 -5.19652e-08 0)
(2.98636e-07 -4.11485e-08 0)
(7.37027e-08 2.67821e-07 0)
(-4.29635e-07 7.19626e-07 0)
(-8.6547e-07 4.72644e-07 0)
(-1.00451e-07 1.98552e-07 0)
(-1.98341e-08 -2.09328e-07 0)
(9.41176e-08 -4.30827e-08 0)
(5.6998e-07 2.04689e-07 0)
(9.72334e-07 -1.67686e-07 0)
(7.0853e-07 -7.34964e-07 0)
(1.94067e-07 -7.38451e-07 0)
(-1.9922e-07 -1.48571e-07 0)
(-3.16066e-07 2.12808e-07 0)
(-3.28759e-07 -2.9194e-08 0)
(-1.46232e-07 -5.48217e-07 0)
(1.6457e-08 -6.06371e-07 0)
(1.57195e-07 -1.01703e-07 0)
(1.92322e-07 2.66431e-07 0)
(3.88722e-07 1.72458e-07 0)
(5.77813e-07 -2.53048e-08 0)
(5.2385e-07 2.23075e-08 0)
(9.01676e-08 2.53968e-07 0)
(-6.51536e-07 5.58381e-07 0)
(-1.24461e-06 3.67526e-07 0)
(-2.15146e-07 1.67136e-07 0)
(-1.20847e-07 -7.14255e-08 0)
(3.22021e-08 1.64332e-08 0)
(5.32749e-07 1.33861e-07 0)
(9.16583e-07 -1.54139e-07 0)
(7.03868e-07 -5.89199e-07 0)
(2.71523e-07 -6.27059e-07 0)
(-5.32263e-08 -2.32705e-07 0)
(-1.30283e-07 4.33731e-08 0)
(-1.18323e-08 -1.46039e-07 0)
(4.65211e-08 -4.00455e-07 0)
(4.32013e-08 -3.89891e-07 0)
(1.20643e-07 -1.58839e-07 0)
(2.91703e-07 1.014e-07 0)
(5.91826e-07 9.49369e-08 0)
(7.94531e-07 -1.96159e-08 0)
(6.79515e-07 8.73311e-09 0)
(8.73532e-08 1.54513e-07 0)
(-8.31509e-07 3.45991e-07 0)
(-1.51756e-06 2.25767e-07 0)
(-2.30972e-07 4.8482e-08 0)
(-1.14218e-07 -1.00464e-08 0)
(-3.73082e-08 2.15276e-08 0)
(4.60831e-07 3.29192e-08 0)
(8.96498e-07 -6.99163e-08 0)
(6.97477e-07 -2.26545e-07 0)
(2.71665e-07 -2.49094e-07 0)
(6.16847e-08 -1.24203e-07 0)
(-1.77933e-08 1.72831e-08 0)
(4.96698e-08 -8.37008e-08 0)
(1.90414e-07 -1.94778e-07 0)
(1.60775e-07 -1.20045e-07 0)
(9.70006e-08 -3.40974e-08 0)
(2.76628e-07 6.01967e-08 0)
(5.99738e-07 2.89447e-08 0)
(8.74814e-07 -2.89818e-08 0)
(7.76342e-07 -1.82889e-08 0)
(1.07743e-07 3.65753e-08 0)
(-8.93168e-07 1.06699e-07 0)
(-1.63017e-06 6.99804e-08 0)
)
;

boundaryField
{
    sides
    {
        type            calculated;
        value           nonuniform List<vector> 
40
(
(-2.30972e-07 0 0)
(-1.14218e-07 0 0)
(-3.73082e-08 0 0)
(4.60831e-07 0 0)
(8.96498e-07 0 0)
(6.97477e-07 0 0)
(2.71665e-07 0 0)
(6.16847e-08 0 0)
(-1.77933e-08 0 0)
(4.96698e-08 0 0)
(1.90414e-07 0 0)
(1.60775e-07 0 0)
(9.70006e-08 0 0)
(2.76628e-07 0 0)
(5.99738e-07 0 0)
(8.74814e-07 0 0)
(7.76342e-07 0 0)
(1.07743e-07 0 0)
(-8.93168e-07 0 0)
(-1.63017e-06 0 0)
(-2.61172e-07 0 0)
(-1.63296e-07 0 0)
(-2.82502e-08 0 0)
(4.5261e-07 0 0)
(8.26113e-07 0 0)
(6.00131e-07 0 0)
(1.87437e-07 0 0)
(-8.09088e-09 0 0)
(-2.33395e-08 0 0)
(1.64805e-07 0 0)
(2.68565e-07 0 0)
(2.05012e-07 0 0)
(2.05431e-07 0 0)
(2.56049e-07 0 0)
(5.87263e-07 0 0)
(8.91982e-07 0 0)
(8.15434e-07 0 0)
(1.70437e-07 0 0)
(-8.82263e-07 0 0)
(-1.61187e-06 0 0)
)
;
    }
    inlet
    {
        type            calculated;
        value           uniform (0 0 0);
    }
    outlet
    {
        type            calculated;
        value           nonuniform List<vector> 
20
(
(-1.61187e-06 -6.35318e-08 0)
(-1.48992e-06 -2.96688e-07 0)
(-1.17706e-06 -4.25907e-07 0)
(-8.77862e-07 -5.76501e-07 0)
(-2.43777e-07 -6.97777e-07 0)
(2.07881e-07 -6.91653e-07 0)
(7.66154e-07 -6.74759e-07 0)
(1.24647e-06 -5.26836e-07 0)
(1.52605e-06 -3.19161e-07 0)
(1.7139e-06 -1.30184e-07 0)
(1.70449e-06 -7.89297e-08 0)
(1.51329e-06 1.74634e-07 0)
(1.16651e-06 4.15519e-07 0)
(6.67084e-07 5.17511e-07 0)
(1.18418e-07 5.62126e-07 0)
(-4.12104e-07 5.36655e-07 0)
(-8.6547e-07 4.72644e-07 0)
(-1.24461e-06 3.67526e-07 0)
(-1.51756e-06 2.25767e-07 0)
(-1.63017e-06 6.99804e-08 0)
)
;
    }
    frontAndBack
    {
        type            empty;
    }
}


// ************************************************************************* //
