/*--------------------------------*- C++ -*----------------------------------*\
  =========                 |
  \\      /  F ield         | OpenFOAM: The Open Source CFD Toolbox
   \\    /   O peration     | Website:  https://openfoam.org
    \\  /    A nd           | Version:  9
     \\/     M anipulation  |
\*---------------------------------------------------------------------------*/
FoamFile
{
    format      ascii;
    class       volScalarField;
    location    "14";
    object      h_0;
}
// * * * * * * * * * * * * * * * * * * * * * * * * * * * * * * * * * * * * * //

dimensions      [0 1 0 0 0 0 0];

internalField   nonuniform List<scalar> 
400
(
0.0100002
0.0100004
0.0100004
0.00999983
0.0099991
0.00999864
0.0099985
0.00999863
0.00999911
0.00999982
0.0100005
0.0100008
0.0100008
0.0100007
0.0100006
0.0100003
0.00999965
0.009999
0.00999887
0.0099995
0.0100002
0.0100004
0.0100003
0.00999977
0.00999903
0.00999849
0.00999827
0.00999838
0.0099988
0.00999958
0.0100002
0.0100005
0.0100005
0.0100005
0.0100004
0.0100001
0.00999958
0.009999
0.00999888
0.00999948
0.0100002
0.0100004
0.0100004
0.00999981
0.00999901
0.00999835
0.00999805
0.0099981
0.00999865
0.00999933
0.0099999
0.0100001
0.0100001
0.0100001
0.0100002
0.0100001
0.00999979
0.00999932
0.0099992
0.00999963
0.0100003
0.0100004
0.0100004
0.00999987
0.00999906
0.00999832
0.00999787
0.00999787
0.00999831
0.00999892
0.00999935
0.00999953
0.00999957
0.00999973
0.00999998
0.0100001
0.00999992
0.00999958
0.00999935
0.00999967
0.0100003
0.0100004
0.0100004
0.00999994
0.00999926
0.00999854
0.00999799
0.00999785
0.00999811
0.00999848
0.00999869
0.00999873
0.00999887
0.00999934
0.00999995
0.0100004
0.0100006
0.0100002
0.00999992
0.00999988
0.0100003
0.0100004
0.0100003
0.0100001
0.00999962
0.00999905
0.00999847
0.0099981
0.00999799
0.00999801
0.00999787
0.00999781
0.00999812
0.00999896
0.00999993
0.0100006
0.0100008
0.0100006
0.0100001
0.00999998
0.0100002
0.0100002
0.0100003
0.0100003
0.0100002
0.0099999
0.0099994
0.00999872
0.00999786
0.00999681
0.00999602
0.00999625
0.00999785
0.00999996
0.0100014
0.0100017
0.0100013
0.0100008
0.0100004
0.0100001
0.0100001
0.0100001
0.0100003
0.0100006
0.0100009
0.010001
0.0100007
0.01
0.0099986
0.00999601
0.00999246
0.00999197
0.0099956
0.0100006
0.0100033
0.0100033
0.010002
0.010001
0.0100005
0.0100002
0.00999998
0.01
0.0100003
0.010001
0.0100019
0.0100025
0.0100024
0.0100009
0.00999731
0.00999194
0.00998915
0.00999175
0.00999923
0.010004
0.0100043
0.0100026
0.0100011
0.0100007
0.0100007
0.0100004
0.00999987
0.00999991
0.0100003
0.0100013
0.0100028
0.0100049
0.0100072
0.0100095
0.0100069
0.00898084
0.00895488
0.00997793
0.01001
0.0100181
0.0100103
0.0100025
0.0099998
0.0100004
0.0100011
0.0100007
0.00999981
0.00999983
0.0100002
0.0100012
0.0100028
0.0100048
0.0100071
0.0100094
0.0100068
0.00898078
0.00895483
0.00997785
0.01001
0.010018
0.0100102
0.0100025
0.00999978
0.0100004
0.0100011
0.0100007
0.0099998
0.0099998
0.0100001
0.0100008
0.0100016
0.0100023
0.0100022
0.0100006
0.00999708
0.00999167
0.00998893
0.00999153
0.00999904
0.0100038
0.0100041
0.0100024
0.010001
0.0100007
0.0100007
0.0100004
0.00999978
0.00999978
0.00999993
0.0100002
0.0100005
0.0100006
0.0100003
0.00999964
0.00999826
0.00999571
0.00999217
0.00999172
0.00999529
0.0100002
0.010003
0.010003
0.0100018
0.0100008
0.0100004
0.0100002
0.00999976
0.00999979
0.0099998
0.00999977
0.00999965
0.00999935
0.00999883
0.00999817
0.00999736
0.00999633
0.00999554
0.00999581
0.00999743
0.00999959
0.0100011
0.0100015
0.0100011
0.0100006
0.0100002
0.01
0.00999972
0.00999979
0.00999973
0.00999944
0.00999895
0.00999834
0.00999776
0.0099974
0.00999734
0.00999739
0.00999729
0.00999723
0.00999762
0.0099985
0.00999951
0.0100003
0.0100005
0.0100003
0.00999998
0.00999991
0.00999963
0.00999974
0.00999965
0.00999918
0.00999844
0.0099977
0.00999718
0.00999704
0.00999731
0.00999768
0.00999785
0.00999792
0.00999814
0.00999867
0.00999936
0.00999993
0.0100001
0.00999988
0.00999965
0.00999979
0.00999949
0.00999963
0.00999953
0.00999897
0.00999813
0.00999739
0.00999695
0.00999693
0.00999736
0.00999798
0.00999842
0.00999861
0.00999872
0.00999895
0.00999931
0.00999958
0.00999956
0.00999931
0.00999923
0.00999963
0.00999932
0.00999947
0.00999938
0.00999881
0.009998
0.00999731
0.00999694
0.00999699
0.00999743
0.00999814
0.00999878
0.00999901
0.00999904
0.00999914
0.0099993
0.00999935
0.00999915
0.00999886
0.00999889
0.0099995
0.00999913
0.00999928
0.00999923
0.00999868
0.00999793
0.00999734
0.00999709
0.00999716
0.00999765
0.00999835
0.009999
0.00999937
0.0099994
0.00999939
0.00999942
0.00999929
0.00999891
0.00999854
0.00999864
0.00999941
0.009999
0.0099991
0.00999904
0.00999853
0.00999784
0.00999734
0.00999713
0.0099972
0.00999763
0.00999839
0.00999908
0.00999938
0.00999946
0.00999943
0.00999939
0.00999915
0.00999868
0.00999827
0.00999843
0.00999933
)
;

boundaryField
{
    sides
    {
        type            zeroGradient;
    }
    inlet
    {
        type            zeroGradient;
    }
    outlet
    {
        type            fixedValue;
        value           uniform 0.01;
    }
    frontAndBack
    {
        type            empty;
    }
}


// ************************************************************************* //
