/*--------------------------------*- C++ -*----------------------------------*\
  =========                 |
  \\      /  F ield         | OpenFOAM: The Open Source CFD Toolbox
   \\    /   O peration     | Website:  https://openfoam.org
    \\  /    A nd           | Version:  9
     \\/     M anipulation  |
\*---------------------------------------------------------------------------*/
FoamFile
{
    format      ascii;
    class       volScalarField;
    location    "14";
    object      hTotal;
}
// * * * * * * * * * * * * * * * * * * * * * * * * * * * * * * * * * * * * * //

dimensions      [0 1 0 0 0 0 0];

internalField   nonuniform List<scalar> 
400
(
0.0100002
0.0100004
0.0100002
0.0099996
0.00999909
0.00999894
0.00999902
0.00999934
0.00999993
0.0100007
0.0100011
0.0100011
0.0100009
0.0100007
0.0100004
0.00999997
0.00999929
0.0099988
0.00999892
0.00999958
0.0100003
0.0100004
0.0100001
0.00999954
0.00999897
0.00999873
0.00999875
0.00999901
0.00999963
0.0100004
0.0100008
0.0100008
0.0100006
0.0100005
0.0100003
0.00999986
0.00999929
0.00999881
0.00999895
0.00999956
0.0100003
0.0100004
0.0100002
0.00999955
0.0099989
0.00999852
0.00999844
0.00999869
0.00999934
0.00999996
0.0100003
0.0100002
0.0100001
0.0100001
0.0100001
0.00999992
0.00999951
0.00999917
0.00999918
0.00999969
0.0100004
0.0100005
0.0100002
0.00999964
0.00999892
0.00999841
0.0099982
0.00999839
0.00999892
0.00999937
0.00999955
0.0099995
0.00999944
0.00999962
0.00999989
0.00999996
0.00999979
0.00999941
0.00999939
0.00999971
0.0100004
0.0100005
0.0100003
0.0099998
0.00999916
0.0099986
0.00999824
0.00999827
0.00999853
0.00999875
0.00999865
0.00999852
0.00999862
0.00999914
0.00999985
0.0100004
0.0100005
0.0100001
0.0099999
0.0099999
0.0100004
0.0100004
0.0100004
0.0100001
0.00999963
0.00999913
0.00999867
0.0099984
0.00999826
0.00999808
0.00999768
0.00999739
0.00999768
0.00999862
0.0099998
0.0100007
0.0100008
0.0100006
0.0100001
0.00999996
0.0100002
0.0100003
0.0100004
0.0100005
0.0100003
0.0100001
0.00999957
0.00999892
0.009998
0.00999674
0.00999568
0.0099957
0.00999722
0.00999949
0.0100012
0.0100018
0.0100014
0.0100008
0.0100003
0.0100001
0.0100001
0.0100002
0.0100005
0.0100009
0.0100012
0.0100013
0.0100009
0.0100001
0.00999859
0.00999585
0.00999207
0.00999129
0.0099948
0.00999995
0.0100031
0.0100033
0.0100022
0.010001
0.0100004
0.0100002
0.00999993
0.0100001
0.0100007
0.0100015
0.0100024
0.0100029
0.0100026
0.0100009
0.00999723
0.00999162
0.0099885
0.00999085
0.00999825
0.0100032
0.010004
0.0100026
0.0100013
0.0100007
0.0100006
0.0100003
0.00999979
0.01
0.0100007
0.0100019
0.0100034
0.0100053
0.0100074
0.0100095
0.0100068
0.00998051
0.00995421
0.00997698
0.010009
0.0100172
0.0100099
0.0100025
0.00999997
0.0100004
0.010001
0.0100006
0.00999972
0.00999995
0.0100006
0.0100018
0.0100033
0.0100052
0.0100073
0.0100095
0.0100067
0.00998043
0.00995423
0.0099769
0.0100089
0.0100172
0.0100098
0.0100025
0.00999993
0.0100004
0.010001
0.0100006
0.00999973
0.0099999
0.0100004
0.0100012
0.0100021
0.0100026
0.0100024
0.0100007
0.00999699
0.00999136
0.00998852
0.00999067
0.00999804
0.010003
0.0100037
0.0100024
0.0100012
0.0100007
0.0100006
0.0100003
0.00999976
0.00999986
0.0100002
0.0100005
0.0100008
0.0100009
0.0100005
0.00999974
0.00999825
0.00999553
0.00999154
0.00999096
0.00999447
0.00999958
0.0100027
0.010003
0.0100019
0.0100008
0.0100003
0.0100001
0.0099998
0.00999985
0.00999991
0.0099999
0.00999978
0.00999948
0.009999
0.00999839
0.0099975
0.00999627
0.00999514
0.00999524
0.0099968
0.0099991
0.0100009
0.0100015
0.0100012
0.0100006
0.0100001
0.01
0.00999981
0.00999983
0.00999971
0.00999939
0.00999892
0.00999841
0.00999796
0.00999771
0.00999764
0.00999747
0.00999708
0.00999683
0.00999719
0.00999819
0.00999941
0.0100003
0.0100005
0.0100002
0.00999992
0.0099999
0.00999975
0.00999977
0.00999954
0.00999899
0.00999831
0.00999775
0.00999743
0.00999744
0.00999773
0.00999794
0.00999785
0.00999774
0.00999791
0.0099985
0.00999929
0.0099999
0.01
0.00999977
0.00999962
0.00999979
0.00999961
0.00999964
0.00999936
0.00999871
0.00999798
0.00999747
0.00999725
0.00999741
0.0099979
0.0099984
0.00999858
0.00999859
0.00999861
0.00999885
0.00999922
0.00999946
0.00999938
0.00999916
0.00999922
0.00999966
0.00999941
0.00999946
0.00999919
0.00999853
0.00999786
0.00999745
0.00999733
0.00999754
0.00999814
0.0099988
0.00999916
0.0099991
0.00999904
0.00999909
0.00999918
0.00999914
0.0099989
0.00999869
0.00999891
0.00999956
0.00999916
0.00999925
0.00999904
0.00999844
0.00999785
0.00999756
0.00999753
0.00999778
0.00999839
0.00999911
0.00999957
0.0099996
0.00999946
0.00999935
0.00999926
0.00999901
0.00999861
0.00999837
0.00999868
0.00999949
0.00999899
0.00999906
0.00999886
0.00999831
0.00999781
0.0099976
0.00999759
0.00999785
0.00999844
0.0099992
0.00999968
0.00999971
0.00999953
0.00999938
0.0099992
0.00999884
0.00999836
0.0099981
0.00999849
0.00999941
)
;

boundaryField
{
    sides
    {
        type            calculated;
        value           nonuniform List<scalar> 
40
(
0.00999899
0.00999906
0.00999886
0.00999831
0.00999781
0.0099976
0.00999759
0.00999785
0.00999844
0.0099992
0.00999968
0.00999971
0.00999953
0.00999938
0.0099992
0.00999884
0.00999836
0.0099981
0.00999849
0.00999941
0.0100002
0.0100004
0.0100002
0.0099996
0.00999909
0.00999894
0.00999902
0.00999934
0.00999993
0.0100007
0.0100011
0.0100011
0.0100009
0.0100007
0.0100004
0.00999997
0.00999929
0.0099988
0.00999892
0.00999958
)
;
    }
    inlet
    {
        type            calculated;
        value           nonuniform List<scalar> 
20
(
0.0100002
0.0100003
0.0100003
0.0100004
0.0100004
0.0100004
0.0100002
0.0100001
0.00999993
0.00999979
0.00999972
0.00999973
0.00999976
0.0099998
0.00999981
0.00999975
0.00999961
0.00999941
0.00999916
0.00999899
)
;
    }
    outlet
    {
        type            calculated;
        value           uniform 0.01;
    }
    frontAndBack
    {
        type            empty;
    }
}


// ************************************************************************* //
