/*--------------------------------*- C++ -*----------------------------------*\
  =========                 |
  \\      /  F ield         | OpenFOAM: The Open Source CFD Toolbox
   \\    /   O peration     | Website:  https://openfoam.org
    \\  /    A nd           | Version:  9
     \\/     M anipulation  |
\*---------------------------------------------------------------------------*/
FoamFile
{
    format      ascii;
    class       volVectorField;
    location    "14";
    object      U;
}
// * * * * * * * * * * * * * * * * * * * * * * * * * * * * * * * * * * * * * //

dimensions      [0 1 -1 0 0 0 0];

internalField   nonuniform List<vector> 
400
(
(0.100001 -3.73689e-07 0)
(0.0999961 -5.83335e-06 0)
(0.100009 -1.34337e-05 0)
(0.100047 -1.57688e-05 0)
(0.100067 -1.69257e-05 0)
(0.100076 -2.3498e-05 0)
(0.10009 -3.27844e-05 0)
(0.100102 -3.57219e-05 0)
(0.100097 -2.97772e-05 0)
(0.100073 -2.35088e-05 0)
(0.100047 -2.14656e-05 0)
(0.100036 -2.23455e-05 0)
(0.100038 -2.0277e-05 0)
(0.10004 -1.44535e-05 0)
(0.10003 -8.37397e-06 0)
(0.100018 -9.43329e-06 0)
(0.100013 -1.25451e-05 0)
(0.100017 -1.99671e-05 0)
(0.100021 -2.12256e-05 0)
(0.100027 -2.64704e-05 0)
(0.100002 3.097e-06 0)
(0.0999955 -4.42622e-06 0)
(0.100009 -1.7978e-05 0)
(0.100046 -1.92941e-05 0)
(0.100068 -1.72717e-05 0)
(0.100078 -2.94541e-05 0)
(0.100096 -5.02077e-05 0)
(0.100111 -5.61214e-05 0)
(0.100107 -3.95861e-05 0)
(0.100086 -1.71447e-05 0)
(0.100065 -6.90695e-06 0)
(0.100057 -5.62016e-06 0)
(0.100058 4.36125e-06 0)
(0.100054 2.766e-05 0)
(0.10004 5.25015e-05 0)
(0.100024 5.52237e-05 0)
(0.100022 4.18072e-05 0)
(0.100022 1.42202e-05 0)
(0.100027 2.43458e-06 0)
(0.100021 4.59893e-06 0)
(0.100001 3.76928e-06 0)
(0.0999936 -1.04521e-05 0)
(0.100005 -3.31137e-05 0)
(0.100039 -3.75143e-05 0)
(0.100063 -3.79592e-05 0)
(0.100078 -6.1331e-05 0)
(0.100097 -9.78149e-05 0)
(0.100112 -0.000110644 0)
(0.100112 -8.65392e-05 0)
(0.100103 -5.06319e-05 0)
(0.100092 -3.2531e-05 0)
(0.100089 -2.89563e-05 0)
(0.100086 -1.36743e-05 0)
(0.100076 1.99639e-05 0)
(0.10005 5.12852e-05 0)
(0.100022 4.9749e-05 0)
(0.100007 2.77058e-05 0)
(0.100009 -8.32136e-06 0)
(0.100019 -2.28179e-05 0)
(0.100028 -1.44148e-05 0)
(0.100001 4.33199e-06 0)
(0.099992 -1.46345e-05 0)
(0.100002 -4.32017e-05 0)
(0.100033 -4.84856e-05 0)
(0.100057 -5.12065e-05 0)
(0.100076 -8.48681e-05 0)
(0.100101 -0.00013415 0)
(0.100122 -0.000151031 0)
(0.100133 -0.000116729 0)
(0.100138 -6.45282e-05 0)
(0.100143 -2.90801e-05 0)
(0.100143 -6.37278e-06 0)
(0.100132 2.68848e-05 0)
(0.100101 7.29108e-05 0)
(0.10006 0.000105997 0)
(0.100027 9.08714e-05 0)
(0.100022 4.84548e-05 0)
(0.100024 -4.0771e-06 0)
(0.100034 -2.21994e-05 0)
(0.100029 -4.23102e-06 0)
(0.100001 4.52621e-06 0)
(0.0999924 -1.82036e-05 0)
(0.0999988 -5.10576e-05 0)
(0.100023 -6.01145e-05 0)
(0.100045 -6.931e-05 0)
(0.10007 -0.000115696 0)
(0.100102 -0.00018 0)
(0.100131 -0.000204516 0)
(0.100159 -0.000166013 0)
(0.100191 -0.000100714 0)
(0.100222 -4.86241e-05 0)
(0.10023 -6.67512e-06 0)
(0.100198 4.68262e-05 0)
(0.100134 0.000102822 0)
(0.100059 0.000134352 0)
(0.100001 0.000111144 0)
(0.0999871 6.25184e-05 0)
(0.100006 4.8421e-06 0)
(0.100035 -1.15967e-05 0)
(0.100044 1.27552e-05 0)
(0.100001 4.3291e-06 0)
(0.0999941 -2.11115e-05 0)
(0.0999952 -5.71519e-05 0)
(0.100009 -7.12755e-05 0)
(0.100025 -9.03834e-05 0)
(0.100052 -0.000151504 0)
(0.100094 -0.00023568 0)
(0.100142 -0.000277151 0)
(0.100196 -0.000238309 0)
(0.10026 -0.000138236 0)
(0.10032 -1.86836e-05 0)
(0.100337 8.78789e-05 0)
(0.100281 0.000161674 0)
(0.10017 0.000178237 0)
(0.100062 0.000135373 0)
(0.100001 5.8624e-05 0)
(0.100004 3.27174e-06 0)
(0.100029 -3.43958e-05 0)
(0.100061 -3.07801e-05 0)
(0.100054 4.33645e-07 0)
(0.100002 4.15055e-06 0)
(0.0999963 -2.26782e-05 0)
(0.0999897 -5.91781e-05 0)
(0.0999891 -8.13674e-05 0)
(0.0999943 -0.000112045 0)
(0.100016 -0.000192124 0)
(0.100062 -0.000292961 0)
(0.100137 -0.000373242 0)
(0.10026 -0.000369024 0)
(0.100418 -0.000307829 0)
(0.100537 -9.29659e-05 0)
(0.100514 0.000198965 0)
(0.100334 0.000409075 0)
(0.100093 0.000422351 0)
(0.0999363 0.000292817 0)
(0.0999155 0.00013113 0)
(0.099987 3.71378e-05 0)
(0.10005 3.00823e-06 0)
(0.100093 1.92762e-05 0)
(0.100069 4.92883e-05 0)
(0.100003 3.00872e-06 0)
(0.0999975 -1.97875e-05 0)
(0.0999795 -5.57131e-05 0)
(0.0999614 -8.263e-05 0)
(0.0999463 -0.000135271 0)
(0.0999597 -0.000232402 0)
(0.0999932 -0.000376236 0)
(0.100079 -0.000465683 0)
(0.100229 -0.000474035 0)
(0.100552 -0.000271644 0)
(0.100919 5.13491e-05 0)
(0.100946 0.000379879 0)
(0.100562 0.000414791 0)
(0.100053 0.000237664 0)
(0.0997807 6.2702e-05 0)
(0.0997982 -2.81504e-05 0)
(0.0999696 -3.68374e-05 0)
(0.100093 -2.64377e-05 0)
(0.100136 -8.0381e-06 0)
(0.100089 8.77651e-06 0)
(0.100004 3.18462e-06 0)
(0.0999966 -1.4997e-05 0)
(0.099965 -3.76917e-05 0)
(0.0999194 -6.55411e-05 0)
(0.0998728 -0.000121275 0)
(0.0998512 -0.000249591 0)
(0.0998921 -0.000493832 0)
(0.100056 -0.000842003 0)
(0.100426 -0.00135278 0)
(0.100947 -0.00150059 0)
(0.101229 0.000371904 0)
(0.100935 0.00184111 0)
(0.100208 0.00153397 0)
(0.0997095 0.000542465 0)
(0.099648 -3.91358e-05 0)
(0.0998297 -0.000131214 0)
(0.100032 -2.51739e-05 0)
(0.100113 4.12047e-05 0)
(0.100109 4.66501e-05 0)
(0.100057 2.42232e-05 0)
(0.099986 5.82076e-07 0)
(0.100025 -6.31487e-06 0)
(0.0999122 -1.70813e-05 0)
(0.0999525 -2.51019e-05 0)
(0.0996847 -5.95873e-05 0)
(0.099789 -0.000119926 0)
(0.0992056 -0.00030261 0)
(0.0995804 -0.000573857 0)
(0.0990041 -0.00116393 0)
(0.101882 -0.00141851 0)
(0.106184 3.38374e-05 0)
(0.101207 0.00146155 0)
(0.098975 0.00129063 0)
(0.0982129 0.000499757 0)
(0.0988674 1.66408e-05 0)
(0.0996259 -8.69229e-05 0)
(0.0999432 -2.84758e-05 0)
(0.0999489 1.4063e-05 0)
(0.0998681 1.19675e-05 0)
(0.0998589 -1.65697e-05 0)
(0.0999867 -2.48614e-06 0)
(0.100026 -2.94208e-07 0)
(0.0999132 6.41416e-06 0)
(0.0999534 9.87602e-06 0)
(0.0996852 3.88334e-05 0)
(0.0997889 9.49089e-05 0)
(0.0992053 0.00027588 0)
(0.0995804 0.00054952 0)
(0.0990039 0.00114583 0)
(0.101882 0.00140467 0)
(0.106182 -4.62021e-05 0)
(0.101205 -0.00147715 0)
(0.0989737 -0.00131593 0)
(0.0982125 -0.000539948 0)
(0.0988659 -7.13817e-05 0)
(0.0996228 1.71511e-05 0)
(0.0999387 -4.89733e-05 0)
(0.0999441 -0.000107622 0)
(0.0998663 -0.000108197 0)
(0.0998544 -8.81477e-05 0)
(0.100006 -4.82718e-06 0)
(0.0999998 8.70262e-06 0)
(0.0999681 2.73485e-05 0)
(0.0999229 5.05137e-05 0)
(0.0998765 0.00010088 0)
(0.0998544 0.000224431 0)
(0.0998939 0.000467129 0)
(0.100057 0.000816914 0)
(0.100425 0.00133272 0)
(0.100947 0.0014849 0)
(0.101229 -0.000383293 0)
(0.100934 -0.00185766 0)
(0.100205 -0.00155776 0)
(0.0997042 -0.000581327 0)
(0.0996455 -9.632e-06 0)
(0.099828 6.60213e-05 0)
(0.100024 -4.67786e-05 0)
(0.100097 -0.000128177 0)
(0.100089 -0.000135392 0)
(0.10004 -0.000124229 0)
(0.100006 -4.14145e-06 0)
(0.100002 1.41596e-05 0)
(0.0999841 4.56705e-05 0)
(0.0999663 6.75351e-05 0)
(0.0999504 0.000114013 0)
(0.099962 0.000205635 0)
(0.099994 0.000347311 0)
(0.100078 0.0004391 0)
(0.100227 0.000453118 0)
(0.10055 0.000256335 0)
(0.100913 -6.4292e-05 0)
(0.100939 -0.000395547 0)
(0.100557 -0.000436218 0)
(0.10005 -0.000271771 0)
(0.0997769 -0.000109063 0)
(0.0997888 -4.09985e-05 0)
(0.0999527 -4.44342e-05 0)
(0.100068 -6.58239e-05 0)
(0.100109 -7.95511e-05 0)
(0.100058 -0.000103133 0)
(0.100006 -5.24159e-06 0)
(0.100001 1.78463e-05 0)
(0.0999955 4.97645e-05 0)
(0.0999951 6.67485e-05 0)
(0.0999997 9.21945e-05 0)
(0.10002 0.000168405 0)
(0.100065 0.000268439 0)
(0.100138 0.00035134 0)
(0.100259 0.000352317 0)
(0.100415 0.000295867 0)
(0.100535 8.28793e-05 0)
(0.100513 -0.000209716 0)
(0.100331 -0.000427245 0)
(0.100085 -0.000455488 0)
(0.0999229 -0.000342417 0)
(0.0998948 -0.000200207 0)
(0.099965 -0.000116373 0)
(0.100024 -9.34481e-05 0)
(0.100061 -0.000107314 0)
(0.100025 -0.00014617 0)
(0.100007 -5.43644e-06 0)
(0.1 1.74086e-05 0)
(0.100002 4.92627e-05 0)
(0.100017 5.8777e-05 0)
(0.100032 7.34493e-05 0)
(0.100058 0.000130856 0)
(0.100098 0.000212913 0)
(0.100142 0.000255189 0)
(0.100193 0.000220884 0)
(0.100256 0.000125711 0)
(0.100316 1.03025e-05 0)
(0.10033 -9.86164e-05 0)
(0.100272 -0.00018027 0)
(0.100156 -0.000209168 0)
(0.100044 -0.000175892 0)
(0.0999761 -0.000110812 0)
(0.0999744 -5.72323e-05 0)
(0.0999924 -3.08598e-05 0)
(0.100019 -3.43806e-05 0)
(0.0999996 -7.87125e-05 0)
(0.100007 -5.68959e-06 0)
(0.0999996 1.56155e-05 0)
(0.100008 4.5358e-05 0)
(0.100032 5.02002e-05 0)
(0.100053 5.49346e-05 0)
(0.100076 9.76695e-05 0)
(0.100105 0.000160256 0)
(0.100132 0.00018541 0)
(0.100158 0.000150006 0)
(0.100189 8.84615e-05 0)
(0.100222 3.87392e-05 0)
(0.100227 -6.72465e-06 0)
(0.100192 -6.48202e-05 0)
(0.100124 -0.000128969 0)
(0.100044 -0.000167689 0)
(0.0999799 -0.000158828 0)
(0.099961 -0.000119477 0)
(0.0999651 -8.02911e-05 0)
(0.0999838 -6.78268e-05 0)
(0.0999731 -0.000105664 0)
(0.100008 -5.26935e-06 0)
(0.100001 1.27706e-05 0)
(0.100012 3.87919e-05 0)
(0.100043 4.10291e-05 0)
(0.100065 4.04244e-05 0)
(0.100083 7.07919e-05 0)
(0.100106 0.00011943 0)
(0.100123 0.000138534 0)
(0.10013 0.000109385 0)
(0.100134 6.17357e-05 0)
(0.100137 2.82879e-05 0)
(0.100135 4.01013e-06 0)
(0.100124 -3.14476e-05 0)
(0.100088 -8.67618e-05 0)
(0.100038 -0.00012782 0)
(0.0999905 -0.000123315 0)
(0.0999726 -8.44746e-05 0)
(0.0999631 -4.14587e-05 0)
(0.0999695 -2.22298e-05 0)
(0.0999501 -5.31653e-05 0)
(0.10001 -4.37041e-06 0)
(0.100004 9.32181e-06 0)
(0.100018 2.96284e-05 0)
(0.100052 2.94084e-05 0)
(0.100073 2.51635e-05 0)
(0.100086 4.52678e-05 0)
(0.100104 7.95611e-05 0)
(0.100118 9.08707e-05 0)
(0.100116 6.64765e-05 0)
(0.100103 3.16723e-05 0)
(0.100092 1.35041e-05 0)
(0.100088 6.95914e-06 0)
(0.100081 -1.38268e-05 0)
(0.100061 -5.45152e-05 0)
(0.100032 -9.00157e-05 0)
(0.099996 -9.62475e-05 0)
(0.0999758 -7.54552e-05 0)
(0.0999572 -5.02172e-05 0)
(0.0999562 -3.66332e-05 0)
(0.0999307 -6.37758e-05 0)
(0.100012 -2.50814e-06 0)
(0.100007 7.38077e-06 0)
(0.100021 2.20318e-05 0)
(0.100056 2.3661e-05 0)
(0.100075 2.19075e-05 0)
(0.100085 3.47414e-05 0)
(0.100099 5.6696e-05 0)
(0.100109 6.50914e-05 0)
(0.100102 5.08984e-05 0)
(0.100081 3.07198e-05 0)
(0.100058 2.33853e-05 0)
(0.100047 2.24269e-05 0)
(0.100048 1.17807e-05 0)
(0.100041 -1.18985e-05 0)
(0.100019 -3.56413e-05 0)
(0.0999863 -4.25224e-05 0)
(0.0999684 -3.00979e-05 0)
(0.099948 -1.23968e-05 0)
(0.0999444 -8.03067e-07 0)
(0.0999148 -1.82678e-05 0)
(0.100014 -2.41522e-06 0)
(0.100011 -1.83886e-06 0)
(0.100026 6.37117e-07 0)
(0.100062 -3.36847e-07 0)
(0.10008 -2.53543e-06 0)
(0.100086 -1.04444e-06 0)
(0.1001 3.96201e-06 0)
(0.100111 5.53487e-06 0)
(0.100102 8.05252e-08 0)
(0.100076 -8.03748e-06 0)
(0.100049 -1.16821e-05 0)
(0.100036 -1.17794e-05 0)
(0.100036 -1.50643e-05 0)
(0.100031 -2.64429e-05 0)
(0.100016 -3.68499e-05 0)
(0.0999891 -4.06962e-05 0)
(0.0999754 -3.59613e-05 0)
(0.0999499 -3.17244e-05 0)
(0.0999456 -2.68841e-05 0)
(0.0999026 -3.83825e-05 0)
)
;

boundaryField
{
    sides
    {
        type            calculated;
        value           nonuniform List<vector> 
40
(
(0.100014 0 0)
(0.100011 0 0)
(0.100026 0 0)
(0.100062 0 0)
(0.10008 0 0)
(0.100086 0 0)
(0.1001 0 0)
(0.100111 0 0)
(0.100102 0 0)
(0.100076 0 0)
(0.100049 0 0)
(0.100036 0 0)
(0.100036 0 0)
(0.100031 0 0)
(0.100016 0 0)
(0.0999891 0 0)
(0.0999754 0 0)
(0.0999499 0 0)
(0.0999456 0 0)
(0.0999026 0 0)
(0.100001 0 0)
(0.0999961 0 0)
(0.100009 0 0)
(0.100047 0 0)
(0.100067 0 0)
(0.100076 0 0)
(0.10009 0 0)
(0.100102 0 0)
(0.100097 0 0)
(0.100073 0 0)
(0.100047 0 0)
(0.100036 0 0)
(0.100038 0 0)
(0.10004 0 0)
(0.10003 0 0)
(0.100018 0 0)
(0.100013 0 0)
(0.100017 0 0)
(0.100021 0 0)
(0.100027 0 0)
)
;
    }
    inlet
    {
        type            calculated;
        value           nonuniform List<vector> 
20
(
(0.0999976 0 0)
(0.0999973 0 0)
(0.0999965 0 0)
(0.0999957 0 0)
(0.0999957 0 0)
(0.0999963 0 0)
(0.0999975 0 0)
(0.0999991 0 0)
(0.100001 0 0)
(0.100002 0 0)
(0.100003 0 0)
(0.100003 0 0)
(0.100002 0 0)
(0.100002 0 0)
(0.100002 0 0)
(0.100002 0 0)
(0.100004 0 0)
(0.100006 0 0)
(0.100008 0 0)
(0.10001 0 0)
)
;
    }
    outlet
    {
        type            calculated;
        value           nonuniform List<vector> 
20
(
(0.100023 -2.64693e-05 0)
(0.100017 4.59873e-06 0)
(0.100024 -1.44143e-05 0)
(0.100026 -4.23089e-06 0)
(0.100043 1.2755e-05 0)
(0.100054 4.33643e-07 0)
(0.100069 4.92886e-05 0)
(0.10009 8.77665e-06 0)
(0.10006 2.42239e-05 0)
(0.0998651 -1.65707e-05 0)
(0.0998603 -8.8153e-05 0)
(0.100043 -0.000124233 0)
(0.100059 -0.000103134 0)
(0.100025 -0.00014617 0)
(0.0999986 -7.87117e-05 0)
(0.0999711 -0.000105662 0)
(0.0999467 -5.31635e-05 0)
(0.0999264 -6.3773e-05 0)
(0.0999097 -1.82669e-05 0)
(0.0998967 -3.83802e-05 0)
)
;
    }
    frontAndBack
    {
        type            empty;
    }
}


// ************************************************************************* //
