/*--------------------------------*- C++ -*----------------------------------*\
  =========                 |
  \\      /  F ield         | OpenFOAM: The Open Source CFD Toolbox
   \\    /   O peration     | Website:  https://openfoam.org
    \\  /    A nd           | Version:  9
     \\/     M anipulation  |
\*---------------------------------------------------------------------------*/
FoamFile
{
    format      ascii;
    class       volScalarField;
    location    "95";
    object      ddt0(h);
}
// * * * * * * * * * * * * * * * * * * * * * * * * * * * * * * * * * * * * * //

dimensions      [0 1 -1 0 0 0 0];

internalField   nonuniform List<scalar> 
400
(
7.13393e-09
-7.63784e-09
-1.28449e-08
1.02278e-09
-6.90814e-10
1.5307e-08
1.49322e-08
2.00164e-08
1.28859e-08
4.37924e-09
2.75583e-09
-8.96165e-09
-2.39807e-08
-2.54264e-08
-8.20016e-09
-4.35411e-09
1.29587e-09
1.18817e-08
-3.19863e-09
-7.14221e-09
-2.10095e-09
-8.19668e-09
2.56574e-10
1.86415e-09
4.83152e-09
1.39544e-08
1.68013e-08
3.83128e-09
-1.22874e-08
-4.00725e-09
-2.95141e-08
-2.03826e-09
-2.76504e-08
-2.31272e-08
-1.13015e-08
-1.29041e-08
-6.65513e-09
3.25784e-09
6.457e-09
-1.82383e-10
-1.63229e-08
-3.94099e-09
1.35925e-08
4.61596e-09
7.48746e-09
1.52872e-08
-4.54302e-09
-1.98751e-08
-4.44428e-08
-3.01956e-09
-8.10577e-09
-1.67692e-08
2.01879e-08
-3.64759e-09
-7.83675e-09
-1.05608e-08
-1.44355e-08
-1.18743e-08
7.53554e-10
5.47711e-09
-1.73302e-08
-7.63543e-10
1.80362e-08
3.32027e-09
1.41382e-08
-5.556e-09
-2.25507e-08
-6.58125e-08
2.38271e-08
-3.9186e-08
9.89681e-08
-1.10058e-08
3.8781e-08
7.60442e-08
1.98373e-08
-3.10288e-09
-1.00622e-08
-1.01885e-08
6.39701e-09
9.31407e-09
-8.71028e-09
9.07182e-09
8.15928e-09
1.97287e-09
4.36467e-09
-1.79388e-08
-5.38322e-08
-5.85697e-09
5.43056e-08
3.8513e-08
-7.47976e-08
1.21568e-07
-2.06834e-08
4.18877e-08
7.2977e-08
2.508e-08
-5.26822e-09
-5.69184e-09
1.11605e-08
1.11227e-08
1.84098e-09
1.52738e-08
-4.20342e-10
-8.38036e-09
1.87309e-10
-3.08936e-08
-3.29786e-08
1.02276e-07
-6.84604e-08
1.28031e-07
-7.98734e-08
-6.57744e-08
6.70995e-08
-2.66418e-08
1.88737e-09
2.92521e-08
1.03172e-08
9.49342e-10
1.00784e-08
8.22853e-09
8.32818e-09
1.31114e-08
-1.21395e-08
-8.73596e-09
2.09305e-09
-1.86512e-08
3.89073e-08
4.77806e-09
8.48367e-08
-3.10076e-07
3.88017e-07
-2.05784e-07
-1.19545e-07
3.48182e-09
-1.57436e-08
-3.74283e-09
-2.57941e-09
-7.06052e-09
-4.23157e-10
1.16965e-09
1.00573e-08
3.34841e-10
-1.70381e-08
-5.80603e-09
1.94574e-08
9.02313e-09
-6.80635e-09
4.86051e-08
-9.18492e-08
-1.19571e-07
4.5356e-06
3.5732e-07
-8.25417e-08
-4.71463e-08
-4.7737e-09
-9.82086e-09
-1.82796e-08
-2.42778e-08
-1.86963e-08
-9.69991e-09
7.01952e-09
-9.35923e-09
-1.83312e-08
4.71148e-09
2.35362e-08
1.65297e-08
-2.42331e-08
-6.00473e-08
9.87833e-08
1.19681e-07
-4.52156e-06
-3.49534e-07
9.40345e-08
7.2053e-08
4.72338e-08
4.25561e-10
-6.62358e-09
-3.07809e-08
-2.7455e-08
-4.64604e-08
4.75383e-09
-1.19443e-08
-7.32487e-09
3.60355e-09
1.29391e-08
6.10051e-09
-2.36127e-08
1.04187e-08
-8.62458e-08
3.22451e-07
-3.67862e-07
2.07313e-07
1.33342e-07
2.12569e-08
2.1802e-08
7.64281e-09
-2.65412e-08
-1.0109e-08
-1.54784e-08
2.52551e-08
6.84772e-09
-6.5113e-09
4.17626e-10
2.12449e-09
-1.90128e-08
5.01541e-09
3.51312e-08
-3.79977e-08
7.67716e-08
-2.05722e-07
5.17343e-08
6.83424e-08
-1.12236e-07
1.18689e-09
-3.80514e-08
-2.45688e-08
8.86663e-09
1.99042e-08
2.82392e-09
-1.1514e-09
1.02198e-08
-1.537e-09
9.41909e-10
-1.17951e-09
-2.15802e-08
-1.51732e-08
4.87172e-08
2.94449e-08
-7.9312e-08
4.43858e-07
-4.66563e-06
-7.65143e-08
6.54968e-08
-3.89564e-08
-4.49044e-08
-2.55077e-09
3.06725e-08
3.01489e-08
1.01889e-08
-8.61481e-11
1.04055e-08
1.53405e-09
-4.44127e-09
-1.29073e-09
-6.98909e-09
-2.6784e-09
-2.11516e-09
2.1419e-08
5.20441e-08
-4.83779e-07
4.95538e-06
-6.62305e-08
-6.21067e-08
-3.10305e-08
-7.96724e-09
6.91107e-09
1.41115e-08
1.39515e-08
5.34881e-09
-8.37059e-10
1.27129e-09
6.97898e-09
-6.22819e-09
-3.73425e-09
1.04501e-08
1.63399e-08
-2.35886e-08
-1.42466e-08
-3.15389e-08
1.71752e-07
-3.26626e-07
4.98494e-08
3.51298e-08
-1.41455e-09
1.67617e-08
4.8529e-11
-1.16881e-08
-2.84278e-09
4.62788e-09
1.84595e-09
-1.04509e-08
1.38316e-08
4.85534e-09
-1.10629e-08
3.69378e-09
2.9756e-08
4.62633e-09
-6.2588e-08
8.96529e-09
-6.15104e-08
3.05766e-08
2.20575e-08
-9.01778e-09
2.19564e-08
-9.25941e-09
-2.61188e-08
-2.15326e-08
6.02883e-10
2.03382e-08
1.2663e-08
-1.47149e-08
1.70847e-08
2.05504e-08
-1.4002e-08
-2.27548e-08
1.13384e-08
2.79551e-08
-1.97734e-08
-4.13728e-08
-1.695e-08
4.2447e-08
-2.64908e-08
8.22861e-09
-1.76564e-08
-3.37499e-08
-2.10345e-08
9.17232e-10
2.10939e-08
3.76795e-08
2.16908e-08
-7.40877e-09
7.4544e-09
2.76679e-08
-5.31445e-09
-3.67852e-08
-2.61282e-08
2.13875e-08
2.07453e-08
-9.71663e-10
3.54061e-09
-1.21981e-08
-2.8741e-09
-7.49238e-09
-1.77072e-08
-1.82719e-08
9.81763e-09
3.34404e-08
3.4295e-08
3.39552e-08
1.84916e-08
2.22242e-09
-5.33705e-09
1.67245e-08
8.38474e-09
-2.27606e-08
-3.5404e-08
-8.7172e-09
2.12354e-08
2.28744e-08
1.22417e-08
6.77124e-09
1.02646e-08
1.10357e-08
6.11624e-09
1.14902e-08
3.41724e-08
4.02255e-08
2.06289e-08
6.02696e-09
2.71338e-09
3.73714e-09
-1.0186e-08
-3.44135e-09
1.24504e-08
5.76678e-09
-7.31559e-09
-1.23453e-08
8.06082e-09
1.13758e-08
2.4022e-09
7.49185e-10
4.76299e-09
5.25561e-09
2.25808e-09
1.14054e-08
1.53491e-08
6.13513e-09
-1.45594e-08
-3.25815e-08
-1.84893e-08
-1.57913e-09
-1.0797e-08
-1.8002e-08
1.00748e-08
2.66596e-08
2.11772e-08
3.56613e-09
4.64901e-09
3.30608e-09
-8.96471e-09
-2.19029e-08
-1.31125e-08
-1.8985e-08
-1.77917e-08
-6.61199e-09
-1.23938e-08
-2.44962e-08
-3.80647e-08
-5.34064e-08
-3.11149e-08
)
;

boundaryField
{
    sides
    {
        type            calculated;
        value           nonuniform List<scalar> 
40
(
-1.57913e-09
-1.0797e-08
-1.8002e-08
1.00748e-08
2.66596e-08
2.11772e-08
3.56613e-09
4.64901e-09
3.30608e-09
-8.96471e-09
-2.19029e-08
-1.31125e-08
-1.8985e-08
-1.77917e-08
-6.61199e-09
-1.23938e-08
-2.44962e-08
-3.80647e-08
-5.34064e-08
-3.11149e-08
7.13393e-09
-7.63784e-09
-1.28449e-08
1.02278e-09
-6.90814e-10
1.5307e-08
1.49322e-08
2.00164e-08
1.28859e-08
4.37924e-09
2.75583e-09
-8.96165e-09
-2.39807e-08
-2.54264e-08
-8.20016e-09
-4.35411e-09
1.29587e-09
1.18817e-08
-3.19863e-09
-7.14221e-09
)
;
    }
    inlet
    {
        type            calculated;
        value           nonuniform List<scalar> 
20
(
7.13393e-09
-2.10095e-09
-1.63229e-08
-1.73302e-08
-8.71028e-09
1.84098e-09
8.32818e-09
1.00573e-08
7.01952e-09
4.75383e-09
6.84772e-09
1.02198e-08
1.04055e-08
1.27129e-09
-1.04509e-08
-1.47149e-08
-7.40877e-09
2.22242e-09
3.73714e-09
-1.57913e-09
)
;
    }
    outlet
    {
        type            calculated;
        value           uniform 0;
    }
    frontAndBack
    {
        type            empty;
    }
}


// ************************************************************************* //
