/*--------------------------------*- C++ -*----------------------------------*\
  =========                 |
  \\      /  F ield         | OpenFOAM: The Open Source CFD Toolbox
   \\    /   O peration     | Website:  https://openfoam.org
    \\  /    A nd           | Version:  9
     \\/     M anipulation  |
\*---------------------------------------------------------------------------*/
FoamFile
{
    format      ascii;
    class       volVectorField;
    location    "95";
    object      ddtCorrDdt0(hU);
}
// * * * * * * * * * * * * * * * * * * * * * * * * * * * * * * * * * * * * * //

dimensions      [0 2 -2 0 0 0 0];

internalField   nonuniform List<vector> 
400
(
(1.66062e-11 -4.74446e-10 0)
(2.37477e-10 1.22564e-09 0)
(1.95776e-09 2.12142e-10 0)
(3.93215e-09 -5.9665e-10 0)
(2.70085e-09 -1.45694e-09 0)
(-3.22128e-10 -1.66475e-09 0)
(-4.38711e-09 -1.84683e-09 0)
(-3.50921e-09 5.5375e-11 0)
(-1.24505e-09 8.76524e-10 0)
(-8.95249e-10 2.88866e-09 0)
(-3.48874e-10 4.06437e-09 0)
(-6.21274e-11 3.02849e-09 0)
(-4.43259e-10 4.52433e-09 0)
(-2.22147e-09 3.54844e-09 0)
(-3.22447e-09 3.52415e-09 0)
(-2.67212e-09 2.65827e-09 0)
(-1.05766e-10 1.96387e-09 0)
(3.23032e-09 2.07021e-09 0)
(2.98999e-09 1.95148e-09 0)
(3.19282e-09 1.22733e-09 0)
(6.85554e-10 4.66546e-10 0)
(1.27908e-09 2.86603e-09 0)
(1.3662e-09 2.77648e-10 0)
(2.25407e-09 -1.80577e-09 0)
(2.19315e-09 -3.64001e-09 0)
(-7.60891e-10 -4.91947e-09 0)
(-2.47121e-09 -3.36604e-09 0)
(-2.40641e-09 1.0986e-09 0)
(-1.02948e-09 6.4137e-09 0)
(1.45777e-09 6.36101e-09 0)
(-3.38311e-09 9.91587e-09 0)
(1.09598e-09 7.32951e-09 0)
(-2.00849e-10 8.55972e-09 0)
(-3.07784e-09 8.97276e-09 0)
(-4.46284e-09 7.99291e-09 0)
(-5.1143e-09 7.10311e-09 0)
(-1.4455e-09 5.78377e-09 0)
(2.45141e-09 4.68512e-09 0)
(3.31194e-09 4.10119e-09 0)
(1.299e-09 2.01962e-09 0)
(6.87565e-12 2.32161e-09 0)
(1.20845e-09 2.59664e-09 0)
(-1.6443e-10 3.11285e-11 0)
(1.35703e-10 -2.08468e-09 0)
(4.29187e-10 -4.39452e-09 0)
(1.10191e-10 -6.17347e-09 0)
(-2.31457e-10 -1.03983e-09 0)
(2.21672e-09 4.82527e-09 0)
(-1.80754e-09 1.04951e-08 0)
(1.68479e-09 6.02373e-09 0)
(-2.41845e-10 3.09565e-09 0)
(-2.16816e-09 7.88648e-09 0)
(5.75023e-09 -4.52599e-10 0)
(-6.9357e-10 3.91582e-09 0)
(-5.2319e-09 6.93627e-09 0)
(-5.54287e-09 8.10464e-09 0)
(-3.96861e-09 7.85445e-09 0)
(-6.1552e-10 5.62421e-09 0)
(1.01497e-09 3.76469e-09 0)
(-1.19808e-09 1.43355e-09 0)
(-4.79214e-10 2.70193e-09 0)
(3.37227e-11 7.85524e-10 0)
(-1.52167e-09 -6.08868e-10 0)
(-2.34037e-09 -9.29357e-10 0)
(-9.47263e-10 -3.52881e-09 0)
(8.22705e-10 -2.70821e-09 0)
(4.79762e-09 1.88247e-09 0)
(2.05862e-09 9.49433e-09 0)
(3.69807e-09 -3.09949e-09 0)
(-9.74494e-09 4.79778e-09 0)
(1.14238e-08 -9.4614e-09 0)
(-2.83433e-09 -4.26621e-09 0)
(2.2193e-09 -5.47756e-09 0)
(1.42903e-08 -1.23892e-08 0)
(2.64296e-09 -3.85489e-09 0)
(-3.28976e-09 4.11361e-09 0)
(-4.05769e-09 6.09264e-09 0)
(-2.73685e-09 4.21977e-09 0)
(-5.91125e-10 1.41409e-09 0)
(-2.53223e-09 2.47279e-10 0)
(-1.10529e-09 1.73429e-09 0)
(-1.34674e-09 -1.02706e-09 0)
(-2.39648e-09 -1.12191e-09 0)
(-3.37095e-09 3.73974e-10 0)
(-1.69366e-09 -1.62764e-10 0)
(2.51521e-09 1.04868e-09 0)
(7.2377e-09 5.71554e-09 0)
(-1.20444e-09 -2.94029e-09 0)
(2.57691e-09 -9.05754e-09 0)
(-1.05552e-10 -1.23694e-08 0)
(-1.63817e-08 -5.54713e-11 0)
(1.63648e-08 -1.88999e-08 0)
(-6.37126e-09 -5.21405e-09 0)
(4.98357e-09 -9.80664e-09 0)
(1.93117e-08 -1.27687e-08 0)
(7.99008e-09 -4.98973e-09 0)
(-2.70319e-09 2.73907e-10 0)
(-4.44143e-09 6.33749e-11 0)
(-1.75759e-09 -2.06559e-09 0)
(-1.70309e-09 -1.53004e-09 0)
(-1.29017e-09 -5.74994e-10 0)
(-2.1403e-09 -2.00012e-09 0)
(-2.10011e-09 -4.88073e-10 0)
(-2.8728e-09 2.10961e-09 0)
(-1.65354e-09 2.4486e-09 0)
(4.51232e-09 3.16162e-09 0)
(2.09241e-10 2.75885e-10 0)
(3.74762e-09 -1.26902e-08 0)
(-1.54141e-08 -4.92348e-09 0)
(1.578e-08 -1.21866e-08 0)
(-1.218e-08 -3.76114e-11 0)
(-1.40231e-08 1.6628e-08 0)
(1.4952e-08 -7.68596e-09 0)
(-4.01717e-09 -9.06485e-10 0)
(5.18908e-09 -4.15529e-09 0)
(1.30945e-08 -6.95329e-09 0)
(3.40613e-09 -4.59474e-09 0)
(-3.75333e-09 -3.7794e-09 0)
(-2.12253e-09 -4.63086e-09 0)
(5.95796e-10 -2.48628e-09 0)
(-6.92924e-10 -2.92922e-09 0)
(-1.42307e-09 -2.26312e-09 0)
(-7.39912e-10 9.01907e-10 0)
(-1.80249e-09 3.13631e-09 0)
(-8.07695e-10 3.07391e-09 0)
(7.09961e-10 4.18856e-10 0)
(9.42101e-10 -5.59416e-09 0)
(-5.93548e-09 -3.02396e-09 0)
(6.15581e-09 -5.80666e-09 0)
(-3.08986e-08 3.27797e-08 0)
(5.96512e-08 -1.17611e-07 0)
(-2.32092e-08 2.16081e-08 0)
(-3.47716e-08 1.34159e-08 0)
(5.04528e-09 2.55413e-09 0)
(3.94236e-09 5.13356e-09 0)
(4.48257e-09 7.88869e-10 0)
(1.145e-09 -2.81878e-09 0)
(-4.38282e-09 -4.39968e-09 0)
(-2.34281e-09 -4.67657e-09 0)
(3.11137e-09 -2.11896e-09 0)
(4.91625e-10 -3.66141e-09 0)
(3.19462e-10 -1.82405e-09 0)
(9.73678e-10 1.46821e-09 0)
(-7.07403e-10 2.0024e-09 0)
(-2.31859e-09 1.66543e-09 0)
(1.6977e-10 -2.28793e-09 0)
(-6.49635e-10 -4.50937e-09 0)
(-1.9618e-09 6.70636e-09 0)
(1.64144e-08 1.40011e-08 0)
(-1.1791e-07 -1.55484e-08 0)
(4.3912e-07 1.24438e-07 0)
(1.65505e-07 -2.31752e-08 0)
(-2.15954e-08 -1.80656e-09 0)
(-1.47347e-08 9.35328e-09 0)
(2.75749e-09 9.36871e-09 0)
(1.03211e-09 7.61702e-09 0)
(-4.39445e-09 1.41083e-09 0)
(-7.93307e-09 -1.64427e-09 0)
(-3.63714e-09 -1.7844e-09 0)
(3.87867e-09 -3.53978e-10 0)
(1.37942e-09 -2.3704e-09 0)
(2.06058e-09 -7.77036e-10 0)
(1.75946e-09 3.68729e-10 0)
(-4.87763e-10 -7.02167e-10 0)
(-2.80086e-09 1.12555e-10 0)
(-1.80761e-09 7.27113e-10 0)
(3.61813e-09 -4.33281e-10 0)
(6.27573e-09 4.59645e-09 0)
(-1.36792e-08 1.11406e-08 0)
(1.18736e-07 -2.08728e-08 0)
(-4.39849e-07 1.16438e-07 0)
(-1.68324e-07 -2.77537e-08 0)
(2.26776e-08 -1.86635e-09 0)
(2.28053e-08 5.86263e-09 0)
(8.12652e-09 3.92743e-09 0)
(-3.07033e-09 2.30795e-09 0)
(-8.39164e-09 5.83373e-10 0)
(-9.80518e-09 3.36621e-10 0)
(-4.51472e-09 2.18119e-09 0)
(-6.29087e-10 1.25908e-09 0)
(1.77671e-09 -2.62536e-10 0)
(2.35222e-09 1.82632e-12 0)
(1.48706e-09 -1.00806e-09 0)
(-1.95274e-10 -2.91729e-09 0)
(-1.43399e-09 5.88878e-10 0)
(-5.19096e-10 5.28058e-09 0)
(1.49378e-09 2.34027e-09 0)
(6.05248e-09 -4.70736e-09 0)
(-7.48523e-09 -1.2199e-08 0)
(3.1196e-08 2.50014e-08 0)
(-5.8371e-08 -1.31638e-07 0)
(2.51458e-08 2.35595e-08 0)
(3.65926e-08 1.13939e-08 0)
(-2.14678e-09 -5.01082e-10 0)
(1.64525e-09 -4.04653e-09 0)
(-6.4198e-10 -9.19032e-09 0)
(-7.11713e-09 -6.61724e-09 0)
(-4.83963e-09 -1.75959e-09 0)
(-2.30453e-09 2.32879e-09 0)
(4.41708e-09 1.58279e-09 0)
(1.56935e-09 1.30609e-09 0)
(1.57436e-09 2.16031e-10 0)
(5.26901e-10 -1.36241e-09 0)
(7.42944e-10 -1.95841e-09 0)
(1.24242e-09 3.97637e-10 0)
(-1.0445e-09 5.33846e-09 0)
(-5.43192e-10 2.93943e-09 0)
(-6.23083e-09 -7.80255e-09 0)
(1.56314e-08 -8.25289e-09 0)
(-4.28355e-08 -1.03577e-08 0)
(1.0586e-08 8.90071e-08 0)
(3.93172e-08 -1.45844e-08 0)
(-2.44197e-08 -6.27409e-09 0)
(2.60959e-10 -2.80482e-09 0)
(-8.95092e-09 -7.42908e-09 0)
(-8.36325e-09 -1.0734e-08 0)
(6.3246e-10 -7.049e-09 0)
(4.25516e-09 -1.67508e-09 0)
(2.38288e-09 6.74163e-10 0)
(1.62781e-09 9.79014e-10 0)
(9.92918e-10 1.98123e-09 0)
(2.06485e-10 2.5444e-10 0)
(3.1819e-10 -7.44469e-10 0)
(1.158e-09 3.27336e-10 0)
(2.40704e-09 3.68847e-10 0)
(-4.9851e-11 -1.13484e-09 0)
(-4.44141e-09 2.25853e-09 0)
(-3.47013e-09 -9.84191e-11 0)
(-1.02804e-08 2.6339e-09 0)
(1.48957e-07 -1.28344e-08 0)
(-4.93723e-07 -6.84748e-08 0)
(-1.14427e-07 1.50858e-08 0)
(4.44477e-08 -4.58642e-09 0)
(-9.12797e-09 -4.3987e-09 0)
(-1.31046e-08 -5.21269e-09 0)
(-1.38099e-09 -2.60857e-10 0)
(7.6878e-09 1.78767e-09 0)
(6.86776e-09 2.34761e-09 0)
(3.19565e-09 1.56296e-09 0)
(1.68182e-09 5.58557e-10 0)
(-4.96148e-11 2.34797e-09 0)
(-9.52263e-10 8.03487e-10 0)
(5.48899e-10 -4.95455e-10 0)
(1.76941e-09 1.15781e-09 0)
(9.42383e-10 3.43608e-10 0)
(-2.49522e-10 -4.1176e-09 0)
(-3.2784e-09 -3.96566e-09 0)
(1.27332e-10 7.70932e-09 0)
(6.68582e-11 5.20928e-09 0)
(-1.45721e-07 8.13926e-09 0)
(5.34234e-07 -8.44592e-08 0)
(9.38385e-08 2.48276e-08 0)
(-4.1209e-08 1.26905e-09 0)
(-3.27876e-09 -1.04554e-09 0)
(-1.79999e-09 4.65292e-09 0)
(1.9393e-09 7.50494e-09 0)
(3.59144e-09 5.19565e-09 0)
(3.25838e-09 3.84198e-09 0)
(1.09714e-09 2.50822e-09 0)
(3.27009e-10 7.29331e-10 0)
(-1.60094e-09 2.67097e-09 0)
(-2.03362e-09 1.99871e-09 0)
(4.94735e-10 -9.78235e-10 0)
(2.09482e-09 -9.2132e-10 0)
(2.86974e-10 -2.84726e-10 0)
(-1.63936e-09 -2.04965e-09 0)
(-1.67459e-10 -4.94186e-09 0)
(1.72032e-09 9.14738e-10 0)
(-5.57889e-09 3.20637e-09 0)
(3.42892e-08 1.18148e-08 0)
(-4.07004e-08 1.0028e-07 0)
(-1.2755e-08 -2.26385e-08 0)
(1.29689e-08 4.51817e-09 0)
(-1.62346e-09 5.16292e-09 0)
(2.03354e-09 6.43686e-09 0)
(-4.70487e-10 3.10837e-09 0)
(-5.88519e-10 1.86407e-09 0)
(6.51334e-10 2.5704e-09 0)
(-1.45267e-10 2.71512e-09 0)
(-8.87735e-10 1.1136e-09 0)
(-2.89219e-09 2.01176e-09 0)
(-3.17226e-09 2.83345e-09 0)
(-8.99871e-10 -8.27865e-10 0)
(1.82857e-09 -3.90685e-09 0)
(8.52038e-10 -2.05616e-09 0)
(-2.02781e-09 1.22839e-09 0)
(7.91614e-12 2.60043e-10 0)
(7.99648e-11 -4.67778e-09 0)
(7.27224e-09 7.80865e-10 0)
(-6.69211e-09 7.62082e-10 0)
(4.34371e-09 -1.68261e-08 0)
(2.15124e-09 1.11966e-08 0)
(-5.32603e-09 1.47488e-09 0)
(3.7596e-09 3.02207e-09 0)
(-3.60783e-09 -8.05252e-10 0)
(-5.96683e-09 -3.09512e-09 0)
(-8.55796e-10 -1.65843e-09 0)
(2.52936e-09 1.04666e-09 0)
(1.6782e-09 3.132e-09 0)
(-1.22783e-09 1.88925e-09 0)
(-2.56321e-09 -1.90478e-10 0)
(-3.56413e-09 2.23129e-09 0)
(-3.07891e-09 1.07212e-09 0)
(1.08496e-10 -3.54597e-09 0)
(2.06917e-09 -3.84118e-09 0)
(-1.15215e-10 1.78367e-09 0)
(-1.17066e-09 6.03691e-09 0)
(1.62035e-09 7.17206e-10 0)
(-5.31064e-10 -2.57217e-09 0)
(-2.04362e-09 -5.27485e-09 0)
(5.84417e-09 -1.5218e-09 0)
(-1.32387e-09 -7.13328e-09 0)
(1.41194e-09 -1.74029e-09 0)
(-5.05705e-09 -5.54231e-09 0)
(-8.9024e-09 -7.90796e-09 0)
(-3.41967e-09 -4.87777e-09 0)
(4.47285e-09 -1.46626e-09 0)
(7.55601e-09 7.31472e-10 0)
(4.63537e-09 2.95409e-09 0)
(-2.49942e-09 2.0411e-09 0)
(-4.8075e-10 -2.58623e-09 0)
(-2.42781e-09 -1.78084e-10 0)
(-4.02786e-09 3.1214e-09 0)
(-2.26538e-09 7.53462e-10 0)
(2.03809e-09 -2.20188e-09 0)
(1.97386e-09 -9.42186e-10 0)
(4.97535e-10 4.98874e-09 0)
(-2.00748e-10 4.99131e-09 0)
(6.20345e-10 -6.98409e-10 0)
(9.78859e-10 2.41031e-10 0)
(-1.84161e-09 -6.04761e-10 0)
(-1.13993e-09 -1.78965e-09 0)
(-3.33356e-09 -4.65635e-09 0)
(-6.28171e-09 -6.65268e-09 0)
(-3.59203e-09 -4.3035e-09 0)
(4.20568e-09 -1.83871e-10 0)
(9.92505e-09 1.23302e-09 0)
(9.98849e-09 1.13892e-10 0)
(4.56238e-09 -3.46081e-11 0)
(-4.85443e-09 1.10897e-10 0)
(1.33568e-09 -3.78862e-09 0)
(-8.61038e-11 -2.86829e-09 0)
(-2.3672e-09 2.80221e-09 0)
(-2.68839e-09 5.72731e-09 0)
(2.66421e-10 2.56712e-09 0)
(2.02963e-09 -1.72179e-09 0)
(1.01135e-09 -1.52296e-09 0)
(1.62087e-10 5.56979e-10 0)
(1.29359e-09 -2.27496e-10 0)
(1.22443e-09 -3.61648e-10 0)
(4.41622e-11 1.76221e-09 0)
(-1.93468e-09 1.59477e-09 0)
(-3.27136e-09 2.13918e-10 0)
(-2.16685e-09 1.6154e-09 0)
(2.42565e-09 4.16201e-09 0)
(7.77179e-09 4.4912e-09 0)
(8.40371e-09 1.53692e-09 0)
(5.88804e-09 -2.72181e-09 0)
(8.49644e-10 -5.47175e-09 0)
(-5.64369e-09 -3.2859e-09 0)
(1.57072e-09 -3.8507e-09 0)
(2.52704e-09 -3.78638e-09 0)
(1.35841e-09 1.12725e-09 0)
(-3.57663e-10 7.07425e-09 0)
(-1.22504e-09 5.70321e-09 0)
(-6.10475e-10 2.50357e-10 0)
(-7.619e-10 -4.96599e-09 0)
(-9.99785e-12 -4.72041e-09 0)
(1.13394e-09 -4.72505e-09 0)
(2.94312e-09 -3.34942e-09 0)
(1.3453e-09 -1.61983e-09 0)
(-2.15609e-09 -4.35152e-10 0)
(-2.14498e-09 1.8047e-09 0)
(-1.31893e-10 4.48177e-09 0)
(2.5466e-09 6.29585e-09 0)
(2.19913e-09 3.35966e-09 0)
(-2.76316e-10 -1.48235e-09 0)
(-2.22553e-09 -5.56133e-09 0)
(-3.99261e-09 -8.52926e-09 0)
(-3.01999e-09 -4.94882e-09 0)
(1.10676e-09 -1.83189e-09 0)
(4.7076e-09 -1.80191e-09 0)
(4.73154e-09 1.61856e-10 0)
(2.38882e-09 3.20187e-09 0)
(-1.6265e-09 3.0141e-09 0)
(-3.21896e-09 6.99808e-10 0)
(-2.9309e-09 -2.37505e-09 0)
(-1.13216e-09 -2.97377e-09 0)
(8.3017e-10 -3.19063e-09 0)
(2.29156e-09 -2.50597e-09 0)
(2.28397e-11 -2.75275e-09 0)
(-1.01208e-09 -1.50813e-09 0)
(-1.38898e-09 2.11315e-10 0)
(6.91621e-11 1.67965e-09 0)
(-2.9565e-10 2.37619e-09 0)
(-4.67204e-09 5.65836e-10 0)
(-7.15946e-09 -1.70556e-09 0)
(-7.24916e-09 -3.20293e-09 0)
(-5.82387e-09 -4.29886e-09 0)
(1.02689e-09 -2.40407e-09 0)
)
;

boundaryField
{
    sides
    {
        type            calculated;
        value           nonuniform List<vector> 
40
(
(1.10676e-09 0 0)
(4.7076e-09 0 0)
(4.73154e-09 0 0)
(2.38882e-09 0 0)
(-1.6265e-09 0 0)
(-3.21896e-09 0 0)
(-2.9309e-09 0 0)
(-1.13216e-09 0 0)
(8.3017e-10 0 0)
(2.29156e-09 0 0)
(2.28397e-11 0 0)
(-1.01208e-09 0 0)
(-1.38898e-09 0 0)
(6.91621e-11 0 0)
(-2.9565e-10 0 0)
(-4.67204e-09 0 0)
(-7.15946e-09 0 0)
(-7.24916e-09 0 0)
(-5.82387e-09 0 0)
(1.02689e-09 0 0)
(1.66062e-11 0 0)
(2.37477e-10 0 0)
(1.95776e-09 0 0)
(3.93215e-09 0 0)
(2.70085e-09 0 0)
(-3.22128e-10 0 0)
(-4.38711e-09 0 0)
(-3.50921e-09 0 0)
(-1.24505e-09 0 0)
(-8.95249e-10 0 0)
(-3.48874e-10 0 0)
(-6.21274e-11 0 0)
(-4.43259e-10 0 0)
(-2.22147e-09 0 0)
(-3.22447e-09 0 0)
(-2.67212e-09 0 0)
(-1.05766e-10 0 0)
(3.23032e-09 0 0)
(2.98999e-09 0 0)
(3.19282e-09 0 0)
)
;
    }
    inlet
    {
        type            calculated;
        value           uniform (0 0 0);
    }
    outlet
    {
        type            calculated;
        value           nonuniform List<vector> 
20
(
(3.19282e-09 1.22733e-09 0)
(1.299e-09 2.01962e-09 0)
(-1.19808e-09 1.43355e-09 0)
(-2.53223e-09 2.47279e-10 0)
(-1.70309e-09 -1.53004e-09 0)
(5.95796e-10 -2.48628e-09 0)
(3.11137e-09 -2.11896e-09 0)
(3.87867e-09 -3.53978e-10 0)
(-6.29087e-10 1.25908e-09 0)
(4.41708e-09 1.58279e-09 0)
(1.62781e-09 9.79014e-10 0)
(1.68182e-09 5.58557e-10 0)
(3.27009e-10 7.29331e-10 0)
(-8.87735e-10 1.1136e-09 0)
(-1.22783e-09 1.88925e-09 0)
(-2.49942e-09 2.0411e-09 0)
(-4.85443e-09 1.10897e-10 0)
(-5.64369e-09 -3.2859e-09 0)
(-3.01999e-09 -4.94882e-09 0)
(1.02689e-09 -2.40407e-09 0)
)
;
    }
    frontAndBack
    {
        type            empty;
    }
}


// ************************************************************************* //
