/*--------------------------------*- C++ -*----------------------------------*\
  =========                 |
  \\      /  F ield         | OpenFOAM: The Open Source CFD Toolbox
   \\    /   O peration     | Website:  https://openfoam.org
    \\  /    A nd           | Version:  9
     \\/     M anipulation  |
\*---------------------------------------------------------------------------*/
FoamFile
{
    format      ascii;
    class       surfaceScalarField;
    location    "95";
    object      ddtCorrDdt0(phi);
}
// * * * * * * * * * * * * * * * * * * * * * * * * * * * * * * * * * * * * * //

dimensions      [0 4 -2 0 0 0 0];

internalField   nonuniform List<scalar> 
760
(
-7.38662e-12
1.73467e-12
1.34938e-11
1.33444e-11
1.19415e-11
-2.4819e-12
2.33191e-11
-7.3407e-12
7.88034e-12
-1.51596e-11
-1.62693e-11
-1.47086e-11
-2.73648e-11
-1.84481e-11
-1.0428e-11
5.8044e-12
-1.49359e-12
1.45688e-11
-5.56516e-12
3.4221e-11
-1.62539e-12
4.30584e-11
2.01371e-13
2.99382e-11
1.15595e-12
4.86679e-11
-1.79864e-11
3.54825e-11
-1.929e-11
3.57773e-11
-7.41754e-12
2.73235e-11
7.68909e-12
1.99548e-11
1.72216e-11
1.95601e-11
1.60804e-11
1.79748e-11
6.63157e-12
1.06212e-11
1.09601e-11
5.72894e-12
1.71264e-11
6.11375e-12
-4.17511e-13
1.65809e-11
-1.31618e-11
6.97477e-12
-2.18565e-11
-1.75689e-11
-3.30761e-11
-1.20657e-11
-1.42301e-11
-1.16302e-11
1.2493e-11
8.65995e-12
6.27542e-11
-3.42429e-12
3.09261e-11
-1.63737e-11
6.39711e-11
1.40224e-11
3.09565e-11
-9.08895e-12
3.54278e-11
-1.87376e-11
5.22361e-11
-3.06382e-11
4.36359e-11
-1.83469e-11
4.2501e-11
5.99876e-12
3.80384e-11
1.61351e-11
2.83605e-11
1.36229e-11
2.05996e-11
1.10783e-11
1.84912e-11
1.37854e-11
-6.58122e-12
9.52505e-12
-3.68737e-12
-4.35622e-13
8.3927e-12
-9.09265e-12
-3.16965e-12
-2.28343e-11
-4.31593e-12
-2.90524e-11
3.56241e-12
6.23953e-12
1.91179e-11
4.28642e-11
-1.96667e-11
5.10273e-11
2.37028e-11
2.3302e-11
-2.96976e-11
-4.31166e-11
2.26545e-11
3.17094e-11
1.84541e-11
-4.8769e-11
-2.22363e-11
-1.74207e-11
-2.9307e-11
1.94311e-11
-2.63033e-11
3.33682e-11
-1.03919e-11
3.51833e-11
8.04992e-12
2.48504e-11
-1.40237e-12
1.33515e-11
3.40668e-12
1.3736e-11
1.3155e-11
-1.42796e-11
-2.69321e-12
-1.19997e-11
-6.09686e-12
-4.84407e-12
-4.72305e-13
-1.3633e-11
-1.28692e-11
2.16903e-11
3.36689e-12
2.3959e-11
1.65493e-11
3.29248e-11
5.97262e-11
-3.81793e-11
-8.64472e-11
-8.33198e-12
1.68737e-11
5.83093e-11
-5.85547e-11
-4.62042e-11
-8.1319e-11
7.04113e-11
-1.43135e-11
4.13768e-11
-1.04277e-10
-6.65482e-12
-6.54605e-11
-1.90194e-11
3.97263e-13
-1.80243e-11
1.81852e-11
-4.30219e-12
8.67819e-12
-7.535e-12
-3.10437e-12
-3.95135e-12
-1.65323e-12
3.94868e-12
-1.7261e-11
-9.37614e-12
-9.95149e-12
-6.0194e-12
-2.19105e-11
4.44178e-12
-3.48469e-12
1.26105e-11
2.75591e-11
9.59466e-12
7.3097e-11
4.51972e-11
-8.5759e-11
-1.013e-10
8.89994e-11
-7.12202e-12
-1.17898e-10
-1.70598e-10
4.05534e-11
1.09412e-10
3.16991e-11
-1.01805e-10
-4.19218e-11
-4.05981e-11
8.75027e-11
2.43198e-11
7.80566e-11
-4.81301e-11
7.37582e-12
-4.92212e-11
-2.23797e-11
-1.85392e-11
-1.62846e-11
-1.34155e-11
-8.57952e-12
-1.9817e-11
-1.12297e-11
-1.4665e-11
-9.95585e-12
-1.42978e-11
-1.14915e-11
-5.17481e-12
8.76347e-13
-1.9677e-11
1.73729e-11
-9.18678e-12
1.34961e-11
6.95106e-11
2.44546e-11
-3.34553e-11
-4.75103e-11
-1.2571e-11
-3.55307e-11
-4.79047e-11
-4.92495e-11
1.04635e-10
8.96497e-11
-1.74136e-10
-5.97235e-11
7.53873e-11
3.49932e-10
7.48175e-12
-1.82217e-12
-1.4737e-11
-8.57985e-12
6.81159e-11
3.25976e-11
4.6911e-11
-6.61333e-12
-8.69666e-12
-2.36059e-11
-2.17935e-11
-2.49657e-11
-3.74773e-12
-2.63742e-11
-1.26894e-11
-1.60023e-11
-1.91938e-11
-5.71674e-12
-9.90961e-12
7.39038e-12
9.44403e-12
-2.41396e-11
1.52087e-11
7.82131e-12
1.68431e-11
2.25084e-11
-2.4093e-11
-3.51293e-11
-1.33324e-11
-8.16666e-12
4.0472e-12
-4.45824e-11
-4.98367e-12
2.72146e-11
3.38955e-10
2.22666e-10
-1.84508e-09
-2.86139e-10
-1.58448e-10
-2.70743e-11
1.65349e-10
2.50122e-11
4.63588e-11
2.16862e-11
2.53659e-11
2.15027e-11
1.59638e-11
-1.19106e-11
2.7391e-13
-2.73133e-11
-7.91855e-12
2.59394e-12
-1.68182e-11
-6.63966e-12
-7.24143e-12
-1.63027e-11
8.87939e-12
-5.56749e-12
1.20064e-11
7.25765e-12
-1.56438e-11
4.91962e-12
-2.03932e-11
-3.08131e-12
2.33006e-11
-4.2803e-12
-1.12584e-11
-2.53444e-11
-6.63949e-11
1.0061e-10
2.73119e-10
7.51365e-11
-2.87238e-10
-5.39502e-10
2.47805e-09
1.57949e-08
7.05611e-11
-1.5713e-11
-1.37394e-10
-1.8401e-10
-6.69944e-12
4.93276e-12
1.48423e-11
3.38287e-11
-5.50772e-12
1.82384e-11
-3.7305e-11
8.63243e-13
-3.79692e-11
4.98691e-12
3.65435e-12
4.43263e-12
7.7874e-12
4.43525e-12
-5.63257e-12
1.83672e-11
-2.07125e-13
1.20485e-11
-3.10053e-12
-1.84496e-11
-1.28144e-11
-2.04291e-11
4.29211e-12
-9.63525e-12
1.22919e-11
5.21179e-11
3.34949e-11
6.90564e-11
-5.32683e-11
-2.59251e-10
-1.71027e-11
2.83213e-10
2.72492e-10
-2.48841e-09
-1.63813e-09
-7.87334e-11
-1.92105e-10
1.59944e-10
1.78813e-10
6.27514e-11
6.68143e-11
1.69876e-11
-4.69402e-12
-3.73752e-11
-3.10942e-11
-4.73639e-11
1.52303e-09
-4.37011e-11
-5.70244e-12
-6.52926e-12
8.11548e-12
-6.13617e-11
1.17607e-11
4.0597e-12
1.71201e-11
4.68074e-13
2.782e-12
-8.31012e-12
-5.63077e-12
-1.73294e-11
-1.57871e-11
7.39288e-12
3.62842e-12
4.46902e-11
2.67783e-11
-1.66426e-11
1.24825e-11
-3.02714e-11
3.41986e-11
-9.38949e-11
-1.4365e-11
1.33788e-10
-2.29452e-10
-4.50794e-10
3.21565e-10
3.70054e-10
1.69415e-11
-1.05544e-11
4.87284e-12
1.70851e-11
8.2018e-12
-8.61694e-12
-2.02191e-11
-5.18335e-11
-3.91274e-11
-5.29809e-11
-1.45577e-11
-1.85517e-11
4.65894e-12
-1.03126e-13
7.27952e-12
9.25883e-12
7.67513e-12
1.14749e-11
7.42845e-13
-6.37159e-12
-6.33092e-12
7.7063e-12
-2.07755e-12
1.88602e-11
-4.71781e-13
-3.0066e-11
1.59559e-11
-1.63643e-12
3.20428e-11
-1.59807e-11
-7.65699e-11
6.78262e-11
3.92118e-11
-3.62592e-10
-3.05145e-10
4.46539e-10
4.15181e-09
-1.43268e-10
-4.16496e-10
-2.11448e-11
-9.6122e-12
-1.92208e-11
1.96311e-11
-5.64172e-11
-3.27732e-11
-1.77258e-11
-5.41054e-11
1.45893e-11
-2.06121e-11
1.89267e-11
-2.2331e-13
1.02466e-11
1.72862e-12
1.8503e-12
1.26764e-13
9.93976e-12
5.63309e-12
6.17251e-13
-3.04207e-12
-1.61951e-14
9.55084e-12
6.43479e-12
2.48644e-11
1.87723e-12
-9.51122e-12
-2.67567e-11
-6.29054e-11
6.00176e-12
2.35154e-11
5.28887e-11
-6.69813e-12
-4.61048e-11
6.25048e-11
1.31122e-10
-2.48988e-09
-3.47425e-08
2.60615e-10
5.53135e-10
3.5591e-11
-4.76965e-11
-6.74517e-11
-3.90168e-11
-4.46439e-11
-6.36702e-12
2.61994e-11
7.83585e-12
3.85049e-11
3.1279e-11
2.38131e-11
2.40081e-11
1.24988e-11
1.36471e-11
3.98059e-12
-1.18794e-11
1.32257e-11
3.35622e-12
7.11895e-12
5.49379e-12
-3.1784e-12
1.07934e-11
6.18687e-12
1.61826e-12
-1.09003e-12
-5.53635e-12
-2.10235e-11
-2.20572e-11
-3.16344e-11
4.91009e-12
4.096e-11
-1.06905e-10
3.09352e-11
1.72649e-10
-7.17334e-11
2.45718e-09
2.83346e-09
-2.73311e-10
-3.38688e-10
-4.5944e-11
3.72746e-11
-2.41225e-11
3.17942e-12
4.69676e-12
2.97983e-11
1.26588e-11
2.60625e-11
2.01034e-11
2.41624e-11
8.66626e-12
2.11391e-11
3.20653e-12
1.50502e-11
4.58179e-12
-1.93324e-11
1.45306e-11
-6.38301e-12
1.33721e-11
1.61271e-11
-6.66562e-12
1.04726e-11
-1.48277e-11
-1.12317e-11
-2.04714e-12
-2.05808e-11
-1.8725e-12
3.21399e-11
-2.17775e-11
-1.58724e-11
-2.74623e-11
1.61497e-11
1.69645e-11
1.47023e-10
1.37677e-10
-3.37681e-10
-2.80063e-10
1.16692e-10
1.76516e-10
-1.32916e-12
1.22661e-11
8.89295e-12
4.18393e-11
1.18362e-12
3.25103e-11
-4.95551e-12
4.55395e-12
5.83406e-12
-9.54943e-13
-1.47187e-12
8.03222e-12
-4.97014e-12
1.27195e-11
6.29202e-12
-1.9973e-11
6.57335e-12
-2.2099e-11
1.53338e-11
9.56132e-12
-2.87299e-12
2.10891e-11
-2.56456e-11
-8.77429e-12
-1.65079e-11
-3.08166e-11
1.79012e-11
2.05089e-11
2.13276e-11
2.02811e-11
-2.53164e-11
1.87165e-11
-4.63098e-12
-4.57788e-11
-6.82904e-11
5.99255e-11
2.02301e-10
-4.77495e-11
-4.93278e-11
1.66482e-11
1.39708e-11
2.29012e-12
2.67237e-12
-3.44483e-11
-2.86933e-11
-1.64646e-11
-2.85718e-11
1.35047e-11
-1.59678e-11
8.93663e-12
2.47936e-13
-3.04039e-12
1.53527e-11
1.0592e-11
-1.02578e-11
-8.42806e-12
-3.49618e-11
6.96083e-12
-1.04191e-11
1.28551e-11
2.21986e-11
-1.21378e-11
1.43277e-11
-2.12021e-11
-2.36001e-11
6.08394e-12
-8.91999e-12
4.28788e-11
3.513e-11
2.81674e-11
-2.59199e-11
-2.20285e-11
1.38477e-11
-6.67818e-12
9.79792e-12
-1.3734e-11
2.86972e-12
-2.68641e-11
-5.17362e-12
-3.43521e-11
-4.28862e-11
-5.5439e-11
-3.56762e-11
-4.56637e-11
5.12858e-12
-2.18658e-11
3.91374e-11
-6.65455e-12
3.36268e-11
1.97618e-13
6.65872e-13
1.08022e-11
8.23656e-12
4.29249e-12
-1.79524e-11
-2.82413e-11
-8.93946e-12
-3.14624e-11
1.91642e-11
1.02373e-11
1.88853e-11
2.71067e-11
-2.3033e-12
3.25409e-12
-1.40535e-11
-1.53219e-11
1.12052e-11
6.73434e-12
2.58535e-11
8.25844e-12
1.44876e-11
-3.44644e-12
1.26603e-12
-8.74888e-12
-1.75122e-11
-6.49142e-12
-2.87802e-12
-2.99725e-11
-1.96872e-11
-2.90343e-11
-1.51042e-11
3.2597e-12
3.77585e-13
3.73472e-11
1.5244e-11
5.44505e-11
1.15639e-11
4.44085e-11
-4.52531e-12
-3.87793e-12
-1.21827e-11
-6.67047e-12
1.24944e-11
-1.94642e-11
-5.0442e-12
-1.94971e-11
-2.99412e-11
1.15698e-11
-4.73436e-12
4.01967e-11
1.55501e-11
2.41432e-11
1.86091e-11
-1.05872e-11
-9.2367e-12
-3.04123e-11
3.82143e-13
-1.61176e-11
8.89348e-12
-9.06111e-12
6.40939e-12
-9.00996e-14
-3.3246e-12
3.76279e-12
-1.76396e-11
1.30612e-11
-1.67381e-11
1.90873e-11
-7.71859e-13
3.04952e-11
3.09881e-11
4.13184e-11
4.04893e-11
3.1592e-11
3.48355e-11
8.33577e-12
2.61705e-11
-1.73411e-11
-1.28217e-11
-3.70543e-11
-2.30376e-11
1.28829e-11
-1.51e-11
1.85498e-11
-1.59822e-11
-2.13863e-12
2.9571e-12
-9.88938e-12
3.25911e-11
-4.52333e-12
2.63892e-11
3.13946e-12
2.41166e-13
-3.1301e-12
-3.03339e-11
-3.62283e-12
-3.01043e-11
1.02257e-11
-2.69374e-11
2.24477e-11
-1.65359e-11
-6.77588e-12
-7.27134e-13
-1.56759e-11
2.98955e-12
-6.67857e-12
1.43969e-11
9.42687e-12
2.64987e-11
1.44714e-11
3.28157e-11
1.79754e-12
1.55931e-11
-9.11486e-12
-4.37626e-12
-1.0849e-11
-2.03209e-11
-1.65046e-11
-3.5459e-11
-2.26581e-11
1.39387e-11
3.33944e-11
2.62618e-11
-7.58895e-12
-1.72008e-11
-1.73044e-11
-4.9972e-12
-7.97001e-12
1.15045e-11
1.22573e-11
-4.3437e-12
-1.01996e-11
-1.98533e-12
6.5339e-12
-1.54255e-11
-3.51334e-11
-3.80063e-11
-3.33509e-11
-9.90385e-12
)
;

boundaryField
{
    sides
    {
        type            calculated;
        value           uniform 0;
    }
    inlet
    {
        type            calculated;
        value           uniform 0;
    }
    outlet
    {
        type            calculated;
        value           nonuniform List<scalar> 
20
(
1.65335e-11
1.58804e-12
-1.18515e-11
-1.76871e-11
-7.32515e-12
1.10115e-11
2.80448e-11
3.12491e-11
2.28891e-12
2.75337e-11
6.87112e-12
7.471e-12
3.09538e-12
-3.66439e-13
-2.71305e-12
-1.66313e-11
-3.81712e-11
-4.42242e-11
-2.21194e-11
8.30743e-12
)
;
    }
    frontAndBack
    {
        type            empty;
        value           nonuniform List<scalar> 0();
    }
}


// ************************************************************************* //
