/*--------------------------------*- C++ -*----------------------------------*\
  =========                 |
  \\      /  F ield         | OpenFOAM: The Open Source CFD Toolbox
   \\    /   O peration     | Website:  https://openfoam.org
    \\  /    A nd           | Version:  9
     \\/     M anipulation  |
\*---------------------------------------------------------------------------*/
FoamFile
{
    format      ascii;
    class       volVectorField;
    location    "95";
    object      hU_0;
}
// * * * * * * * * * * * * * * * * * * * * * * * * * * * * * * * * * * * * * //

dimensions      [0 2 -1 0 0 0 0];

internalField   nonuniform List<vector> 
400
(
(0.001 -2.43877e-08 0)
(0.00100004 -7.05778e-08 0)
(0.00100012 -1.13059e-07 0)
(0.00100024 -1.52245e-07 0)
(0.00100039 -1.87205e-07 0)
(0.00100058 -2.16862e-07 0)
(0.00100078 -2.37242e-07 0)
(0.00100099 -2.45847e-07 0)
(0.00100118 -2.36799e-07 0)
(0.00100133 -2.11545e-07 0)
(0.0010014 -1.68783e-07 0)
(0.0010014 -1.28412e-07 0)
(0.00100129 -9.86861e-08 0)
(0.00100111 -9.27045e-08 0)
(0.00100087 -9.94505e-08 0)
(0.00100065 -1.35504e-07 0)
(0.00100044 -1.56466e-07 0)
(0.00100034 -2.01027e-07 0)
(0.00100026 -1.88434e-07 0)
(0.00100033 -2.68383e-07 0)
(0.001 -2.69731e-08 0)
(0.00100005 -7.88379e-08 0)
(0.00100013 -1.27905e-07 0)
(0.00100026 -1.73814e-07 0)
(0.00100042 -2.13268e-07 0)
(0.00100062 -2.40787e-07 0)
(0.00100084 -2.46867e-07 0)
(0.00100108 -2.21528e-07 0)
(0.0010013 -1.55369e-07 0)
(0.00100147 -4.78778e-08 0)
(0.00100156 9.40352e-08 0)
(0.00100154 2.48196e-07 0)
(0.00100141 3.90791e-07 0)
(0.00100119 4.77985e-07 0)
(0.00100093 5.05953e-07 0)
(0.00100067 4.52359e-07 0)
(0.00100048 3.78568e-07 0)
(0.00100037 2.57054e-07 0)
(0.00100033 2.0537e-07 0)
(0.00100029 8.11411e-08 0)
(0.001 -5.26365e-08 0)
(0.00100004 -1.59036e-07 0)
(0.00100013 -2.66652e-07 0)
(0.00100026 -3.7362e-07 0)
(0.00100043 -4.73767e-07 0)
(0.00100064 -5.56408e-07 0)
(0.0010009 -6.0487e-07 0)
(0.00100117 -5.98633e-07 0)
(0.00100143 -5.17777e-07 0)
(0.00100164 -3.51169e-07 0)
(0.00100176 -1.08269e-07 0)
(0.00100176 1.63939e-07 0)
(0.00100159 4.03705e-07 0)
(0.0010013 5.22276e-07 0)
(0.00100095 5.01142e-07 0)
(0.00100062 3.54898e-07 0)
(0.00100037 2.03699e-07 0)
(0.00100026 4.6336e-08 0)
(0.00100022 -3.06332e-09 0)
(0.0010003 -1.17038e-07 0)
(0.001 -7.32251e-08 0)
(0.00100004 -2.2229e-07 0)
(0.00100013 -3.75025e-07 0)
(0.00100026 -5.30685e-07 0)
(0.00100045 -6.81101e-07 0)
(0.00100069 -8.10915e-07 0)
(0.001001 -8.89935e-07 0)
(0.00100134 -8.85357e-07 0)
(0.00100171 -7.54415e-07 0)
(0.00100203 -4.73901e-07 0)
(0.00100222 -2.21482e-08 0)
(0.00100219 4.94349e-07 0)
(0.00100192 9.37751e-07 0)
(0.00100146 1.14094e-06 0)
(0.00100097 1.05614e-06 0)
(0.00100058 7.44211e-07 0)
(0.00100041 4.24604e-07 0)
(0.00100035 1.70636e-07 0)
(0.0010004 1.025e-07 0)
(0.00100034 5.5259e-10 0)
(0.001 -9.04085e-08 0)
(0.00100004 -2.77909e-07 0)
(0.00100012 -4.77399e-07 0)
(0.00100025 -6.94404e-07 0)
(0.00100044 -9.21207e-07 0)
(0.00100072 -1.13969e-06 0)
(0.00100109 -1.29869e-06 0)
(0.00100155 -1.33573e-06 0)
(0.00100207 -1.17493e-06 0)
(0.00100257 -7.77785e-07 0)
(0.0010029 -1.71199e-07 0)
(0.00100288 5.78418e-07 0)
(0.00100244 1.23054e-06 0)
(0.00100167 1.51087e-06 0)
(0.00100086 1.37509e-06 0)
(0.00100031 9.65007e-07 0)
(0.00100013 5.81685e-07 0)
(0.00100021 3.14497e-07 0)
(0.00100036 2.62267e-07 0)
(0.00100043 1.67965e-07 0)
(0.001 -1.02874e-07 0)
(0.00100003 -3.18495e-07 0)
(0.00100009 -5.62566e-07 0)
(0.00100019 -8.4501e-07 0)
(0.00100038 -1.1729e-06 0)
(0.00100068 -1.52492e-06 0)
(0.00100115 -1.8583e-06 0)
(0.00100179 -2.05339e-06 0)
(0.00100254 -1.91192e-06 0)
(0.00100326 -1.20172e-06 0)
(0.00100377 8.43873e-08 0)
(0.00100378 1.5401e-06 0)
(0.0010031 2.43209e-06 0)
(0.00100192 2.30354e-06 0)
(0.00100082 1.42889e-06 0)
(0.00100019 4.9175e-07 0)
(0.00100017 1.27011e-08 0)
(0.00100037 -8.59901e-08 0)
(0.00100064 5.97413e-08 0)
(0.00100054 4.98104e-08 0)
(0.001 -1.02486e-07 0)
(0.001 -3.33638e-07 0)
(0.00100002 -6.02224e-07 0)
(0.00100008 -9.62065e-07 0)
(0.00100021 -1.39226e-06 0)
(0.00100048 -1.94602e-06 0)
(0.001001 -2.48916e-06 0)
(0.00100188 -3.08453e-06 0)
(0.00100321 -3.23396e-06 0)
(0.00100473 -2.88097e-06 0)
(0.00100574 -6.70324e-07 0)
(0.00100535 2.55606e-06 0)
(0.0010035 4.827e-06 0)
(0.00100112 4.73609e-06 0)
(0.000999609 3.02782e-06 0)
(0.000999372 1.26319e-06 0)
(0.00100001 4.30142e-07 0)
(0.00100056 3.25608e-07 0)
(0.00100093 5.61229e-07 0)
(0.00100066 5.33607e-07 0)
(0.000999996 -9.27393e-08 0)
(0.000999968 -2.88951e-07 0)
(0.000999907 -5.77114e-07 0)
(0.000999876 -9.56734e-07 0)
(0.000999879 -1.57746e-06 0)
(0.0010001 -2.34498e-06 0)
(0.0010005 -3.40335e-06 0)
(0.00100152 -4.12567e-06 0)
(0.00100308 -4.3727e-06 0)
(0.00100601 -2.54833e-06 0)
(0.00100912 7.52368e-07 0)
(0.00100914 4.26664e-06 0)
(0.0010055 4.72027e-06 0)
(0.00100074 2.78342e-06 0)
(0.000998151 7.36055e-07 0)
(0.000998273 -2.74692e-07 0)
(0.000999797 -2.86581e-07 0)
(0.00100088 -1.0572e-08 0)
(0.00100133 2.11356e-07 0)
(0.00100085 1.02501e-07 0)
(0.000999995 -4.94026e-08 0)
(0.000999915 -2.03825e-07 0)
(0.000999756 -3.86411e-07 0)
(0.000999531 -7.3501e-07 0)
(0.000999288 -1.3389e-06 0)
(0.00099921 -2.48187e-06 0)
(0.000999706 -4.68811e-06 0)
(0.00100139 -8.06896e-06 0)
(0.00100491 -1.32852e-05 0)
(0.00100958 -1.49116e-05 0)
(0.00101188 3.8405e-06 0)
(0.00100893 1.8729e-05 0)
(0.00100222 1.57826e-05 0)
(0.000997566 5.74261e-06 0)
(0.000996884 -3.15559e-07 0)
(0.000998459 -1.26311e-06 0)
(0.00100027 -9.40787e-08 0)
(0.001001 6.34745e-07 0)
(0.00100107 6.51847e-07 0)
(0.00100054 2.43804e-07 0)
(0.000999804 -1.97249e-08 0)
(0.00100017 -6.64069e-08 0)
(0.000999216 -1.51139e-07 0)
(0.000999904 -2.48867e-07 0)
(0.000997521 -5.92962e-07 0)
(0.000998843 -1.13183e-06 0)
(0.000993346 -2.88328e-06 0)
(0.000997531 -5.59236e-06 0)
(0.000991668 -1.15424e-05 0)
(0.000915832 -1.27072e-05 0)
(0.000951467 2.72372e-07 0)
(0.00101023 1.46389e-05 0)
(0.000990949 1.30827e-05 0)
(0.000983973 5.13986e-06 0)
(0.000989585 1.93252e-07 0)
(0.00099628 -7.81507e-07 0)
(0.000999236 -1.10614e-07 0)
(0.000999412 2.49331e-07 0)
(0.000998648 1.74952e-07 0)
(0.000998505 -1.8459e-07 0)
(0.000999804 1.33521e-08 0)
(0.00100017 4.62816e-08 0)
(0.000999215 1.17665e-07 0)
(0.000999903 1.99771e-07 0)
(0.000997519 5.28787e-07 0)
(0.000998838 1.05105e-06 0)
(0.000993339 2.787e-06 0)
(0.000997519 5.47414e-06 0)
(0.00099165 1.1397e-05 0)
(0.000915808 1.25472e-05 0)
(0.000951433 -4.79571e-07 0)
(0.0010102 -1.49106e-05 0)
(0.000990947 -1.34101e-05 0)
(0.000983966 -5.53707e-06 0)
(0.000989567 -6.49193e-07 0)
(0.000996244 2.48167e-07 0)
(0.000999196 -4.71814e-07 0)
(0.000999367 -1.00147e-06 0)
(0.000998633 -9.87893e-07 0)
(0.000998455 -8.88489e-07 0)
(0.000999995 4.29569e-08 0)
(0.000999915 1.84149e-07 0)
(0.000999755 3.53498e-07 0)
(0.00099953 6.87272e-07 0)
(0.000999285 1.27651e-06 0)
(0.000999211 2.40137e-06 0)
(0.000999702 4.58873e-06 0)
(0.00100139 7.94274e-06 0)
(0.0010049 1.31316e-05 0)
(0.00100957 1.47191e-05 0)
(0.00101188 -4.0567e-06 0)
(0.00100891 -1.90038e-05 0)
(0.00100214 -1.60955e-05 0)
(0.000997477 -6.12333e-06 0)
(0.000996816 -8.44953e-08 0)
(0.000998402 7.75309e-07 0)
(0.00100017 -4.27174e-07 0)
(0.00100085 -1.30475e-06 0)
(0.00100088 -1.37895e-06 0)
(0.00100037 -1.25068e-06 0)
(0.000999996 8.63769e-08 0)
(0.000999967 2.70144e-07 0)
(0.000999905 5.44877e-07 0)
(0.000999871 9.10336e-07 0)
(0.00099987 1.51402e-06 0)
(0.00100008 2.26165e-06 0)
(0.00100048 3.29297e-06 0)
(0.00100149 3.99015e-06 0)
(0.00100303 4.21114e-06 0)
(0.00100595 2.36559e-06 0)
(0.00100902 -9.70303e-07 0)
(0.00100905 -4.53613e-06 0)
(0.00100543 -5.01873e-06 0)
(0.00100066 -3.12901e-06 0)
(0.000998058 -1.13134e-06 0)
(0.000998135 -2.51895e-07 0)
(0.000999623 -3.23232e-07 0)
(0.00100064 -7.41583e-07 0)
(0.00100106 -9.6703e-07 0)
(0.00100055 -1.07384e-06 0)
(0.001 9.6529e-08 0)
(0.001 3.1564e-07 0)
(0.00100002 5.71731e-07 0)
(0.00100007 9.17596e-07 0)
(0.0010002 1.33374e-06 0)
(0.00100046 1.87106e-06 0)
(0.00100097 2.39861e-06 0)
(0.00100185 2.97441e-06 0)
(0.00100318 3.11134e-06 0)
(0.00100469 2.73244e-06 0)
(0.00100568 5.01142e-07 0)
(0.00100527 -2.75242e-06 0)
(0.00100338 -5.07602e-06 0)
(0.00100096 -5.06966e-06 0)
(0.000999409 -3.44924e-06 0)
(0.000999122 -1.79444e-06 0)
(0.000999745 -1.02116e-06 0)
(0.00100025 -1.0589e-06 0)
(0.00100061 -1.30667e-06 0)
(0.00100024 -1.51536e-06 0)
(0.001 9.77523e-08 0)
(0.00100003 3.02567e-07 0)
(0.00100008 5.35623e-07 0)
(0.00100018 8.05612e-07 0)
(0.00100036 1.12101e-06 0)
(0.00100066 1.45898e-06 0)
(0.00100112 1.77855e-06 0)
(0.00100174 1.95121e-06 0)
(0.00100248 1.78255e-06 0)
(0.00100317 1.0341e-06 0)
(0.00100366 -2.79406e-07 0)
(0.00100363 -1.78225e-06 0)
(0.00100292 -2.71009e-06 0)
(0.00100171 -2.63133e-06 0)
(0.00100058 -1.77895e-06 0)
(0.000999905 -8.95261e-07 0)
(0.000999859 -4.26618e-07 0)
(0.000999982 -4.4718e-07 0)
(0.00100022 -6.15776e-07 0)
(0.001 -8.4835e-07 0)
(0.001 8.60552e-08 0)
(0.00100004 2.64079e-07 0)
(0.00100011 4.5421e-07 0)
(0.00100024 6.61375e-07 0)
(0.00100043 8.76991e-07 0)
(0.0010007 1.08347e-06 0)
(0.00100106 1.23004e-06 0)
(0.0010015 1.25392e-06 0)
(0.001002 1.07426e-06 0)
(0.00100248 6.57299e-07 0)
(0.0010028 1.7683e-08 0)
(0.00100274 -7.70266e-07 0)
(0.00100227 -1.44963e-06 0)
(0.00100146 -1.77415e-06 0)
(0.00100062 -1.66776e-06 0)
(0.00100001 -1.34747e-06 0)
(0.000999795 -1.02845e-06 0)
(0.000999766 -9.36377e-07 0)
(0.000999884 -9.45216e-07 0)
(0.000999766 -1.10849e-06 0)
(0.001 6.93371e-08 0)
(0.00100004 2.09566e-07 0)
(0.00100012 3.5384e-07 0)
(0.00100025 5.01349e-07 0)
(0.00100043 6.43807e-07 0)
(0.00100066 7.65005e-07 0)
(0.00100096 8.372e-07 0)
(0.00100129 8.26609e-07 0)
(0.00100163 6.92284e-07 0)
(0.00100191 4.06817e-07 0)
(0.00100206 -4.67879e-08 0)
(0.001002 -5.75827e-07 0)
(0.00100171 -1.03531e-06 0)
(0.0010012 -1.28095e-06 0)
(0.00100065 -1.22898e-06 0)
(0.00100016 -9.93624e-07 0)
(0.000999916 -7.01627e-07 0)
(0.00099974 -5.5723e-07 0)
(0.000999752 -4.88183e-07 0)
(0.000999559 -5.98778e-07 0)
(0.001 5.04535e-08 0)
(0.00100004 1.49709e-07 0)
(0.00100012 2.4632e-07 0)
(0.00100025 3.38761e-07 0)
(0.00100041 4.21908e-07 0)
(0.00100062 4.83427e-07 0)
(0.00100086 5.08453e-07 0)
(0.00100112 4.735e-07 0)
(0.00100137 3.61838e-07 0)
(0.00100157 1.55891e-07 0)
(0.00100167 -1.16995e-07 0)
(0.00100161 -4.21462e-07 0)
(0.00100139 -6.81771e-07 0)
(0.00100103 -8.42386e-07 0)
(0.00100064 -8.50186e-07 0)
(0.00100022 -7.71099e-07 0)
(0.00099995 -6.3893e-07 0)
(0.000999689 -5.98376e-07 0)
(0.000999628 -5.63219e-07 0)
(0.000999387 -6.85456e-07 0)
(0.001 3.45349e-08 0)
(0.00100004 1.04623e-07 0)
(0.00100011 1.74043e-07 0)
(0.00100023 2.41605e-07 0)
(0.00100038 3.02653e-07 0)
(0.00100056 3.50379e-07 0)
(0.00100077 3.75655e-07 0)
(0.00100097 3.68977e-07 0)
(0.00100116 3.19915e-07 0)
(0.0010013 2.23793e-07 0)
(0.00100136 8.53136e-08 0)
(0.00100131 -7.13303e-08 0)
(0.00100115 -2.069e-07 0)
(0.00100086 -2.97895e-07 0)
(0.00100054 -3.12894e-07 0)
(0.00100017 -2.82792e-07 0)
(0.000999901 -2.04238e-07 0)
(0.000999613 -1.70606e-07 0)
(0.000999518 -1.20234e-07 0)
(0.000999251 -1.98993e-07 0)
(0.001 -4.15638e-09 0)
(0.00100004 -9.95188e-09 0)
(0.00100012 -1.315e-08 0)
(0.00100024 -1.48484e-08 0)
(0.00100038 -1.6929e-08 0)
(0.00100056 -2.25597e-08 0)
(0.00100075 -3.35375e-08 0)
(0.00100094 -5.33401e-08 0)
(0.00100111 -8.18041e-08 0)
(0.00100123 -1.22403e-07 0)
(0.00100128 -1.70409e-07 0)
(0.00100121 -2.31765e-07 0)
(0.00100107 -2.90932e-07 0)
(0.00100081 -3.4158e-07 0)
(0.00100053 -3.59942e-07 0)
(0.00100018 -3.6843e-07 0)
(0.000999946 -3.4306e-07 0)
(0.00099961 -3.53623e-07 0)
(0.000999524 -3.28544e-07 0)
(0.000999133 -4.10839e-07 0)
)
;

boundaryField
{
    sides
    {
        type            slip;
    }
    inlet
    {
        type            fixedValue;
        value           uniform (0.001 0 0);
    }
    outlet
    {
        type            zeroGradient;
    }
    frontAndBack
    {
        type            empty;
    }
}


// ************************************************************************* //
