/*--------------------------------*- C++ -*----------------------------------*\
  =========                 |
  \\      /  F ield         | OpenFOAM: The Open Source CFD Toolbox
   \\    /   O peration     | Website:  https://openfoam.org
    \\  /    A nd           | Version:  9
     \\/     M anipulation  |
\*---------------------------------------------------------------------------*/
FoamFile
{
    format      ascii;
    class       surfaceScalarField;
    location    "95";
    object      phi;
}
// * * * * * * * * * * * * * * * * * * * * * * * * * * * * * * * * * * * * * //

dimensions      [0 4 -1 0 0 0 0];

internalField   nonuniform List<scalar> 
760
(
5.00009e-06
-9.38399e-11
5.0004e-06
-3.04989e-10
5.00092e-06
-5.11351e-10
5.00162e-06
-7.05036e-10
5.00249e-06
-8.76038e-10
5.00349e-06
-1.00655e-09
5.00455e-06
-1.06431e-09
5.00557e-06
-1.01713e-09
5.0064e-06
-8.33194e-10
5.00692e-06
-5.21649e-10
5.00705e-06
-1.19977e-10
5.00665e-06
4.0104e-10
5.0058e-06
8.61234e-10
5.0047e-06
1.10975e-09
5.00352e-06
1.17735e-09
5.00257e-06
9.56035e-10
5.00186e-06
7.16753e-10
5.00162e-06
2.45498e-10
5.00151e-06
1.07356e-10
-3.91027e-10
5.00012e-06
-2.13881e-10
5.00045e-06
-6.31947e-10
5.00098e-06
-1.04385e-09
5.00172e-06
-1.44391e-09
5.00265e-06
-1.8091e-09
5.00374e-06
-2.10032e-09
5.00493e-06
-2.25317e-09
5.00611e-06
-2.19547e-09
5.00713e-06
-1.84928e-09
5.00777e-06
-1.16385e-09
5.00774e-06
-8.64607e-11
5.00725e-06
8.94568e-10
5.00627e-06
1.85285e-09
5.00495e-06
2.4255e-09
5.00368e-06
2.45357e-09
5.00278e-06
1.86426e-09
5.00225e-06
1.24809e-09
5.00192e-06
5.81072e-10
5.00165e-06
3.689e-10
-1.47452e-10
5.00011e-06
-3.20304e-10
5.00043e-06
-9.51662e-10
5.00096e-06
-1.57644e-09
5.00172e-06
-2.20702e-09
5.00272e-06
-2.8097e-09
5.00394e-06
-3.32258e-09
5.00532e-06
-3.62808e-09
5.00672e-06
-3.59048e-09
5.00793e-06
-3.05202e-09
5.00872e-06
-1.95452e-09
5.00893e-06
-3.04014e-10
5.00825e-06
1.57486e-09
5.00687e-06
3.22804e-09
5.00515e-06
4.13751e-09
5.0035e-06
4.09829e-09
5.0023e-06
3.06219e-09
5.00166e-06
1.89374e-09
5.00148e-06
7.70785e-10
5.00145e-06
3.97315e-10
-2.21529e-10
5.0001e-06
-4.18279e-10
5.00041e-06
-1.26155e-09
5.00094e-06
-2.11422e-09
5.00175e-06
-3.01052e-09
5.00285e-06
-3.91553e-09
5.00429e-06
-4.7509e-09
5.00602e-06
-5.34971e-09
5.00795e-06
-5.51951e-09
5.00984e-06
-4.94957e-09
5.01107e-06
-3.19159e-09
5.0112e-06
-4.35947e-10
5.00999e-06
2.767e-09
5.00765e-06
5.56567e-09
5.00514e-06
6.62955e-09
5.00347e-06
5.75802e-09
5.00269e-06
3.82986e-09
5.00247e-06
2.11283e-09
5.00231e-06
9.3813e-10
5.00199e-06
7.09883e-10
3.39328e-10
5.00008e-06
-5.00267e-10
5.00034e-06
-1.52132e-09
5.00083e-06
-2.60879e-09
5.00163e-06
-3.8124e-09
5.00285e-06
-5.13381e-09
5.00458e-06
-6.46336e-09
5.00681e-06
-7.56756e-09
5.00941e-06
-8.14894e-09
5.01239e-06
-7.92118e-09
5.01478e-06
-5.60434e-09
5.01483e-06
-4.71076e-10
5.01285e-06
4.73679e-09
5.00867e-06
9.73624e-09
5.0046e-06
1.07075e-08
5.00224e-06
8.10985e-09
5.00174e-06
4.31884e-09
5.00204e-06
1.80419e-09
5.00225e-06
7.24074e-10
5.00201e-06
9.511e-10
6.26941e-10
5.00004e-06
-5.44151e-10
5.0002e-06
-1.67865e-09
5.00054e-06
-2.94867e-09
5.00121e-06
-4.48228e-09
5.00241e-06
-6.3306e-09
5.00453e-06
-8.57281e-09
5.0076e-06
-1.06523e-08
5.01167e-06
-1.22215e-08
5.01553e-06
-1.17817e-08
5.01901e-06
-9.07177e-09
5.0202e-06
-1.68043e-09
5.01602e-06
8.95593e-09
5.00951e-06
1.62524e-08
5.00421e-06
1.60024e-08
5.00218e-06
1.01579e-08
5.00249e-06
3.99702e-09
5.00327e-06
1.02722e-09
5.00339e-06
5.95348e-10
5.0028e-06
1.54503e-09
1.4219e-09
4.99998e-06
-5.2672e-10
4.99994e-06
-1.63724e-09
5.00003e-06
-3.03957e-09
5.00036e-06
-4.81088e-09
5.00122e-06
-7.18987e-09
5.00293e-06
-1.02778e-08
5.0068e-06
-1.45368e-08
5.01392e-06
-1.93388e-08
5.02375e-06
-2.16044e-08
5.03093e-06
-1.62247e-08
5.02874e-06
4.68186e-10
5.01672e-06
2.09301e-08
5.00418e-06
2.88233e-08
4.99874e-06
2.14638e-08
5.00058e-06
8.31926e-09
5.00285e-06
1.73026e-09
5.00371e-06
1.60742e-10
5.00366e-06
6.49983e-10
5.00305e-06
2.16157e-09
1.6809e-09
4.99986e-06
-3.92909e-10
4.99955e-06
-1.32231e-09
4.99913e-06
-2.61161e-09
4.99885e-06
-4.54188e-09
4.99933e-06
-7.6676e-09
5.00036e-06
-1.13073e-08
5.00365e-06
-1.78296e-08
5.00982e-06
-2.55074e-08
5.0249e-06
-3.66537e-08
5.05605e-06
-4.75058e-08
5.05013e-06
7.70467e-09
5.02319e-06
4.78074e-08
4.99817e-06
5.38111e-08
4.99349e-06
2.6147e-08
4.99947e-06
2.35156e-09
5.00407e-06
-2.87373e-09
5.0049e-06
-6.6856e-10
5.00372e-06
1.83582e-09
5.00351e-06
2.38162e-09
9.70437e-10
4.99977e-06
-1.59308e-10
4.99915e-06
-7.04865e-10
4.99792e-06
-1.37892e-09
4.99611e-06
-2.73379e-09
4.99402e-06
-5.57925e-09
4.99374e-06
-1.10284e-08
4.99945e-06
-2.35317e-08
5.01714e-06
-4.32003e-08
5.05569e-06
-7.5233e-08
5.06689e-06
-5.85882e-08
5.04963e-06
2.36396e-08
4.99649e-06
1.01011e-07
4.98931e-06
6.1015e-08
4.99591e-06
1.95405e-08
5.00018e-06
-1.93777e-09
5.00292e-06
-5.61736e-09
5.00252e-06
-2.48385e-10
5.00184e-06
2.51986e-09
5.00255e-06
1.6813e-09
6.93286e-11
4.99986e-06
-1.51555e-11
4.9992e-06
-5.01413e-11
4.99791e-06
-8.6113e-11
4.99531e-06
-1.30079e-10
4.9899e-06
-1.70757e-10
4.97908e-06
-2.15758e-10
4.95582e-06
-2.66707e-10
4.91296e-06
-3.34727e-10
4.83814e-06
-4.19438e-10
4.77998e-06
-4.57425e-10
4.80427e-06
-6.2495e-10
4.90605e-06
-7.19329e-10
4.96778e-06
-7.52567e-10
4.98822e-06
-9.07307e-10
4.98745e-06
-1.16961e-09
4.98326e-06
-1.43317e-09
4.98455e-06
-1.56054e-09
4.9889e-06
-1.82597e-09
4.99248e-06
-1.89288e-09
-2.58391e-09
4.99986e-06
1.28008e-10
4.9992e-06
6.02917e-10
4.99791e-06
1.21149e-09
4.9953e-06
2.48202e-09
4.98988e-06
5.24967e-09
4.97905e-06
1.06022e-08
4.95577e-06
2.30155e-08
4.9129e-06
4.25401e-08
4.83803e-06
7.44559e-08
4.77972e-06
5.78174e-08
4.80427e-06
-2.49887e-08
4.90599e-06
-1.02498e-07
4.96777e-06
-6.25245e-08
4.98806e-06
-2.12046e-08
4.98735e-06
-4.59087e-10
4.98293e-06
2.99235e-09
4.98443e-06
-3.05273e-09
4.98889e-06
-6.28406e-09
4.99235e-06
-5.35669e-09
-4.98376e-09
4.99977e-06
3.59594e-10
4.99915e-06
1.22314e-09
4.99792e-06
2.44342e-09
4.9961e-06
4.29773e-09
4.99402e-06
7.335e-09
4.99373e-06
1.08847e-08
4.99942e-06
1.73126e-08
5.01708e-06
2.4897e-08
5.05561e-06
3.59144e-08
5.06709e-06
4.64003e-08
5.04944e-06
-8.56167e-09
4.99612e-06
-4.90541e-08
4.98885e-06
-5.52551e-08
4.99569e-06
-2.80451e-08
5.00011e-06
-4.86599e-09
5.00232e-06
7.89537e-10
5.00166e-06
-2.39044e-09
5.0009e-06
-5.53374e-09
5.00168e-06
-6.13725e-09
-5.95187e-09
4.99986e-06
4.94036e-10
4.99955e-06
1.54179e-09
4.99911e-06
2.87941e-09
4.99883e-06
4.5799e-09
4.99927e-06
6.88976e-09
5.00027e-06
9.89197e-09
5.00347e-06
1.40998e-08
5.0096e-06
1.87681e-08
5.0246e-06
2.09191e-08
5.05556e-06
1.54067e-08
5.04979e-06
-1.58185e-09
5.0228e-06
-2.21801e-08
4.99786e-06
-3.03024e-08
4.99316e-06
-2.33306e-08
4.99864e-06
-1.03419e-08
5.00345e-06
-4.0201e-09
5.00373e-06
-2.67102e-09
5.00236e-06
-4.16116e-09
5.00216e-06
-5.94454e-09
-6.53602e-09
4.99998e-06
5.1594e-10
4.99993e-06
1.5922e-09
5e-06
2.80295e-09
5.00031e-06
4.2744e-09
5.00113e-06
6.06287e-09
5.00279e-06
8.23223e-09
5.00668e-06
1.02171e-08
5.01378e-06
1.16628e-08
5.02358e-06
1.11241e-08
5.03072e-06
8.27987e-09
5.02838e-06
6.18051e-10
5.01625e-06
-1.00217e-08
5.00349e-06
-1.75538e-08
4.99777e-06
-1.76051e-08
4.99941e-06
-1.19838e-08
5.00161e-06
-6.21863e-09
5.0024e-06
-3.46599e-09
5.00213e-06
-3.88882e-09
5.00119e-06
-5.00703e-09
-5.97713e-09
5.00004e-06
4.77597e-10
5.00018e-06
1.44756e-09
5.0005e-06
2.48216e-09
5.00115e-06
3.62711e-09
5.00232e-06
4.88998e-09
5.00439e-06
6.15751e-09
5.00741e-06
7.20057e-09
5.0114e-06
7.68893e-09
5.01514e-06
7.38683e-09
5.01853e-06
4.87519e-09
5.01956e-06
-4.05967e-10
5.01522e-06
-5.70612e-09
5.00854e-06
-1.08689e-08
5.00311e-06
-1.21781e-08
5.00087e-06
-9.7557e-09
5.00101e-06
-6.35062e-09
5.00156e-06
-4.0095e-09
5.00132e-06
-3.65059e-09
5.00035e-06
-4.0446e-09
-4.97697e-09
5.00008e-06
3.98244e-10
5.00032e-06
1.2002e-09
5.00079e-06
2.01205e-09
5.00157e-06
2.85687e-09
5.00275e-06
3.70864e-09
5.00441e-06
4.49591e-09
5.00655e-06
5.05371e-09
5.0091e-06
5.15833e-09
5.01203e-06
4.45448e-09
5.0144e-06
2.50968e-09
5.01414e-06
-1.41901e-10
5.01208e-06
-3.64163e-09
5.00775e-06
-6.54061e-09
5.00348e-06
-7.91606e-09
5.00092e-06
-7.19417e-09
5.00013e-06
-5.55174e-09
5.00011e-06
-3.98333e-09
4.99988e-06
-3.42248e-09
4.99916e-06
-3.3434e-09
-4.17363e-09
5.0001e-06
2.98272e-10
5.00039e-06
9.00426e-10
5.0009e-06
1.50047e-09
5.00167e-06
2.09364e-09
5.00274e-06
2.65153e-09
5.00412e-06
3.11252e-09
5.00579e-06
3.38269e-09
5.00763e-06
3.31454e-09
5.00933e-06
2.75763e-09
5.01027e-06
1.57301e-09
5.01043e-06
-3.04836e-10
5.00903e-06
-2.23631e-09
5.0065e-06
-4.01159e-09
5.00367e-06
-5.08252e-09
5.00155e-06
-5.05958e-09
5.00035e-06
-4.35219e-09
4.99971e-06
-3.34394e-09
4.99917e-06
-2.89149e-09
4.99844e-06
-2.63214e-09
-3.21945e-09
5.0001e-06
1.94849e-10
5.00041e-06
5.90937e-10
5.00092e-06
9.83339e-10
5.00166e-06
1.36196e-09
5.00262e-06
1.70071e-09
5.00378e-06
1.95414e-09
5.00509e-06
2.06566e-09
5.00645e-06
1.95478e-09
5.00765e-06
1.55528e-09
5.00839e-06
8.27778e-10
5.00821e-06
-1.30747e-10
5.00733e-06
-1.35985e-09
5.0057e-06
-2.37699e-09
5.00369e-06
-3.06383e-09
5.0018e-06
-3.1671e-09
5.00034e-06
-2.89749e-09
4.99932e-06
-2.32896e-09
4.99852e-06
-2.10177e-09
4.99772e-06
-1.8426e-09
-2.2836e-09
5.00008e-06
1.11428e-10
5.00038e-06
3.01863e-10
5.00087e-06
4.91844e-10
5.00155e-06
6.77294e-10
5.00241e-06
8.38688e-10
5.00341e-06
9.52781e-10
5.00448e-06
9.94346e-10
5.00551e-06
9.31772e-10
5.00633e-06
7.32418e-10
5.00679e-06
3.57892e-10
5.00681e-06
-1.44323e-10
5.00607e-06
-6.30986e-10
5.00479e-06
-1.09267e-09
5.00315e-06
-1.42779e-09
5.00148e-06
-1.4993e-09
5.00002e-06
-1.43844e-09
4.99888e-06
-1.19076e-09
4.99792e-06
-1.14092e-09
4.99707e-06
-9.83806e-10
-1.42891e-09
5.00011e-06
5.00042e-06
5.00092e-06
5.00159e-06
5.00242e-06
5.00336e-06
5.00436e-06
5.00529e-06
5.00603e-06
5.00639e-06
5.00625e-06
5.00562e-06
5.00453e-06
5.00311e-06
5.0016e-06
5.00016e-06
4.99898e-06
4.99785e-06
4.99688e-06
)
;

boundaryField
{
    sides
    {
        type            calculated;
        value           uniform 0;
    }
    inlet
    {
        type            calculated;
        value           nonuniform List<scalar> 
20
(
-5e-06
-5e-06
-5e-06
-5e-06
-5e-06
-5e-06
-5e-06
-5e-06
-5e-06
-5e-06
-5e-06
-5e-06
-5e-06
-5e-06
-5e-06
-5e-06
-5e-06
-5e-06
-5e-06
-5e-06
)
;
    }
    outlet
    {
        type            calculated;
        value           nonuniform List<scalar> 
20
(
5.0019e-06
5.00141e-06
5.00152e-06
5.00143e-06
5.00172e-06
5.002e-06
5.00279e-06
5.00423e-06
5.00345e-06
4.99514e-06
4.99475e-06
5.00265e-06
5.00274e-06
5.00063e-06
4.99935e-06
4.99836e-06
4.99748e-06
4.99678e-06
4.99622e-06
4.99546e-06
)
;
    }
    frontAndBack
    {
        type            empty;
        value           nonuniform List<scalar> 0();
    }
}


// ************************************************************************* //
