/*--------------------------------*- C++ -*----------------------------------*\
  =========                 |
  \\      /  F ield         | OpenFOAM: The Open Source CFD Toolbox
   \\    /   O peration     | Website:  https://openfoam.org
    \\  /    A nd           | Version:  9
     \\/     M anipulation  |
\*---------------------------------------------------------------------------*/
FoamFile
{
    format      ascii;
    class       volVectorField;
    location    "95";
    object      U;
}
// * * * * * * * * * * * * * * * * * * * * * * * * * * * * * * * * * * * * * //

dimensions      [0 1 -1 0 0 0 0];

internalField   nonuniform List<vector> 
400
(
(0.0999964 -2.43783e-06 0)
(0.100001 -7.04771e-06 0)
(0.10001 -1.13077e-05 0)
(0.100023 -1.52306e-05 0)
(0.10004 -1.87358e-05 0)
(0.100061 -2.17028e-05 0)
(0.100083 -2.37413e-05 0)
(0.100107 -2.45806e-05 0)
(0.100128 -2.36615e-05 0)
(0.100144 -2.11265e-05 0)
(0.100152 -1.68313e-05 0)
(0.100152 -1.28136e-05 0)
(0.10014 -9.83167e-06 0)
(0.10012 -9.23936e-06 0)
(0.100093 -9.9128e-06 0)
(0.100068 -1.35221e-05 0)
(0.100045 -1.56233e-05 0)
(0.100034 -2.00793e-05 0)
(0.100025 -1.88285e-05 0)
(0.100033 -2.68296e-05 0)
(0.099997 -2.68251e-06 0)
(0.100002 -7.86083e-06 0)
(0.100011 -1.27961e-05 0)
(0.100025 -1.73996e-05 0)
(0.100044 -2.13639e-05 0)
(0.100066 -2.41239e-05 0)
(0.100091 -2.47101e-05 0)
(0.100117 -2.2127e-05 0)
(0.100141 -1.54612e-05 0)
(0.100161 -4.72015e-06 0)
(0.100171 9.49214e-06 0)
(0.100169 2.4897e-05 0)
(0.100154 3.9141e-05 0)
(0.100129 4.78685e-05 0)
(0.1001 5.0669e-05 0)
(0.100071 4.53064e-05 0)
(0.10005 3.79205e-05 0)
(0.100037 2.57618e-05 0)
(0.100033 2.05758e-05 0)
(0.100029 8.12856e-06 0)
(0.0999969 -5.23742e-06 0)
(0.100002 -1.58824e-05 0)
(0.100011 -2.66704e-05 0)
(0.100025 -3.73816e-05 0)
(0.100044 -4.74205e-05 0)
(0.100068 -5.56881e-05 0)
(0.100096 -6.04858e-05 0)
(0.100127 -5.97994e-05 0)
(0.100156 -5.17103e-05 0)
(0.10018 -3.50534e-05 0)
(0.100193 -1.0837e-05 0)
(0.100192 1.64515e-05 0)
(0.100174 4.03583e-05 0)
(0.100142 5.22212e-05 0)
(0.100102 5.01556e-05 0)
(0.100066 3.55566e-05 0)
(0.100037 2.0444e-05 0)
(0.100026 4.69449e-06 0)
(0.100021 -2.68169e-07 0)
(0.100029 -1.16928e-05 0)
(0.0999963 -7.30324e-06 0)
(0.100001 -2.22241e-05 0)
(0.10001 -3.7505e-05 0)
(0.100025 -5.30762e-05 0)
(0.100046 -6.81386e-05 0)
(0.100073 -8.11053e-05 0)
(0.100107 -8.89637e-05 0)
(0.100146 -8.84833e-05 0)
(0.100186 -7.54989e-05 0)
(0.100222 -4.73969e-05 0)
(0.100243 -2.26224e-06 0)
(0.10024 4.93576e-05 0)
(0.100211 9.37465e-05 0)
(0.100159 0.000113995 0)
(0.100104 0.00010555 0)
(0.100061 7.44338e-05 0)
(0.100041 4.25073e-05 0)
(0.100035 1.71007e-05 0)
(0.10004 1.02615e-05 0)
(0.100035 5.65467e-08 0)
(0.0999953 -9.03534e-06 0)
(0.0999995 -2.78028e-05 0)
(0.100008 -4.77412e-05 0)
(0.100023 -6.94313e-05 0)
(0.100044 -9.21151e-05 0)
(0.100076 -0.000113952 0)
(0.100117 -0.000129835 0)
(0.100168 -0.00013367 0)
(0.100225 -0.000117571 0)
(0.100281 -7.79399e-05 0)
(0.100318 -1.71045e-05 0)
(0.100316 5.77543e-05 0)
(0.100267 0.000123021 0)
(0.100182 0.000151057 0)
(0.100091 0.00013742 0)
(0.100029 9.64402e-05 0)
(0.100009 5.81549e-05 0)
(0.100019 3.14431e-05 0)
(0.100036 2.62074e-05 0)
(0.100043 1.67838e-05 0)
(0.0999939 -1.02997e-05 0)
(0.0999968 -3.18668e-05 0)
(0.100003 -5.62506e-05 0)
(0.100015 -8.44749e-05 0)
(0.100036 -0.000117264 0)
(0.10007 -0.000152469 0)
(0.100122 -0.000185876 0)
(0.100193 -0.000205474 0)
(0.100277 -0.000191299 0)
(0.100357 -0.000120182 0)
(0.100414 8.27093e-06 0)
(0.100415 0.000154253 0)
(0.100339 0.000243287 0)
(0.100208 0.000230396 0)
(0.100085 0.000142889 0)
(0.100015 4.91294e-05 0)
(0.100012 1.22894e-06 0)
(0.100035 -8.63325e-06 0)
(0.100064 5.93742e-06 0)
(0.100055 4.96286e-06 0)
(0.0999923 -1.02756e-05 0)
(0.0999927 -3.33776e-05 0)
(0.0999948 -6.02052e-05 0)
(0.100001 -9.61734e-05 0)
(0.100016 -0.000139199 0)
(0.100046 -0.000194609 0)
(0.100103 -0.000248978 0)
(0.100202 -0.000308505 0)
(0.10035 -0.000323516 0)
(0.100519 -0.000287974 0)
(0.100632 -6.78853e-05 0)
(0.10059 0.00025568 0)
(0.100383 0.000482994 0)
(0.100118 0.000473677 0)
(0.0999479 0.00030279 0)
(0.0999219 0.000126324 0)
(0.0999926 4.30015e-05 0)
(0.100056 3.25333e-05 0)
(0.100095 5.60949e-05 0)
(0.100067 5.33495e-05 0)
(0.0999904 -9.30244e-06 0)
(0.0999873 -2.89028e-05 0)
(0.0999807 -5.76926e-05 0)
(0.099977 -9.56503e-05 0)
(0.0999774 -0.000157723 0)
(0.100001 -0.000234508 0)
(0.100047 -0.000340339 0)
(0.10016 -0.000412524 0)
(0.100335 -0.000437277 0)
(0.100658 -0.000255175 0)
(0.101006 7.63093e-05 0)
(0.101014 0.000427078 0)
(0.100606 0.000472205 0)
(0.100072 0.000278378 0)
(0.099782 7.36389e-05 0)
(0.0997968 -2.73965e-05 0)
(0.0999672 -2.86184e-05 0)
(0.100089 -1.05966e-06 0)
(0.100138 2.11312e-05 0)
(0.100087 1.02519e-05 0)
(0.0999894 -4.95713e-06 0)
(0.0999805 -2.03852e-05 0)
(0.0999629 -3.8638e-05 0)
(0.0999378 -7.34986e-05 0)
(0.0999106 -0.000133861 0)
(0.0999018 -0.000248132 0)
(0.0999567 -0.000468741 0)
(0.100145 -0.000806885 0)
(0.100536 -0.00132903 0)
(0.101062 -0.00149292 0)
(0.101323 0.0003855 0)
(0.100996 0.00187479 0)
(0.100241 0.00157848 0)
(0.0997201 0.000574065 0)
(0.0996445 -3.15184e-05 0)
(0.0998219 -0.000126265 0)
(0.100024 -9.41952e-06 0)
(0.100107 6.34723e-05 0)
(0.100113 6.52023e-05 0)
(0.100055 2.43902e-05 0)
(0.0999703 -1.97479e-06 0)
(0.100006 -6.64241e-06 0)
(0.0999078 -1.51281e-05 0)
(0.0999717 -2.49047e-05 0)
(0.0997258 -5.92606e-05 0)
(0.099844 -0.000113088 0)
(0.0992765 -0.000288159 0)
(0.0996752 -0.000558844 0)
(0.0991183 -0.00115375 0)
(0.102003 -0.00141508 0)
(0.10628 2.95068e-05 0)
(0.101267 0.00146738 0)
(0.0990078 0.00130725 0)
(0.0982225 0.000513105 0)
(0.0988553 1.93067e-05 0)
(0.0996051 -7.81977e-05 0)
(0.0999351 -1.11481e-05 0)
(0.0999522 2.48927e-05 0)
(0.099867 1.74976e-05 0)
(0.099849 -1.84511e-05 0)
(0.0999709 1.34334e-06 0)
(0.100006 4.62624e-06 0)
(0.0999084 1.17499e-05 0)
(0.0999722 1.99586e-05 0)
(0.0997262 5.2882e-05 0)
(0.0998442 0.000105114 0)
(0.0992763 0.000278541 0)
(0.0996744 0.000546918 0)
(0.099117 0.00113906 0)
(0.102001 0.00139741 0)
(0.106277 -5.29031e-05 0)
(0.101265 -0.00149463 0)
(0.0990079 -0.00133985 0)
(0.0982223 -0.000552727 0)
(0.0988538 -6.48884e-05 0)
(0.0996016 2.47254e-05 0)
(0.0999311 -4.72547e-05 0)
(0.0999478 -0.000100194 0)
(0.0998659 -9.87995e-05 0)
(0.0998442 -8.88435e-05 0)
(0.0999914 4.31046e-06 0)
(0.0999825 1.84149e-05 0)
(0.0999647 3.53416e-05 0)
(0.0999397 6.87205e-05 0)
(0.0999125 0.00012763 0)
(0.0999039 0.000240091 0)
(0.0999582 0.000458844 0)
(0.100146 0.000794315 0)
(0.100537 0.0013138 0)
(0.101064 0.00147343 0)
(0.101325 -0.000406993 0)
(0.100995 -0.00190229 0)
(0.100235 -0.00160992 0)
(0.0997121 -0.000612141 0)
(0.0996386 -8.49854e-06 0)
(0.0998174 7.74948e-05 0)
(0.100015 -4.27069e-05 0)
(0.100092 -0.000130463 0)
(0.100093 -0.000137888 0)
(0.100038 -0.000125063 0)
(0.0999938 8.66061e-06 0)
(0.0999906 2.702e-05 0)
(0.0999838 5.44834e-05 0)
(0.0999798 9.10354e-05 0)
(0.0999799 0.00015138 0)
(0.100003 0.000226108 0)
(0.100048 0.00032929 0)
(0.100159 0.000399127 0)
(0.100332 0.000421282 0)
(0.100654 0.000236821 0)
(0.101 -9.78146e-05 0)
(0.101007 -0.000454008 0)
(0.1006 -0.00050214 0)
(0.100067 -0.000312918 0)
(0.0997751 -0.000113085 0)
(0.0997848 -2.51235e-05 0)
(0.0999511 -3.22568e-05 0)
(0.100066 -7.41094e-05 0)
(0.100111 -9.66795e-05 0)
(0.100057 -0.000107378 0)
(0.0999971 9.6834e-06 0)
(0.0999973 3.15787e-05 0)
(0.0999992 5.71619e-05 0)
(0.100005 9.17515e-05 0)
(0.100019 0.000133364 0)
(0.100049 0.000187079 0)
(0.100105 0.00023984 0)
(0.100203 0.00029753 0)
(0.100351 0.000311279 0)
(0.10052 0.000273382 0)
(0.100631 5.10359e-05 0)
(0.100586 -0.000275489 0)
(0.100375 -0.000507782 0)
(0.100105 -0.000506987 0)
(0.0999304 -0.000344838 0)
(0.0998989 -0.000179379 0)
(0.0999682 -0.000102075 0)
(0.100026 -0.000105859 0)
(0.100065 -0.000130651 0)
(0.100025 -0.000151532 0)
(0.1 9.7987e-06 0)
(0.100003 3.02783e-05 0)
(0.100009 5.35479e-05 0)
(0.10002 8.05339e-05 0)
(0.10004 0.000112098 0)
(0.100073 0.000145918 0)
(0.100124 0.000177861 0)
(0.100194 0.000195129 0)
(0.100276 0.000178313 0)
(0.100354 0.000103501 0)
(0.100408 -2.80558e-05 0)
(0.100405 -0.000178211 0)
(0.100326 -0.00027107 0)
(0.10019 -0.000263156 0)
(0.100064 -0.000177893 0)
(0.0999891 -8.95402e-05 0)
(0.0999836 -4.26788e-05 0)
(0.0999984 -4.47187e-05 0)
(0.100024 -6.15651e-05 0)
(0.100002 -8.48273e-05 0)
(0.100003 8.60394e-06 0)
(0.100007 2.64285e-05 0)
(0.100015 4.54239e-05 0)
(0.100029 6.61109e-05 0)
(0.10005 8.76888e-05 0)
(0.10008 0.000108393 0)
(0.10012 0.000123065 0)
(0.10017 0.000125396 0)
(0.100225 0.000107432 0)
(0.100279 6.56946e-05 0)
(0.100315 1.75862e-06 0)
(0.100309 -7.70924e-05 0)
(0.100256 -0.000145024 0)
(0.100166 -0.000177481 0)
(0.100072 -0.000166853 0)
(0.100003 -0.000134808 0)
(0.0999794 -0.000102883 0)
(0.0999768 -9.36484e-05 0)
(0.0999894 -9.45057e-05 0)
(0.0999773 -0.000110836 0)
(0.100005 6.9067e-06 0)
(0.10001 2.09621e-05 0)
(0.100019 3.54129e-05 0)
(0.100033 5.01393e-05 0)
(0.100053 6.43705e-05 0)
(0.100079 7.65213e-05 0)
(0.100111 8.37871e-05 0)
(0.100148 8.27023e-05 0)
(0.100186 6.92177e-05 0)
(0.100218 4.06751e-05 0)
(0.100235 -4.68419e-06 0)
(0.100228 -5.7627e-05 0)
(0.100195 -0.000103597 0)
(0.100139 -0.000128181 0)
(0.100077 -0.000122969 0)
(0.100023 -9.93983e-05 0)
(0.0999952 -7.01752e-05 0)
(0.0999764 -5.5725e-05 0)
(0.0999769 -4.88081e-05 0)
(0.0999568 -5.98707e-05 0)
(0.100007 5.00925e-06 0)
(0.100012 1.49526e-05 0)
(0.100021 2.46685e-05 0)
(0.100034 3.39223e-05 0)
(0.100053 4.22034e-05 0)
(0.100076 4.83303e-05 0)
(0.100103 5.08536e-05 0)
(0.100131 4.73669e-05 0)
(0.100159 3.61825e-05 0)
(0.100182 1.55873e-05 0)
(0.100193 -1.16928e-05 0)
(0.100186 -4.21477e-05 0)
(0.100162 -6.81942e-05 0)
(0.100122 -8.42498e-05 0)
(0.100078 -8.50096e-05 0)
(0.100032 -7.70836e-05 0)
(0.100001 -6.38729e-05 0)
(0.0999727 -5.98412e-05 0)
(0.099965 -5.6341e-05 0)
(0.0999395 -6.85592e-05 0)
(0.100009 3.4223e-06 0)
(0.100013 1.04322e-05 0)
(0.100021 1.74287e-05 0)
(0.100034 2.4222e-05 0)
(0.100051 3.03003e-05 0)
(0.100071 3.50246e-05 0)
(0.100094 3.7527e-05 0)
(0.100117 3.68693e-05 0)
(0.100138 3.1964e-05 0)
(0.100153 2.23615e-05 0)
(0.10016 8.52803e-06 0)
(0.100155 -7.13053e-06 0)
(0.100137 -2.06691e-05 0)
(0.100105 -2.97484e-05 0)
(0.100068 -3.12338e-05 0)
(0.100027 -2.82325e-05 0)
(0.0999972 -2.04078e-05 0)
(0.0999658 -1.70817e-05 0)
(0.0999542 -1.20699e-05 0)
(0.0999259 -1.99277e-05 0)
(0.10001 -4.2908e-07 0)
(0.100015 -1.01083e-06 0)
(0.100023 -1.30814e-06 0)
(0.100036 -1.45743e-06 0)
(0.100053 -1.67488e-06 0)
(0.100072 -2.26127e-06 0)
(0.100094 -3.37969e-06 0)
(0.100115 -5.35992e-06 0)
(0.100134 -8.20659e-06 0)
(0.100147 -1.22613e-05 0)
(0.100152 -1.70613e-05 0)
(0.100145 -2.31892e-05 0)
(0.100129 -2.90895e-05 0)
(0.1001 -3.41425e-05 0)
(0.100069 -3.59723e-05 0)
(0.10003 -3.68295e-05 0)
(0.100003 -3.43088e-05 0)
(0.0999669 -3.53811e-05 0)
(0.0999558 -3.2883e-05 0)
(0.0999147 -4.10998e-05 0)
)
;

boundaryField
{
    sides
    {
        type            calculated;
        value           nonuniform List<vector> 
40
(
(0.10001 0 0)
(0.100015 0 0)
(0.100023 0 0)
(0.100036 0 0)
(0.100053 0 0)
(0.100072 0 0)
(0.100094 0 0)
(0.100115 0 0)
(0.100134 0 0)
(0.100147 0 0)
(0.100152 0 0)
(0.100145 0 0)
(0.100129 0 0)
(0.1001 0 0)
(0.100069 0 0)
(0.10003 0 0)
(0.100003 0 0)
(0.0999669 0 0)
(0.0999558 0 0)
(0.0999147 0 0)
(0.0999964 0 0)
(0.100001 0 0)
(0.10001 0 0)
(0.100023 0 0)
(0.10004 0 0)
(0.100061 0 0)
(0.100083 0 0)
(0.100107 0 0)
(0.100128 0 0)
(0.100144 0 0)
(0.100152 0 0)
(0.100152 0 0)
(0.10014 0 0)
(0.10012 0 0)
(0.100093 0 0)
(0.100068 0 0)
(0.100045 0 0)
(0.100034 0 0)
(0.100025 0 0)
(0.100033 0 0)
)
;
    }
    inlet
    {
        type            calculated;
        value           nonuniform List<vector> 
20
(
(0.0999962 0 0)
(0.0999967 0 0)
(0.0999967 0 0)
(0.0999961 0 0)
(0.0999951 0 0)
(0.0999938 0 0)
(0.0999923 0 0)
(0.0999909 0 0)
(0.0999899 0 0)
(0.0999898 0 0)
(0.0999905 0 0)
(0.0999919 0 0)
(0.0999943 0 0)
(0.0999971 0 0)
(0.1 0 0)
(0.100003 0 0)
(0.100005 0 0)
(0.100007 0 0)
(0.100008 0 0)
(0.10001 0 0)
)
;
    }
    outlet
    {
        type            calculated;
        value           nonuniform List<vector> 
20
(
(0.100033 -2.68297e-05 0)
(0.100029 8.12855e-06 0)
(0.10003 -1.16928e-05 0)
(0.100034 5.65465e-08 0)
(0.100043 1.67837e-05 0)
(0.100054 4.96282e-06 0)
(0.100066 5.33488e-05 0)
(0.100085 1.02517e-05 0)
(0.100054 2.43899e-05 0)
(0.0998505 -1.84513e-05 0)
(0.0998455 -8.88446e-05 0)
(0.100037 -0.000125062 0)
(0.100055 -0.000107376 0)
(0.100024 -0.00015153 0)
(0.1 -8.48263e-05 0)
(0.0999766 -0.000110835 0)
(0.0999559 -5.98702e-05 0)
(0.0999387 -6.85586e-05 0)
(0.0999251 -1.99275e-05 0)
(0.0999133 -4.10992e-05 0)
)
;
    }
    frontAndBack
    {
        type            empty;
    }
}


// ************************************************************************* //
