/*--------------------------------*- C++ -*----------------------------------*\
  =========                 |
  \\      /  F ield         | OpenFOAM: The Open Source CFD Toolbox
   \\    /   O peration     | Website:  https://openfoam.org
    \\  /    A nd           | Version:  9
     \\/     M anipulation  |
\*---------------------------------------------------------------------------*/
FoamFile
{
    format      ascii;
    class       volVectorField;
    location    "43";
    object      ddt0(hU);
}
// * * * * * * * * * * * * * * * * * * * * * * * * * * * * * * * * * * * * * //

dimensions      [0 2 -2 0 0 0 0];

internalField   nonuniform List<vector> 
400
(
(-1.09052e-08 -6.5821e-09 0)
(-1.923e-08 -1.39452e-08 0)
(-6.90172e-09 -1.34528e-08 0)
(-1.012e-08 -6.94042e-09 0)
(-2.61636e-08 -1.87105e-09 0)
(-3.55746e-08 -3.22764e-09 0)
(-2.71248e-08 -9.10779e-09 0)
(-6.54936e-10 -7.67904e-09 0)
(2.55941e-08 -2.55765e-09 0)
(2.95499e-08 5.86593e-09 0)
(2.21833e-08 8.83405e-09 0)
(1.25439e-08 2.42268e-09 0)
(1.0994e-08 4.26595e-10 0)
(1.5921e-08 -2.95085e-09 0)
(1.26025e-08 5.01682e-10 0)
(2.53267e-09 5.91907e-09 0)
(-1.263e-08 6.09985e-09 0)
(-2.10606e-08 3.10554e-09 0)
(-4.88754e-09 2.03103e-09 0)
(3.81897e-09 8.12649e-10 0)
(-9.23835e-09 -1.54439e-08 0)
(-1.82098e-08 -3.38824e-08 0)
(-8.79682e-09 -3.53614e-08 0)
(-1.20998e-08 -2.03376e-08 0)
(-2.45346e-08 -4.90441e-09 0)
(-3.14704e-08 -7.97512e-09 0)
(-2.27083e-08 -1.93066e-08 0)
(1.31985e-09 -1.86523e-08 0)
(2.36126e-08 -2.9217e-09 0)
(3.25339e-08 9.98705e-09 0)
(1.84953e-08 1.78556e-08 0)
(1.57821e-08 4.39308e-09 0)
(1.20587e-08 -6.06237e-09 0)
(1.14341e-08 -9.11739e-09 0)
(1.13071e-08 -5.9283e-10 0)
(1.78478e-09 1.44563e-08 0)
(-7.62164e-09 1.65544e-08 0)
(-1.15419e-08 -7.23026e-09 0)
(-6.30253e-09 -1.97793e-08 0)
(-6.14415e-09 -2.71022e-09 0)
(-6.47674e-09 -2.06656e-08 0)
(-1.70844e-08 -4.93062e-08 0)
(-1.33494e-08 -5.23755e-08 0)
(-1.55802e-08 -2.70335e-08 0)
(-2.20454e-08 -3.08643e-09 0)
(-2.3495e-08 -9.43664e-09 0)
(-1.65728e-08 -2.48027e-08 0)
(6.03301e-09 -2.68626e-08 0)
(1.81485e-08 -4.89132e-09 0)
(2.85172e-08 1.05137e-08 0)
(2.14355e-08 1.34793e-08 0)
(1.30979e-08 4.54158e-09 0)
(1.91003e-08 -2.40489e-08 0)
(1.29027e-08 -2.21783e-08 0)
(9.69915e-09 -3.77913e-09 0)
(2.22438e-09 1.80738e-08 0)
(-1.39098e-08 2.23591e-08 0)
(-2.03986e-08 -6.90773e-09 0)
(-3.6538e-09 -2.50091e-08 0)
(7.18166e-10 -5.39727e-09 0)
(-4.3963e-09 -2.55179e-08 0)
(-1.51046e-08 -6.42239e-08 0)
(-1.46359e-08 -6.47791e-08 0)
(-1.72009e-08 -2.76304e-08 0)
(-1.8736e-08 9.63023e-10 0)
(-1.79839e-08 -7.46183e-09 0)
(-7.45673e-09 -3.17446e-08 0)
(5.41808e-09 -3.2108e-08 0)
(2.23223e-08 -2.28055e-08 0)
(1.31055e-08 1.48967e-08 0)
(3.17281e-08 8.78821e-09 0)
(1.20834e-08 -6.27711e-09 0)
(1.40362e-08 -3.22299e-08 0)
(2.5798e-08 -4.14615e-08 0)
(1.2412e-08 -1.23042e-08 0)
(2.10971e-09 2.02442e-08 0)
(-3.18453e-09 2.46371e-08 0)
(-5.52174e-09 -1.4511e-08 0)
(-9.07723e-09 -3.74025e-08 0)
(-1.40879e-08 -8.91909e-09 0)
(-2.49561e-09 -2.87314e-08 0)
(-1.13753e-08 -7.10758e-08 0)
(-1.53612e-08 -6.86648e-08 0)
(-1.77919e-08 -2.68138e-08 0)
(-1.53899e-08 4.26676e-09 0)
(-9.55228e-09 -6.56921e-09 0)
(-1.79378e-10 -3.28897e-08 0)
(2.53162e-09 -4.77451e-08 0)
(1.71844e-08 -2.63133e-08 0)
(2.07298e-08 -5.0045e-10 0)
(1.59101e-09 1.94174e-08 0)
(3.21655e-08 -2.06664e-08 0)
(7.74815e-09 -3.29872e-08 0)
(1.46687e-08 -3.98252e-08 0)
(2.59272e-08 -2.06697e-08 0)
(9.69937e-09 1.42723e-08 0)
(-1.08046e-08 2.26946e-08 0)
(-1.66817e-08 -2.22279e-08 0)
(-3.14302e-09 -5.14333e-08 0)
(-8.82064e-10 -1.35779e-08 0)
(6.35781e-10 -2.9032e-08 0)
(-5.9158e-09 -6.9627e-08 0)
(-1.44522e-08 -6.56149e-08 0)
(-1.80924e-08 -2.41628e-08 0)
(-1.23734e-08 5.42713e-09 0)
(-1.80873e-09 -5.38903e-09 0)
(-1.31593e-09 -3.737e-08 0)
(1.04519e-08 -5.51851e-08 0)
(-4.11246e-09 -2.1176e-08 0)
(3.02082e-08 -2.40518e-09 0)
(6.22236e-09 2.05745e-08 0)
(8.25128e-09 8.37486e-09 0)
(3.39291e-08 -4.46425e-08 0)
(5.95967e-09 -3.8783e-08 0)
(8.02735e-09 -1.69686e-08 0)
(1.28122e-08 1.01488e-08 0)
(3.69142e-09 1.76908e-08 0)
(-5.96372e-09 -1.61424e-08 0)
(-1.18951e-08 -4.22804e-08 0)
(-9.85466e-09 -1.29479e-08 0)
(4.27522e-09 -2.4776e-08 0)
(1.70779e-11 -6.04992e-08 0)
(-1.36028e-08 -5.73007e-08 0)
(-1.87579e-08 -2.17757e-08 0)
(-8.4868e-09 4.40617e-09 0)
(1.81077e-09 -6.49079e-09 0)
(5.84262e-09 -3.74349e-08 0)
(1.43595e-09 -4.08436e-08 0)
(1.42087e-08 -2.45589e-08 0)
(-1.50154e-08 3.93064e-08 0)
(7.99892e-08 -1.29559e-07 0)
(-1.00273e-08 2.33674e-08 0)
(-1.07338e-08 -1.88353e-08 0)
(2.3162e-08 -3.76363e-08 0)
(1.27377e-08 -1.39051e-08 0)
(7.63027e-09 1.25405e-08 0)
(4.80483e-09 1.3839e-08 0)
(-3.63306e-09 -2.28283e-08 0)
(-1.33764e-08 -4.53938e-08 0)
(-1.03262e-08 -1.20754e-08 0)
(6.7664e-09 -1.74119e-08 0)
(4.57376e-09 -4.56841e-08 0)
(-1.31918e-08 -4.47658e-08 0)
(-1.91134e-08 -1.92395e-08 0)
(-6.68624e-09 2.40781e-09 0)
(8.00479e-09 -7.2283e-09 0)
(1.02235e-08 -3.20589e-08 0)
(6.14151e-09 -3.16701e-08 0)
(2.11321e-08 -8.87953e-09 0)
(-1.45365e-07 -1.62873e-08 0)
(5.54355e-07 1.55008e-07 0)
(2.20427e-07 -3.71563e-08 0)
(-1.1988e-08 -2.74086e-08 0)
(-5.35638e-09 -2.29206e-08 0)
(1.08403e-08 -1.12895e-08 0)
(8.31402e-09 9.36408e-09 0)
(5.03242e-09 1.08963e-08 0)
(1.10342e-09 -1.73637e-08 0)
(-1.30734e-08 -3.47402e-08 0)
(-1.384e-08 -9.7633e-09 0)
(7.45501e-09 -9.93297e-09 0)
(7.50226e-09 -2.83877e-08 0)
(-1.41297e-08 -2.94451e-08 0)
(-1.9536e-08 -1.43805e-08 0)
(-4.10712e-09 1.08091e-09 0)
(9.45149e-09 -2.16331e-09 0)
(1.37832e-08 -2.07583e-08 0)
(1.31244e-08 -2.2727e-08 0)
(-1.35373e-08 -7.44758e-09 0)
(1.60866e-07 -1.8718e-08 0)
(-5.2016e-07 1.37011e-07 0)
(-1.82643e-07 -3.48495e-08 0)
(5.48675e-08 -1.99317e-08 0)
(3.16293e-08 -1.52869e-08 0)
(1.01151e-08 -8.10829e-09 0)
(7.59973e-09 -3.1061e-10 0)
(-4.56545e-09 1.54326e-09 0)
(6.34733e-09 -1.45264e-08 0)
(-1.27664e-08 -2.66843e-08 0)
(-1.61836e-08 -7.81161e-09 0)
(7.30938e-09 -3.0708e-09 0)
(8.43246e-09 -9.93526e-09 0)
(-1.43284e-08 -1.16609e-08 0)
(-1.85452e-08 -7.50211e-09 0)
(-2.55109e-10 -4.57607e-10 0)
(1.45912e-08 4.02967e-10 0)
(1.52237e-08 -9.25895e-09 0)
(8.93251e-09 -1.35146e-08 0)
(-2.50429e-10 -1.76535e-08 0)
(2.14207e-08 2.85687e-08 0)
(-4.80685e-08 -1.25233e-07 0)
(5.74967e-08 2.96757e-08 0)
(4.40349e-08 1.60439e-08 0)
(4.62642e-09 -3.65613e-09 0)
(3.68085e-09 -2.84575e-09 0)
(3.93667e-09 -7.96907e-09 0)
(2.31649e-08 -1.05215e-08 0)
(1.10966e-08 -1.4499e-08 0)
(-7.50015e-09 -1.90175e-08 0)
(-1.55127e-08 -6.34662e-09 0)
(6.62287e-09 4.06931e-09 0)
(7.59123e-09 1.00067e-08 0)
(-1.44986e-08 8.13173e-09 0)
(-1.68885e-08 6.87005e-10 0)
(1.73351e-09 -5.79149e-09 0)
(1.35255e-08 -3.18357e-09 0)
(1.37036e-08 -4.86466e-10 0)
(-1.97715e-10 -6.51991e-09 0)
(1.36973e-08 -1.03901e-09 0)
(9.05318e-09 -2.92954e-08 0)
(-4.40115e-08 6.46823e-08 0)
(3.83085e-08 1.879e-08 0)
(3.65252e-09 -2.66594e-09 0)
(5.04492e-09 1.24871e-08 0)
(-4.55864e-09 4.54354e-09 0)
(-3.82863e-09 -7.86579e-09 0)
(1.25144e-08 -1.09488e-08 0)
(1.8024e-08 -3.25221e-09 0)
(-2.10846e-09 -3.55046e-09 0)
(-1.21273e-08 -3.72073e-09 0)
(5.46925e-09 1.0688e-08 0)
(4.89658e-09 2.93282e-08 0)
(-1.41319e-08 2.78641e-08 0)
(-1.57623e-08 9.38132e-09 0)
(1.63673e-09 -9.68755e-09 0)
(1.11209e-08 -9.01022e-09 0)
(8.21317e-09 1.15433e-08 0)
(6.71398e-09 1.64167e-08 0)
(-1.91043e-08 8.09927e-09 0)
(4.7975e-08 6.56158e-09 0)
(5.37653e-07 -8.14302e-08 0)
(-1.07122e-07 -1.78962e-09 0)
(2.93106e-08 2.45987e-08 0)
(1.51384e-08 2.22481e-08 0)
(-1.02889e-08 1.06448e-08 0)
(3.29642e-10 5.73082e-10 0)
(1.77147e-08 -5.95301e-09 0)
(1.79343e-08 7.01757e-09 0)
(-3.4177e-09 9.96989e-09 0)
(-1.28532e-08 -3.32229e-10 0)
(3.82079e-09 1.76631e-08 0)
(1.95004e-09 4.74428e-08 0)
(-1.28367e-08 4.52788e-08 0)
(-1.47838e-08 1.62807e-08 0)
(-2.50684e-09 -1.16932e-08 0)
(9.09705e-09 -1.04729e-08 0)
(9.56723e-09 1.57197e-08 0)
(4.3859e-09 3.46078e-08 0)
(1.86251e-08 1.55875e-08 0)
(-5.00995e-08 1.68977e-08 0)
(-4.92884e-07 -6.21718e-08 0)
(1.56737e-07 8.60378e-09 0)
(1.44779e-08 3.42268e-08 0)
(-3.33306e-09 3.16349e-08 0)
(6.2452e-09 2.13886e-08 0)
(8.49448e-09 2.07406e-09 0)
(9.89791e-09 -9.75261e-09 0)
(8.6717e-09 1.25428e-08 0)
(-6.54989e-09 2.06716e-08 0)
(-1.36456e-08 2.00421e-09 0)
(1.51758e-09 2.48715e-08 0)
(-1.98731e-09 6.28741e-08 0)
(-1.25793e-08 5.88046e-08 0)
(-1.47542e-08 2.0502e-08 0)
(-6.18071e-09 -1.08118e-08 0)
(2.89623e-09 -7.07442e-09 0)
(7.87842e-09 1.90524e-08 0)
(8.86424e-09 3.42204e-08 0)
(2.03815e-09 2.3051e-08 0)
(4.46583e-09 -1.96135e-08 0)
(7.52016e-08 6.77898e-08 0)
(-5.00643e-09 1.4684e-08 0)
(2.14199e-08 3.34058e-08 0)
(2.24328e-08 4.67247e-08 0)
(1.25033e-08 2.61015e-08 0)
(6.69494e-09 -7.67985e-09 0)
(4.91626e-09 -1.93917e-08 0)
(1.73369e-09 1.27028e-08 0)
(-9.72005e-09 2.70195e-08 0)
(-1.42893e-08 3.59937e-09 0)
(-7.53879e-10 3.00998e-08 0)
(-7.00136e-09 7.20349e-08 0)
(-1.29573e-08 6.73914e-08 0)
(-1.41552e-08 2.36536e-08 0)
(-1.03163e-08 -7.7911e-09 0)
(-4.71779e-09 3.7955e-10 0)
(3.479e-09 2.62657e-08 0)
(7.69534e-09 3.39646e-08 0)
(9.84176e-09 1.52538e-08 0)
(1.67828e-08 -1.63635e-09 0)
(1.17853e-08 -2.1985e-08 0)
(2.49627e-08 1.60678e-08 0)
(2.26044e-08 5.04598e-08 0)
(1.67282e-08 4.73031e-08 0)
(8.31332e-09 1.86707e-08 0)
(1.94368e-09 -1.62696e-08 0)
(-1.33984e-09 -2.76081e-08 0)
(-3.38283e-09 8.6942e-09 0)
(-7.59016e-09 2.93129e-08 0)
(-1.1957e-08 5.03739e-09 0)
(-3.08619e-09 3.21508e-08 0)
(-1.20832e-08 7.38165e-08 0)
(-1.35395e-08 7.02237e-08 0)
(-1.33805e-08 2.59432e-08 0)
(-1.29376e-08 -6.46449e-09 0)
(-1.14076e-08 6.87977e-09 0)
(-5.19286e-09 3.393e-08 0)
(6.03835e-09 3.53684e-08 0)
(1.41389e-08 1.22472e-08 0)
(9.83329e-09 -1.55849e-08 0)
(1.55885e-08 -1.69044e-08 0)
(2.4023e-08 5.39718e-09 0)
(1.56114e-08 3.18417e-08 0)
(1.09301e-08 3.49217e-08 0)
(6.9188e-09 9.88448e-09 0)
(1.43322e-09 -2.34323e-08 0)
(-4.52636e-09 -3.12362e-08 0)
(-3.93719e-09 9.83747e-09 0)
(-2.16637e-09 3.11715e-08 0)
(-9.62196e-09 5.17639e-09 0)
(-5.63582e-09 2.98488e-08 0)
(-1.59824e-08 6.72186e-08 0)
(-1.31744e-08 6.61496e-08 0)
(-1.31222e-08 2.78512e-08 0)
(-1.49419e-08 -3.88117e-09 0)
(-1.73094e-08 5.9685e-09 0)
(-1.19864e-08 3.42058e-08 0)
(1.69299e-09 3.63894e-08 0)
(1.53268e-08 1.22157e-08 0)
(2.1582e-08 -1.20085e-08 0)
(1.58164e-08 -1.292e-08 0)
(1.08722e-08 3.03437e-09 0)
(1.46993e-08 2.6447e-08 0)
(1.39622e-08 2.83219e-08 0)
(7.82283e-09 5.63181e-09 0)
(3.85535e-09 -2.3226e-08 0)
(3.29605e-10 -2.68704e-08 0)
(-1.9253e-09 1.15836e-08 0)
(-1.56617e-09 2.86338e-08 0)
(-9.58067e-09 3.95905e-09 0)
(-8.18779e-09 2.3579e-08 0)
(-1.76825e-08 5.43918e-08 0)
(-9.96416e-09 5.54457e-08 0)
(-1.16274e-08 2.62718e-08 0)
(-1.882e-08 -1.53522e-09 0)
(-2.38576e-08 2.07476e-09 0)
(-1.82114e-08 2.51732e-08 0)
(3.32821e-10 3.08447e-08 0)
(2.04699e-08 1.27529e-08 0)
(2.51701e-08 -7.25729e-09 0)
(2.25669e-08 -1.05427e-08 0)
(1.55131e-08 6.28884e-09 0)
(9.75955e-09 2.47451e-08 0)
(1.02428e-08 2.61558e-08 0)
(1.19673e-08 1.00656e-08 0)
(1.18871e-08 -1.11568e-08 0)
(2.49197e-09 -1.63844e-08 0)
(-6.05394e-09 9.7222e-09 0)
(-4.41427e-09 2.11176e-08 0)
(-1.00558e-08 2.08913e-09 0)
(-9.26447e-09 1.29453e-08 0)
(-1.6778e-08 3.30805e-08 0)
(-6.95082e-09 3.66651e-08 0)
(-1.11579e-08 2.08251e-08 0)
(-2.32729e-08 1.73198e-09 0)
(-2.95627e-08 -2.63866e-10 0)
(-2.23895e-08 1.06696e-08 0)
(-1.04069e-09 1.64602e-08 0)
(2.10921e-08 6.69899e-09 0)
(2.92019e-08 -4.63333e-09 0)
(2.01685e-08 -5.16512e-09 0)
(9.79948e-09 3.06386e-09 0)
(1.32528e-08 1.67873e-08 0)
(1.99281e-08 2.11051e-08 0)
(2.03018e-08 1.36803e-08 0)
(1.2423e-08 -1.36649e-09 0)
(-5.10308e-09 -9.01557e-09 0)
(-1.58949e-08 5.53168e-09 0)
(-1.00975e-08 1.19723e-08 0)
(-1.08476e-08 1.95336e-10 0)
(-9.45379e-09 3.10911e-09 0)
(-1.47443e-08 9.50769e-09 0)
(-3.1813e-09 1.23191e-08 0)
(-9.41456e-09 9.01816e-09 0)
(-2.63049e-08 2.36978e-09 0)
(-3.41203e-08 -3.70645e-10 0)
(-2.61886e-08 1.11771e-09 0)
(-1.44934e-09 3.16335e-09 0)
(2.23652e-08 1.66764e-09 0)
(3.04085e-08 -1.04115e-09 0)
(2.16521e-08 -2.33504e-09 0)
(1.31212e-08 2.99048e-09 0)
(1.31444e-08 8.63822e-09 0)
(1.85592e-08 8.71367e-09 0)
(1.97573e-08 5.51757e-09 0)
(9.22844e-09 -1.53662e-11 0)
(-1.02711e-08 -3.50615e-09 0)
(-2.14643e-08 1.22489e-09 0)
(-1.47835e-08 3.60319e-09 0)
(-1.15767e-08 -1.43992e-10 0)
)
;

boundaryField
{
    sides
    {
        type            calculated;
        value           nonuniform List<vector> 
40
(
(-9.45379e-09 0 0)
(-1.47443e-08 0 0)
(-3.1813e-09 0 0)
(-9.41456e-09 0 0)
(-2.63049e-08 0 0)
(-3.41203e-08 0 0)
(-2.61886e-08 0 0)
(-1.44934e-09 0 0)
(2.23652e-08 0 0)
(3.04085e-08 0 0)
(2.16521e-08 0 0)
(1.31212e-08 0 0)
(1.31444e-08 0 0)
(1.85592e-08 0 0)
(1.97573e-08 0 0)
(9.22844e-09 0 0)
(-1.02711e-08 0 0)
(-2.14643e-08 0 0)
(-1.47835e-08 0 0)
(-1.15767e-08 0 0)
(-1.09052e-08 0 0)
(-1.923e-08 0 0)
(-6.90172e-09 0 0)
(-1.012e-08 0 0)
(-2.61636e-08 0 0)
(-3.55746e-08 0 0)
(-2.71248e-08 0 0)
(-6.54936e-10 0 0)
(2.55941e-08 0 0)
(2.95499e-08 0 0)
(2.21833e-08 0 0)
(1.25439e-08 0 0)
(1.0994e-08 0 0)
(1.5921e-08 0 0)
(1.26025e-08 0 0)
(2.53267e-09 0 0)
(-1.263e-08 0 0)
(-2.10606e-08 0 0)
(-4.88754e-09 0 0)
(3.81897e-09 0 0)
)
;
    }
    inlet
    {
        type            calculated;
        value           uniform (0 0 0);
    }
    outlet
    {
        type            calculated;
        value           nonuniform List<vector> 
20
(
(3.81897e-09 8.12649e-10 0)
(-6.14415e-09 -2.71022e-09 0)
(7.18166e-10 -5.39727e-09 0)
(-1.40879e-08 -8.91909e-09 0)
(-8.82064e-10 -1.35779e-08 0)
(-9.85466e-09 -1.29479e-08 0)
(-1.03262e-08 -1.20754e-08 0)
(-1.384e-08 -9.7633e-09 0)
(-1.61836e-08 -7.81161e-09 0)
(-1.55127e-08 -6.34662e-09 0)
(-1.21273e-08 -3.72073e-09 0)
(-1.28532e-08 -3.32229e-10 0)
(-1.36456e-08 2.00421e-09 0)
(-1.42893e-08 3.59937e-09 0)
(-1.1957e-08 5.03739e-09 0)
(-9.62196e-09 5.17639e-09 0)
(-9.58067e-09 3.95905e-09 0)
(-1.00558e-08 2.08913e-09 0)
(-1.08476e-08 1.95336e-10 0)
(-1.15767e-08 -1.43992e-10 0)
)
;
    }
    frontAndBack
    {
        type            empty;
    }
}


// ************************************************************************* //
