/*--------------------------------*- C++ -*----------------------------------*\
  =========                 |
  \\      /  F ield         | OpenFOAM: The Open Source CFD Toolbox
   \\    /   O peration     | Website:  https://openfoam.org
    \\  /    A nd           | Version:  9
     \\/     M anipulation  |
\*---------------------------------------------------------------------------*/
FoamFile
{
    format      ascii;
    class       volScalarField;
    location    "43";
    object      ddt0(h);
}
// * * * * * * * * * * * * * * * * * * * * * * * * * * * * * * * * * * * * * //

dimensions      [0 1 -1 0 0 0 0];

internalField   nonuniform List<scalar> 
400
(
-7.55201e-08
2.89479e-09
6.9102e-08
1.44081e-07
1.89471e-07
1.98469e-07
1.67678e-07
1.07279e-07
5.28749e-08
-2.96403e-09
-1.42673e-08
-2.31451e-08
-3.15058e-08
-2.22877e-08
-2.36871e-09
1.93295e-08
2.642e-08
2.67716e-08
1.77293e-08
3.96202e-09
-5.71301e-08
5.61552e-09
7.79066e-08
1.50363e-07
1.79134e-07
1.85027e-07
1.50436e-07
8.99063e-08
1.83418e-08
-6.60682e-09
-5.35334e-08
-1.55983e-08
-3.38695e-08
-1.9305e-08
7.24747e-09
1.01233e-08
1.89422e-08
3.04243e-08
2.63421e-08
9.93557e-09
-3.2595e-08
1.57173e-08
9.3442e-08
1.40606e-07
1.527e-07
1.62318e-07
1.07683e-07
6.32693e-08
-1.84384e-08
-3.73969e-09
-3.66796e-08
-4.55891e-08
1.09359e-08
-5.11326e-09
5.09017e-09
8.61402e-09
1.50831e-08
2.76748e-08
2.78919e-08
9.83234e-09
4.5478e-09
4.41491e-08
1.0601e-07
1.17683e-07
1.37661e-07
1.13313e-07
8.04532e-08
-2.17405e-09
4.2884e-08
-6.37872e-08
5.30079e-08
-6.23364e-08
7.98875e-10
5.60068e-08
7.62437e-09
-3.48257e-09
5.08394e-09
2.15072e-08
2.98868e-08
1.79371e-08
4.94644e-08
7.86394e-08
1.02018e-07
1.05215e-07
1.05806e-07
8.51171e-08
2.01187e-08
2.69417e-08
3.51634e-08
-2.29695e-09
-1.32062e-07
6.69572e-08
-7.25198e-08
-7.92475e-09
4.52173e-08
1.41401e-08
-2.08767e-09
1.35689e-08
3.11812e-08
1.70074e-08
9.71012e-08
1.03086e-07
9.73552e-08
8.90597e-08
9.28431e-08
4.34026e-08
1.5082e-09
8.8048e-08
-1.06962e-07
9.84997e-08
-1.28328e-07
-1.02011e-07
2.65676e-08
-7.34808e-08
-3.11767e-08
5.09751e-09
-1.81443e-09
-6.28087e-09
4.02045e-09
4.48356e-09
1.39841e-07
1.17632e-07
9.14065e-08
8.93645e-08
7.59692e-08
2.08521e-08
2.90996e-08
-3.53242e-08
6.46517e-08
-3.16532e-07
4.1726e-07
-2.36107e-07
-1.3529e-07
-2.13681e-08
-3.59894e-08
-2.48185e-08
-2.12641e-08
-2.763e-08
-2.83913e-08
-1.2677e-08
1.65301e-07
1.24952e-07
9.88413e-08
8.85631e-08
6.98941e-08
1.0699e-08
-2.97718e-08
1.74327e-08
-1.076e-07
-2.24972e-07
5.41448e-06
3.70805e-07
-1.18508e-07
-7.70736e-08
-3.09421e-08
-2.78304e-08
-3.11557e-08
-4.73401e-08
-5.1987e-08
-2.37382e-08
1.72451e-07
1.31588e-07
1.06961e-07
9.35861e-08
4.90095e-08
5.45497e-09
-3.38861e-08
-6.66e-08
5.11626e-08
1.82827e-07
-5.42058e-06
-4.42312e-07
7.27718e-08
1.89793e-08
-1.66596e-08
-3.36178e-08
-1.67979e-07
-4.93324e-08
-5.28657e-08
-1.11651e-08
1.73987e-07
1.38921e-07
1.18485e-07
8.34878e-08
3.00622e-08
-1.57955e-09
-2.15195e-08
-1.01516e-08
-1.00285e-07
2.20955e-07
-4.2789e-07
1.93417e-07
5.13753e-08
-4.51505e-08
-4.80412e-08
-5.89995e-08
6.97202e-08
-4.56081e-08
-3.74507e-08
-3.08058e-08
1.75461e-07
1.45934e-07
1.19292e-07
7.70818e-08
6.87278e-09
8.34426e-09
1.74972e-08
-4.76299e-08
-1.04525e-08
-5.01978e-08
-5.6304e-07
1.01739e-07
-1.2812e-07
-5.60301e-08
-8.66103e-08
-8.02034e-08
-5.08256e-08
-2.4651e-08
-1.76277e-08
-8.3418e-09
1.71329e-07
1.47511e-07
1.12188e-07
7.42672e-08
1.57786e-08
-1.03799e-08
3.43229e-08
-3.18382e-08
-3.88049e-08
-2.07179e-07
4.79412e-06
-5.88236e-07
3.55535e-08
-6.55675e-08
-9.76062e-08
-5.97785e-08
-2.43181e-08
-1.22793e-08
-8.69359e-09
-4.23317e-09
1.54846e-07
1.40509e-07
1.05355e-07
7.75275e-08
4.18691e-08
2.61512e-09
-2.68676e-08
5.2839e-09
-6.19284e-08
9.24651e-08
-4.80069e-06
4.34083e-07
-1.1883e-07
-8.64642e-08
-4.4681e-08
-2.66087e-08
-2.28886e-08
-1.9738e-08
-1.13064e-08
-2.7125e-09
1.22303e-07
1.26466e-07
9.66665e-08
7.90873e-08
7.39868e-08
2.58732e-08
-2.89899e-08
-4.67158e-08
-3.6387e-09
-1.1466e-07
4.97882e-07
-1.77308e-07
-2.08993e-08
-1.30088e-08
-1.82093e-08
-2.42316e-08
-3.04141e-08
-2.44965e-08
-4.10881e-09
3.98264e-09
8.27623e-08
1.01927e-07
9.26234e-08
7.09674e-08
9.08127e-08
7.22968e-08
-3.72263e-09
-5.25966e-08
-5.60919e-08
-1.34134e-09
-6.01716e-08
5.03715e-09
-3.06115e-08
-1.59871e-08
-2.49359e-08
-3.63238e-08
-3.43575e-08
-1.49537e-08
1.61344e-08
1.60921e-08
4.00495e-08
7.13247e-08
8.65977e-08
7.15027e-08
8.32813e-08
1.06355e-07
5.65296e-08
-2.39403e-08
-4.40938e-08
-7.01215e-08
-9.12913e-08
-5.80398e-08
-3.75099e-08
-2.76719e-08
-4.12684e-08
-4.34755e-08
-1.81345e-08
1.60915e-08
4.24223e-08
2.60399e-08
-5.81792e-09
3.80072e-08
8.25541e-08
8.31432e-08
8.49946e-08
1.07628e-07
1.09385e-07
4.30976e-08
-1.63759e-08
-4.38043e-08
-6.1879e-08
-6.39728e-08
-5.18513e-08
-4.46061e-08
-4.49495e-08
-2.49752e-08
1.61011e-08
4.71119e-08
5.56486e-08
2.75399e-08
-5.0195e-08
6.51359e-09
7.56391e-08
1.05954e-07
1.12204e-07
1.11749e-07
1.18529e-07
8.20921e-08
2.84771e-08
-1.38457e-08
-2.23322e-08
-3.1689e-08
-3.23027e-08
-2.6453e-08
-1.37434e-08
1.4327e-08
4.07577e-08
4.87003e-08
3.91352e-08
1.58792e-08
-8.59109e-08
-2.4121e-08
5.72698e-08
1.26249e-07
1.53898e-07
1.40572e-07
1.12699e-07
7.99335e-08
3.2293e-08
-8.33289e-09
-1.7267e-08
-1.59575e-08
-1.74932e-08
-1.1369e-08
1.58128e-08
3.6818e-08
3.49865e-08
1.80374e-08
-1.6465e-09
-5.2404e-09
-9.77531e-08
-3.71054e-08
4.45117e-08
1.42612e-07
1.88379e-07
1.75283e-07
1.16521e-07
7.15075e-08
2.10257e-08
-1.51208e-08
-3.20613e-08
-2.37815e-08
-2.3784e-08
-1.42435e-08
2.05612e-08
3.39385e-08
1.82809e-08
-9.40167e-09
-3.32715e-08
-2.15711e-08
)
;

boundaryField
{
    sides
    {
        type            calculated;
        value           nonuniform List<scalar> 
40
(
-9.77531e-08
-3.71054e-08
4.45117e-08
1.42612e-07
1.88379e-07
1.75283e-07
1.16521e-07
7.15075e-08
2.10257e-08
-1.51208e-08
-3.20613e-08
-2.37815e-08
-2.3784e-08
-1.42435e-08
2.05612e-08
3.39385e-08
1.82809e-08
-9.40167e-09
-3.32715e-08
-2.15711e-08
-7.55201e-08
2.89479e-09
6.9102e-08
1.44081e-07
1.89471e-07
1.98469e-07
1.67678e-07
1.07279e-07
5.28749e-08
-2.96403e-09
-1.42673e-08
-2.31451e-08
-3.15058e-08
-2.22877e-08
-2.36871e-09
1.93295e-08
2.642e-08
2.67716e-08
1.77293e-08
3.96202e-09
)
;
    }
    inlet
    {
        type            calculated;
        value           nonuniform List<scalar> 
20
(
-7.55201e-08
-5.71301e-08
-3.2595e-08
4.5478e-09
4.94644e-08
9.71012e-08
1.39841e-07
1.65301e-07
1.72451e-07
1.73987e-07
1.75461e-07
1.71329e-07
1.54846e-07
1.22303e-07
8.27623e-08
4.00495e-08
-5.81792e-09
-5.0195e-08
-8.59109e-08
-9.77531e-08
)
;
    }
    outlet
    {
        type            calculated;
        value           uniform 0;
    }
    frontAndBack
    {
        type            empty;
    }
}


// ************************************************************************* //
