/*--------------------------------*- C++ -*----------------------------------*\
  =========                 |
  \\      /  F ield         | OpenFOAM: The Open Source CFD Toolbox
   \\    /   O peration     | Website:  https://openfoam.org
    \\  /    A nd           | Version:  9
     \\/     M anipulation  |
\*---------------------------------------------------------------------------*/
FoamFile
{
    format      ascii;
    class       surfaceScalarField;
    location    "43";
    object      ddtCorrDdt0(phi);
}
// * * * * * * * * * * * * * * * * * * * * * * * * * * * * * * * * * * * * * //

dimensions      [0 4 -2 0 0 0 0];

internalField   nonuniform List<scalar> 
760
(
-6.67942e-11
-4.9522e-11
-5.53612e-11
-1.07025e-10
-5.6547e-11
-1.15193e-10
-1.0698e-10
-7.18313e-11
-1.74011e-10
-2.55202e-11
-1.72635e-10
-2.29903e-11
-7.19476e-11
-7.05282e-11
7.5243e-11
-5.28048e-11
1.55639e-10
-1.40006e-11
1.35372e-10
4.85114e-11
1.01023e-10
7.26229e-11
5.48338e-11
1.30404e-11
7.67851e-11
1.38719e-12
7.18677e-11
-3.29872e-11
2.65341e-11
2.33704e-12
-3.2652e-11
5.94354e-11
-8.15104e-11
6.25826e-11
-7.30775e-11
-1.87065e-11
5.59225e-13
-6.37955e-11
-6.6056e-12
-5.7378e-11
-9.16617e-11
-5.93118e-11
-2.05414e-10
-7.05455e-11
-2.18655e-10
-1.0949e-10
-1.23811e-10
-1.5038e-10
-1.87129e-11
-1.58786e-10
-4.68457e-11
-4.37333e-11
-1.07988e-10
6.42372e-11
-1.15777e-10
1.6019e-10
1.36456e-12
1.42541e-10
4.59851e-11
8.5688e-11
1.17912e-10
8.34857e-11
1.56774e-11
4.9562e-11
-6.42044e-11
6.06764e-11
-6.3704e-11
2.40378e-11
-1.37972e-11
-2.00999e-11
7.59521e-11
-4.35921e-11
9.26449e-11
-4.79484e-11
-2.60437e-11
-3.39887e-11
-9.32771e-11
-2.02631e-11
-4.29791e-11
-1.19356e-10
-7.54528e-11
-2.88646e-10
-9.80807e-11
-3.02286e-10
-1.0045e-10
-1.41522e-10
-1.30815e-10
-7.83377e-12
-1.1199e-10
-4.5215e-11
-2.39603e-11
-1.34562e-10
8.55576e-11
-1.44268e-10
1.05238e-10
-4.44313e-11
1.59178e-10
5.52575e-11
6.7197e-11
2.90119e-11
1.02811e-10
2.62055e-11
7.93467e-11
-1.72764e-10
4.70716e-11
-1.56771e-10
3.12789e-11
-2.54828e-11
-3.4016e-11
1.04276e-10
-9.25813e-11
1.26294e-10
-6.27277e-11
-7.01372e-11
1.61417e-12
-1.88935e-10
-3.54296e-11
-3.74359e-11
-1.38243e-10
-8.4141e-11
-3.47595e-10
-9.76397e-11
-3.41747e-10
-9.27875e-11
-1.39229e-10
-1.15838e-10
1.05421e-11
-6.1467e-11
-2.51793e-11
8.73029e-13
-1.68269e-10
9.51837e-11
-1.59485e-10
7.17505e-11
-1.80266e-10
1.11314e-10
8.02207e-11
1.5695e-10
4.11056e-11
2.22275e-11
-8.36981e-11
1.25712e-10
-1.38321e-10
9.17704e-11
-2.45114e-10
3.03832e-11
-1.01038e-10
-8.41101e-13
8.4518e-11
-2.43893e-11
1.13547e-10
-3.81568e-11
-7.57127e-11
-6.02255e-11
-2.0176e-10
-5.47734e-11
-3.94926e-11
-1.52283e-10
-7.88322e-11
-3.59856e-10
-8.79545e-11
-3.40624e-10
-9.18634e-11
-1.2884e-10
-7.89519e-11
2.86734e-11
-3.01156e-11
-3.71329e-11
6.70137e-11
-1.42573e-10
-3.24544e-11
-3.16712e-10
1.84119e-10
-7.88934e-11
-1.24011e-11
-1.05119e-10
1.32133e-10
2.37039e-10
1.09522e-10
-1.19097e-10
1.6139e-11
-2.05252e-10
1.30066e-10
-1.41813e-10
9.53353e-11
-8.97532e-11
-8.06698e-12
5.5602e-11
-8.38481e-11
1.0356e-10
-5.13549e-11
-1.14017e-10
-5.77972e-12
-2.49381e-10
-6.82775e-11
-3.18428e-11
-1.42734e-10
-6.05206e-11
-3.31945e-10
-7.66871e-11
-3.09258e-10
-8.42783e-11
-1.14112e-10
-6.78957e-11
1.92236e-11
4.79575e-11
-1.65951e-11
-1.76967e-11
-2.20092e-10
5.21773e-11
-2.17161e-10
9.20547e-12
-1.33088e-10
1.97137e-10
9.44004e-11
-7.51843e-11
7.89562e-11
1.80771e-10
3.01373e-10
8.94513e-11
-1.86169e-10
1.73804e-11
-2.15385e-10
6.94402e-11
-5.71035e-11
4.85056e-11
6.17287e-11
-2.0386e-11
7.99928e-11
-5.66251e-11
-1.01524e-10
-5.13233e-11
-2.23516e-10
-6.23032e-11
-1.6214e-11
-1.09633e-10
-3.98285e-11
-2.68778e-10
-6.80063e-11
-2.56584e-10
-8.84147e-11
-1.06535e-10
-2.08788e-11
1.82482e-11
3.71514e-11
-4.7573e-11
1.21773e-11
-1.50826e-10
4.8507e-11
-1.88059e-10
-1.95639e-11
-1.19871e-10
1.62382e-10
4.01594e-10
2.68181e-10
-2.69903e-09
-1.76286e-10
-1.53761e-10
8.63612e-11
5.25079e-12
9.12617e-11
-1.52134e-10
5.41887e-11
-8.16341e-11
3.76505e-11
3.82811e-11
-5.97603e-12
2.22392e-10
-5.64214e-11
-8.0473e-11
-5.60232e-11
-2.04624e-10
-5.25944e-11
1.80967e-13
-6.80203e-11
-2.61176e-11
-1.86662e-10
-6.9737e-11
-1.87223e-10
-7.61379e-11
-8.61021e-11
-1.53335e-11
5.82231e-13
8.03422e-11
-1.88328e-11
4.16447e-11
-1.4106e-10
-3.50132e-11
-7.48356e-11
2.92945e-10
1.68296e-12
-2.74257e-10
-6.05997e-10
3.10862e-09
2.07907e-08
1.43444e-10
-1.21418e-10
-6.95341e-11
-2.7872e-10
3.18802e-11
-1.25981e-10
6.45886e-11
-6.75863e-11
2.79718e-11
1.74678e-11
7.77371e-12
2.32439e-11
-2.96759e-11
-8.59249e-11
-7.25316e-11
-1.55258e-10
-4.19792e-11
1.05693e-11
-2.96817e-11
-2.28583e-11
-9.56488e-11
-7.63396e-11
-1.06425e-10
-6.76363e-11
-5.71864e-11
9.74909e-12
6.88235e-12
5.69296e-11
-1.09179e-11
8.61741e-11
-6.42738e-11
1.06683e-10
-1.44437e-10
-2.63067e-10
-9.67725e-11
4.39343e-10
3.82208e-10
-2.96745e-09
-2.5646e-09
7.3388e-11
-8.96227e-11
2.46045e-10
1.43412e-10
8.14698e-11
1.4136e-11
6.04568e-11
-5.24181e-11
7.41914e-12
-3.28188e-11
-1.83125e-12
1.13648e-09
-1.89679e-11
-8.05607e-11
-7.73616e-11
-1.08097e-10
-8.97316e-11
1.55413e-11
2.28232e-12
-2.80325e-11
-1.61604e-12
-7.95473e-11
-1.07899e-11
-4.28143e-11
-1.96317e-11
3.59693e-11
-1.11367e-11
7.80794e-11
2.24593e-12
6.86147e-11
-5.51491e-11
2.18777e-11
-3.89811e-11
8.23209e-11
-9.13911e-11
-1.09164e-10
6.79952e-11
-1.74434e-11
1.44075e-10
3.57804e-10
2.70964e-10
5.95361e-11
3.64202e-11
3.56007e-11
3.47984e-11
1.89176e-11
1.5563e-11
7.15445e-11
-4.18347e-11
8.97182e-11
-7.28639e-11
4.6134e-12
-5.617e-11
-6.41326e-11
-6.12834e-11
-2.55822e-11
8.93357e-12
3.39126e-11
-3.24835e-11
9.77816e-11
-7.88232e-11
9.00276e-11
-2.93358e-11
2.77831e-11
5.91961e-11
-4.53651e-11
4.17897e-11
-2.48942e-11
6.30647e-11
4.56067e-11
-2.10584e-11
-2.45623e-11
1.40749e-10
1.22732e-10
-1.51247e-10
-4.20426e-10
3.19275e-11
-1.10938e-09
7.41199e-11
5.34174e-11
1.92951e-11
-4.30247e-11
1.96344e-11
7.57312e-11
-3.74659e-11
4.25297e-11
2.7641e-11
-3.62471e-11
8.4316e-11
-5.276e-11
3.94429e-11
1.07724e-11
-4.3964e-11
1.52327e-11
-1.02939e-11
-5.74027e-12
7.20163e-11
-3.80758e-11
1.94675e-10
-6.73328e-11
1.86801e-10
-3.6014e-11
6.24664e-11
4.92305e-11
-5.60411e-11
5.20625e-11
-6.09036e-11
-4.06925e-12
8.0624e-11
8.71074e-11
1.49861e-10
-2.99607e-10
-7.85332e-11
2.12604e-09
4.26222e-10
5.64942e-10
-7.10793e-09
-7.10409e-11
-1.75504e-10
1.48355e-10
2.03852e-10
-9.60319e-13
1.13344e-10
-3.29951e-11
7.63766e-11
4.98254e-11
4.15965e-11
9.48821e-11
-3.25063e-11
3.66406e-11
6.34913e-11
-4.83541e-11
8.42839e-11
5.69048e-12
-1.68073e-11
1.10928e-10
-4.13253e-11
2.81461e-10
-5.62812e-11
2.62304e-10
-4.77117e-11
9.73602e-11
1.06309e-11
-6.11141e-11
6.12671e-11
-4.9594e-11
4.42681e-11
7.91679e-11
-1.49661e-11
1.819e-10
2.67232e-10
1.63676e-10
-2.04553e-09
-3.07752e-10
-2.76243e-10
5.60386e-10
2.89032e-10
1.70246e-10
1.38194e-12
8.99075e-11
1.15863e-11
2.04926e-10
4.10142e-11
1.30134e-10
4.73711e-11
-9.22895e-12
4.89141e-11
-6.20797e-11
1.62598e-12
6.25179e-11
-5.82423e-11
1.19346e-10
1.34869e-11
-2.56045e-11
1.42772e-10
-5.39945e-11
3.43803e-10
-4.9436e-11
3.19103e-10
-6.23722e-11
1.12671e-10
-2.53019e-11
-3.91207e-11
3.231e-11
-2.31899e-11
6.68777e-11
1.0361e-10
4.72501e-11
1.59436e-10
-6.19627e-11
8.32748e-11
3.01411e-10
1.00263e-10
1.14439e-10
-1.08972e-10
4.58002e-11
5.05861e-11
1.29288e-10
2.63531e-10
8.37075e-11
2.5076e-10
5.12554e-11
1.23e-10
2.86187e-11
-4.74866e-11
1.68886e-11
-1.13529e-10
-2.72988e-11
5.30709e-11
-6.44645e-11
1.40056e-10
2.09564e-11
-3.19075e-11
1.61834e-10
-7.00015e-11
3.715e-10
-5.73041e-11
3.49539e-10
-5.84569e-11
1.26187e-10
-6.7831e-11
-2.99802e-11
-6.26247e-12
2.88022e-11
5.88341e-11
1.39902e-10
4.11739e-11
1.58529e-10
7.54127e-11
7.1417e-11
6.29627e-11
-8.07976e-11
9.36385e-11
-4.44393e-10
1.3314e-10
7.22106e-11
9.221e-11
1.91345e-10
6.62772e-11
2.12017e-10
2.80397e-11
7.24501e-11
-1.74337e-12
-1.07069e-10
-1.47419e-11
-1.58131e-10
-3.09335e-11
4.05547e-11
-5.10348e-11
1.49393e-10
2.54421e-11
-3.79737e-11
1.62808e-10
-8.20163e-11
3.60545e-10
-7.29363e-11
3.46852e-10
-5.80449e-11
1.36078e-10
-7.66634e-11
-2.40285e-11
-6.31287e-11
4.2872e-11
1.92633e-11
1.81567e-10
6.68533e-11
1.76103e-10
6.84402e-11
4.15962e-11
4.26907e-11
-8.30616e-11
1.27378e-10
-9.84551e-11
9.48338e-11
1.22304e-11
7.25904e-11
1.46848e-10
4.01814e-11
1.43771e-10
1.96806e-11
1.69272e-11
-1.16798e-11
-1.30325e-10
-2.32693e-11
-1.5377e-10
-1.40459e-11
4.25571e-11
-3.04682e-11
1.44194e-10
2.30798e-11
-4.27822e-11
1.39015e-10
-8.42965e-11
3.1022e-10
-8.64633e-11
3.10789e-10
-6.77498e-11
1.39743e-10
-8.1259e-11
-1.3498e-11
-9.28382e-11
1.96762e-11
-2.85522e-11
1.59441e-10
5.9612e-11
1.80071e-10
9.24597e-11
6.72621e-11
1.08887e-10
-5.36623e-11
7.31143e-11
-6.1649e-11
6.99827e-11
3.21632e-12
6.79101e-11
1.03524e-10
5.02315e-11
1.24767e-10
2.83139e-11
3.71921e-11
9.84054e-12
-8.75349e-11
-6.3621e-12
-1.08794e-10
-7.53238e-12
5.46687e-11
-2.67395e-11
1.25033e-10
1.50369e-11
-4.45923e-11
9.30345e-11
-7.0173e-11
2.2271e-10
-8.17421e-11
2.39986e-10
-8.49056e-11
1.29143e-10
-1.09281e-10
3.34654e-12
-1.1135e-10
-4.87605e-12
-5.66633e-11
7.96099e-11
5.86373e-11
1.19317e-10
1.32789e-10
5.7196e-11
1.30402e-10
-1.97222e-11
1.02295e-10
-4.55925e-11
6.07804e-11
3.41508e-11
5.4914e-11
1.16464e-10
5.17131e-11
1.2801e-10
5.42945e-11
6.66579e-11
3.62028e-11
-2.55908e-11
-9.64122e-12
-5.68248e-11
-2.59331e-11
4.91079e-11
-3.49728e-11
9.00023e-11
6.8176e-12
-3.85637e-11
4.39968e-11
-4.89165e-11
1.15545e-10
-7.16348e-11
1.32484e-10
-1.0612e-10
7.94015e-11
-1.45139e-10
6.66516e-12
-1.33358e-10
-1.00265e-11
-6.24099e-11
2.02155e-11
5.44973e-11
4.93709e-11
1.37559e-10
2.41413e-11
1.47321e-10
-1.37019e-11
7.5929e-11
-1.06065e-11
5.62784e-11
2.21453e-11
8.6011e-11
7.07285e-11
1.01682e-10
8.3261e-11
7.64504e-11
6.15875e-11
1.37213e-11
1.06047e-11
-5.37232e-11
-2.26447e-11
-6.40011e-11
1.95464e-11
-5.12009e-11
4.06198e-11
3.64945e-13
-3.17901e-11
-2.63878e-11
-5.33118e-11
-1.16826e-10
-1.71277e-10
-1.5935e-10
-6.44963e-11
5.51662e-11
1.48431e-10
1.51355e-10
8.77842e-11
6.41399e-11
8.34535e-11
1.01902e-10
6.53682e-11
-1.377e-11
-8.10733e-11
-8.86106e-11
-6.31755e-11
)
;

boundaryField
{
    sides
    {
        type            calculated;
        value           uniform 0;
    }
    inlet
    {
        type            calculated;
        value           uniform 0;
    }
    outlet
    {
        type            calculated;
        value           nonuniform List<scalar> 
20
(
2.68487e-11
-2.3019e-11
-4.62947e-12
-6.91736e-11
-3.0242e-12
-4.12959e-11
-4.63217e-11
-6.7171e-11
-8.321e-11
-7.93636e-11
-6.37274e-11
-6.62127e-11
-6.50847e-11
-6.59447e-11
-5.56833e-11
-4.94753e-11
-5.45501e-11
-5.77513e-11
-6.08679e-11
-6.41035e-11
)
;
    }
    frontAndBack
    {
        type            empty;
        value           nonuniform List<scalar> 0();
    }
}


// ************************************************************************* //
