/*--------------------------------*- C++ -*----------------------------------*\
  =========                 |
  \\      /  F ield         | OpenFOAM: The Open Source CFD Toolbox
   \\    /   O peration     | Website:  https://openfoam.org
    \\  /    A nd           | Version:  9
     \\/     M anipulation  |
\*---------------------------------------------------------------------------*/
FoamFile
{
    format      ascii;
    class       volScalarField;
    location    "43";
    object      hTotal;
}
// * * * * * * * * * * * * * * * * * * * * * * * * * * * * * * * * * * * * * //

dimensions      [0 1 0 0 0 0 0];

internalField   nonuniform List<scalar> 
400
(
0.0100003
0.0100002
0.0100002
0.0100001
0.00999993
0.00999975
0.00999954
0.00999932
0.0099991
0.00999892
0.00999881
0.0099988
0.0099989
0.0099991
0.00999936
0.00999964
0.00999986
0.01
0.0100001
0.01
0.0100002
0.0100002
0.0100001
0.01
0.00999985
0.00999966
0.00999943
0.00999917
0.00999891
0.0099987
0.00999857
0.00999858
0.00999871
0.00999895
0.00999926
0.00999955
0.00999977
0.0099999
0.00999996
0.00999998
0.0100003
0.0100002
0.0100001
0.01
0.00999987
0.00999965
0.00999938
0.00999908
0.00999877
0.00999851
0.00999835
0.00999834
0.00999851
0.00999884
0.00999924
0.00999962
0.0099999
0.01
0.0100001
0.01
0.0100003
0.0100003
0.0100002
0.0100001
0.00999992
0.00999966
0.00999933
0.00999893
0.00999851
0.00999813
0.0099979
0.0099979
0.00999819
0.00999871
0.00999928
0.00999972
0.00999993
0.00999997
0.00999995
0.00999996
0.0100005
0.0100004
0.0100004
0.0100002
0.01
0.00999974
0.00999932
0.0099988
0.00999821
0.00999762
0.00999721
0.00999721
0.00999769
0.00999857
0.00999951
0.0100001
0.0100003
0.0100002
0.0100001
0.00999999
0.0100006
0.0100006
0.0100006
0.0100004
0.0100003
0.00999992
0.0099994
0.00999868
0.0099978
0.00999697
0.00999636
0.0099963
0.00999707
0.00999842
0.00999972
0.0100004
0.0100005
0.0100002
0.00999992
0.00999991
0.0100008
0.0100008
0.0100008
0.0100007
0.0100006
0.0100003
0.00999974
0.00999873
0.00999722
0.00999542
0.00999425
0.00999456
0.00999671
0.00999949
0.0100013
0.0100015
0.0100008
0.01
0.00999973
0.00999987
0.0100009
0.010001
0.0100011
0.0100011
0.0100011
0.0100009
0.0100004
0.00999936
0.00999745
0.00999436
0.00999064
0.0099903
0.00999451
0.0100002
0.0100033
0.0100031
0.0100013
0.00999984
0.00999948
0.00999982
0.0100011
0.0100012
0.0100014
0.0100016
0.0100019
0.010002
0.0100015
0.00999957
0.00999559
0.00998981
0.00998677
0.00998977
0.00999808
0.0100037
0.0100044
0.0100024
0.0100003
0.00999933
0.00999943
0.00999987
0.0100011
0.0100012
0.0100015
0.010002
0.0100027
0.0100041
0.010006
0.0100079
0.010005
0.00997856
0.00995244
0.00997591
0.0100089
0.0100178
0.0100105
0.0100023
0.00999885
0.00999889
0.00999977
0.0100001
0.010001
0.0100012
0.0100014
0.0100019
0.0100027
0.0100041
0.0100059
0.0100079
0.0100049
0.00997851
0.00995244
0.00997586
0.0100088
0.0100178
0.0100104
0.0100023
0.00999884
0.00999888
0.00999974
0.0100001
0.0100009
0.010001
0.0100012
0.0100014
0.0100017
0.0100018
0.0100013
0.00999939
0.0099954
0.00998961
0.00998671
0.0099896
0.00999795
0.0100036
0.0100043
0.0100023
0.0100002
0.00999932
0.00999945
0.00999989
0.0100006
0.0100007
0.0100008
0.0100008
0.0100008
0.0100006
0.0100001
0.00999907
0.00999718
0.00999412
0.00999027
0.00999005
0.00999426
0.00999995
0.0100031
0.0100029
0.0100011
0.00999976
0.00999946
0.00999982
0.0100003
0.0100003
0.0100003
0.0100003
0.0100002
0.00999987
0.0099993
0.0099983
0.00999679
0.00999501
0.00999383
0.00999419
0.00999637
0.00999919
0.0100011
0.0100013
0.0100006
0.00999988
0.00999963
0.00999983
0.01
0.01
0.00999996
0.00999986
0.00999967
0.00999935
0.00999883
0.00999812
0.00999726
0.00999645
0.00999588
0.00999585
0.00999665
0.00999804
0.00999938
0.0100001
0.0100002
0.00999997
0.00999981
0.00999988
0.00999972
0.00999969
0.00999963
0.00999951
0.00999931
0.00999903
0.00999863
0.00999812
0.00999754
0.00999697
0.00999657
0.00999661
0.00999713
0.00999805
0.00999903
0.00999973
0.01
0.00999997
0.0099999
0.00999993
0.00999946
0.00999943
0.00999936
0.00999923
0.00999905
0.00999881
0.0099985
0.00999812
0.00999772
0.00999738
0.00999719
0.00999723
0.00999755
0.00999812
0.00999876
0.0099993
0.00999962
0.00999976
0.00999983
0.00999992
0.00999925
0.00999921
0.00999914
0.00999902
0.00999886
0.00999865
0.0099984
0.00999811
0.00999782
0.00999757
0.00999744
0.00999748
0.00999772
0.00999811
0.00999858
0.00999903
0.00999938
0.00999962
0.00999978
0.00999991
0.00999908
0.00999904
0.00999897
0.00999887
0.00999873
0.00999855
0.00999834
0.00999811
0.00999789
0.00999772
0.00999763
0.00999766
0.00999784
0.00999814
0.00999853
0.00999893
0.00999928
0.00999954
0.00999975
0.00999991
0.00999894
0.00999889
0.00999882
0.00999872
0.00999859
0.00999842
0.00999822
0.00999801
0.00999781
0.00999766
0.00999759
0.00999763
0.0099978
0.00999807
0.0099984
0.00999876
0.0099991
0.00999939
0.00999964
0.00999986
)
;

boundaryField
{
    sides
    {
        type            calculated;
        value           nonuniform List<scalar> 
40
(
0.00999894
0.00999889
0.00999882
0.00999872
0.00999859
0.00999842
0.00999822
0.00999801
0.00999781
0.00999766
0.00999759
0.00999763
0.0099978
0.00999807
0.0099984
0.00999876
0.0099991
0.00999939
0.00999964
0.00999986
0.0100003
0.0100002
0.0100002
0.0100001
0.00999993
0.00999975
0.00999954
0.00999932
0.0099991
0.00999892
0.00999881
0.0099988
0.0099989
0.0099991
0.00999936
0.00999964
0.00999986
0.01
0.0100001
0.01
)
;
    }
    inlet
    {
        type            calculated;
        value           nonuniform List<scalar> 
20
(
0.0100003
0.0100002
0.0100003
0.0100003
0.0100005
0.0100006
0.0100008
0.0100009
0.0100011
0.0100011
0.010001
0.0100009
0.0100006
0.0100003
0.01
0.00999972
0.00999946
0.00999925
0.00999908
0.00999894
)
;
    }
    outlet
    {
        type            calculated;
        value           uniform 0.01;
    }
    frontAndBack
    {
        type            empty;
    }
}


// ************************************************************************* //
