/*--------------------------------*- C++ -*----------------------------------*\
  =========                 |
  \\      /  F ield         | OpenFOAM: The Open Source CFD Toolbox
   \\    /   O peration     | Website:  https://openfoam.org
    \\  /    A nd           | Version:  9
     \\/     M anipulation  |
\*---------------------------------------------------------------------------*/
FoamFile
{
    format      ascii;
    class       volVectorField;
    location    "43";
    object      hU_0;
}
// * * * * * * * * * * * * * * * * * * * * * * * * * * * * * * * * * * * * * //

dimensions      [0 2 -1 0 0 0 0];

internalField   nonuniform List<vector> 
400
(
(0.000999999 -2.55504e-08 0)
(0.00100005 -6.99635e-08 0)
(0.00100012 -1.09488e-07 0)
(0.00100023 -1.48657e-07 0)
(0.00100037 -1.87682e-07 0)
(0.00100055 -2.21036e-07 0)
(0.00100076 -2.40931e-07 0)
(0.00100097 -2.45932e-07 0)
(0.00100115 -2.34425e-07 0)
(0.00100129 -2.1006e-07 0)
(0.00100137 -1.71078e-07 0)
(0.00100137 -1.31987e-07 0)
(0.00100127 -1.01073e-07 0)
(0.00100109 -9.26495e-08 0)
(0.00100085 -9.78083e-08 0)
(0.00100062 -1.35149e-07 0)
(0.00100041 -1.58613e-07 0)
(0.00100032 -2.03133e-07 0)
(0.00100025 -1.89608e-07 0)
(0.00100031 -2.67821e-07 0)
(0.001 -3.01967e-08 0)
(0.00100005 -7.8739e-08 0)
(0.00100013 -1.2086e-07 0)
(0.00100025 -1.66129e-07 0)
(0.0010004 -2.14778e-07 0)
(0.0010006 -2.51509e-07 0)
(0.00100082 -2.57052e-07 0)
(0.00100105 -2.23214e-07 0)
(0.00100127 -1.50715e-07 0)
(0.00100143 -4.45564e-08 0)
(0.00100153 9.04944e-08 0)
(0.00100151 2.39376e-07 0)
(0.00100139 3.84205e-07 0)
(0.00100117 4.78089e-07 0)
(0.0010009 5.09884e-07 0)
(0.00100064 4.53152e-07 0)
(0.00100046 3.7064e-07 0)
(0.00100035 2.4579e-07 0)
(0.00100031 2.07285e-07 0)
(0.00100026 8.76751e-08 0)
(0.001 -5.77812e-08 0)
(0.00100005 -1.59816e-07 0)
(0.00100013 -2.57176e-07 0)
(0.00100025 -3.62983e-07 0)
(0.00100041 -4.76156e-07 0)
(0.00100062 -5.72316e-07 0)
(0.00100087 -6.20001e-07 0)
(0.00100114 -6.01388e-07 0)
(0.0010014 -5.10905e-07 0)
(0.00100161 -3.46296e-07 0)
(0.00100173 -1.13149e-07 0)
(0.00100173 1.50612e-07 0)
(0.00100157 3.93384e-07 0)
(0.00100128 5.22049e-07 0)
(0.00100092 5.06592e-07 0)
(0.00100059 3.55826e-07 0)
(0.00100034 1.92387e-07 0)
(0.00100025 3.05095e-08 0)
(0.00100021 -2.77123e-09 0)
(0.00100028 -1.09086e-07 0)
(0.001 -8.00282e-08 0)
(0.00100004 -2.23056e-07 0)
(0.00100013 -3.62426e-07 0)
(0.00100025 -5.16688e-07 0)
(0.00100043 -6.83816e-07 0)
(0.00100067 -8.30744e-07 0)
(0.00100097 -9.08611e-07 0)
(0.00100132 -8.88505e-07 0)
(0.00100168 -7.4527e-07 0)
(0.001002 -4.67063e-07 0)
(0.00100219 -3.00757e-08 0)
(0.00100216 4.76946e-07 0)
(0.0010019 9.24919e-07 0)
(0.00100144 1.14058e-06 0)
(0.00100095 1.06296e-06 0)
(0.00100056 7.44757e-07 0)
(0.00100039 4.08913e-07 0)
(0.00100033 1.49502e-07 0)
(0.00100038 1.03454e-07 0)
(0.00100032 1.24023e-08 0)
(0.001 -9.81436e-08 0)
(0.00100004 -2.7924e-07 0)
(0.00100011 -4.64033e-07 0)
(0.00100024 -6.7916e-07 0)
(0.00100043 -9.2409e-07 0)
(0.0010007 -1.16152e-06 0)
(0.00100107 -1.31947e-06 0)
(0.00100153 -1.33912e-06 0)
(0.00100204 -1.16474e-06 0)
(0.00100254 -7.69848e-07 0)
(0.00100287 -1.76742e-07 0)
(0.00100286 5.61901e-07 0)
(0.00100242 1.21717e-06 0)
(0.00100165 1.51006e-06 0)
(0.00100084 1.38189e-06 0)
(0.00100029 9.65381e-07 0)
(0.00100011 5.64276e-07 0)
(0.0010002 2.89704e-07 0)
(0.00100035 2.64131e-07 0)
(0.00100041 1.81916e-07 0)
(0.001 -1.10774e-07 0)
(0.00100002 -3.20379e-07 0)
(0.00100007 -5.49636e-07 0)
(0.00100018 -8.30132e-07 0)
(0.00100036 -1.17622e-06 0)
(0.00100066 -1.54715e-06 0)
(0.00100112 -1.87924e-06 0)
(0.00100176 -2.05607e-06 0)
(0.00100251 -1.89964e-06 0)
(0.00100323 -1.19152e-06 0)
(0.00100374 7.9863e-08 0)
(0.00100375 1.52328e-06 0)
(0.00100307 2.41902e-06 0)
(0.00100189 2.30375e-06 0)
(0.0010008 1.43598e-06 0)
(0.00100017 4.91758e-07 0)
(0.00100016 -3.8603e-09 0)
(0.00100035 -1.09124e-07 0)
(0.00100062 5.85814e-08 0)
(0.00100053 6.14108e-08 0)
(0.001 -1.09819e-07 0)
(0.000999995 -3.35945e-07 0)
(0.00100001 -5.91214e-07 0)
(0.00100006 -9.49451e-07 0)
(0.00100019 -1.39615e-06 0)
(0.00100046 -1.9665e-06 0)
(0.00100097 -2.5075e-06 0)
(0.00100186 -3.08664e-06 0)
(0.00100318 -3.22348e-06 0)
(0.0010047 -2.8722e-06 0)
(0.00100571 -6.6982e-07 0)
(0.00100533 2.54385e-06 0)
(0.00100347 4.81545e-06 0)
(0.0010011 4.73577e-06 0)
(0.000999589 3.03418e-06 0)
(0.000999355 1.26233e-06 0)
(0.000999991 4.13354e-07 0)
(0.00100054 3.02175e-07 0)
(0.00100091 5.62314e-07 0)
(0.00100064 5.47436e-07 0)
(0.000999998 -9.88858e-08 0)
(0.000999956 -2.91628e-07 0)
(0.000999889 -5.69738e-07 0)
(0.00099986 -9.48248e-07 0)
(0.000999862 -1.58175e-06 0)
(0.00100007 -2.36183e-06 0)
(0.00100048 -3.41732e-06 0)
(0.0010015 -4.12548e-06 0)
(0.00100306 -4.36319e-06 0)
(0.001006 -2.54168e-06 0)
(0.0010091 7.44377e-07 0)
(0.00100912 4.25244e-06 0)
(0.00100547 4.709e-06 0)
(0.00100071 2.78e-06 0)
(0.000998132 7.37421e-07 0)
(0.000998259 -2.78485e-07 0)
(0.000999785 -3.01549e-07 0)
(0.00100086 -2.97656e-08 0)
(0.00100131 2.11504e-07 0)
(0.00100084 1.13167e-07 0)
(0.000999998 -5.37379e-08 0)
(0.000999902 -2.06515e-07 0)
(0.000999735 -3.83431e-07 0)
(0.000999515 -7.31732e-07 0)
(0.000999272 -1.34342e-06 0)
(0.000999189 -2.49356e-06 0)
(0.000999681 -4.69729e-06 0)
(0.00100137 -8.0685e-06 0)
(0.00100489 -1.32784e-05 0)
(0.00100955 -1.49065e-05 0)
(0.00101185 3.83303e-06 0)
(0.00100892 1.87172e-05 0)
(0.00100219 1.57735e-05 0)
(0.000997542 5.73845e-06 0)
(0.000996866 -3.17296e-07 0)
(0.000998447 -1.26835e-06 0)
(0.00100026 -1.06936e-07 0)
(0.00100099 6.20689e-07 0)
(0.00100105 6.52877e-07 0)
(0.00100053 2.54105e-07 0)
(0.000999807 -2.17093e-08 0)
(0.00100016 -6.88803e-08 0)
(0.000999194 -1.52946e-07 0)
(0.000999888 -2.51367e-07 0)
(0.000997506 -5.97834e-07 0)
(0.000998822 -1.13804e-06 0)
(0.000993319 -2.88758e-06 0)
(0.000997502 -5.59225e-06 0)
(0.000991642 -1.154e-05 0)
(0.000915813 -1.27044e-05 0)
(0.000951452 2.77303e-07 0)
(0.00101021 1.46395e-05 0)
(0.000990925 1.30788e-05 0)
(0.000983951 5.13567e-06 0)
(0.000989568 1.89644e-07 0)
(0.000996268 -7.87656e-07 0)
(0.000999226 -1.18626e-07 0)
(0.000999396 2.41635e-07 0)
(0.000998629 1.76873e-07 0)
(0.000998492 -1.75732e-07 0)
(0.000999807 1.39497e-08 0)
(0.00100016 4.38479e-08 0)
(0.000999193 1.10516e-07 0)
(0.000999886 1.91269e-07 0)
(0.000997503 5.23559e-07 0)
(0.000998817 1.05033e-06 0)
(0.000993311 2.78776e-06 0)
(0.00099749 5.47448e-06 0)
(0.000991625 1.13977e-05 0)
(0.000915789 1.2548e-05 0)
(0.000951413 -4.7065e-07 0)
(0.00101018 -1.49104e-05 0)
(0.000990922 -1.34104e-05 0)
(0.000983944 -5.54172e-06 0)
(0.000989549 -6.57378e-07 0)
(0.000996232 2.40483e-07 0)
(0.000999186 -4.73462e-07 0)
(0.000999352 -1.00171e-06 0)
(0.000998614 -9.8745e-07 0)
(0.000998442 -8.84447e-07 0)
(0.000999998 4.58708e-08 0)
(0.000999902 1.82055e-07 0)
(0.000999735 3.42064e-07 0)
(0.000999514 6.73493e-07 0)
(0.000999269 1.27101e-06 0)
(0.000999188 2.40582e-06 0)
(0.000999675 4.59474e-06 0)
(0.00100136 7.94309e-06 0)
(0.00100487 1.31279e-05 0)
(0.00100956 1.47174e-05 0)
(0.00101186 -4.06091e-06 0)
(0.00100888 -1.89949e-05 0)
(0.00100212 -1.60922e-05 0)
(0.000997453 -6.1287e-06 0)
(0.000996798 -9.40134e-08 0)
(0.000998391 7.6673e-07 0)
(0.00100016 -4.25853e-07 0)
(0.00100083 -1.29891e-06 0)
(0.00100086 -1.37814e-06 0)
(0.00100035 -1.24904e-06 0)
(0.000999998 9.10734e-08 0)
(0.000999956 2.67953e-07 0)
(0.000999887 5.29417e-07 0)
(0.000999855 8.91758e-07 0)
(0.000999853 1.50834e-06 0)
(0.00100006 2.27102e-06 0)
(0.00100045 3.30412e-06 0)
(0.00100146 3.99197e-06 0)
(0.00100301 4.2058e-06 0)
(0.00100592 2.36268e-06 0)
(0.001009 -9.71568e-07 0)
(0.00100904 -4.52364e-06 0)
(0.0010054 -5.01233e-06 0)
(0.00100064 -3.13359e-06 0)
(0.000998041 -1.14232e-06 0)
(0.00099812 -2.61527e-07 0)
(0.00099961 -3.17576e-07 0)
(0.00100062 -7.29072e-07 0)
(0.00100104 -9.65782e-07 0)
(0.00100054 -1.07467e-06 0)
(0.001 1.02391e-07 0)
(0.000999994 3.12721e-07 0)
(0.001 5.52604e-07 0)
(0.00100005 8.95385e-07 0)
(0.00100018 1.32853e-06 0)
(0.00100044 1.88471e-06 0)
(0.00100094 2.41393e-06 0)
(0.00100183 2.97742e-06 0)
(0.00100315 3.10423e-06 0)
(0.00100466 2.72765e-06 0)
(0.00100566 5.15429e-07 0)
(0.00100525 -2.74008e-06 0)
(0.00100336 -5.06702e-06 0)
(0.00100094 -5.07557e-06 0)
(0.000999391 -3.46497e-06 0)
(0.000999106 -1.80514e-06 0)
(0.00099973 -1.012e-06 0)
(0.00100024 -1.04214e-06 0)
(0.0010006 -1.3059e-06 0)
(0.00100022 -1.51845e-06 0)
(0.001 1.04049e-07 0)
(0.00100002 2.99099e-07 0)
(0.00100007 5.14933e-07 0)
(0.00100017 7.82114e-07 0)
(0.00100035 1.11639e-06 0)
(0.00100064 1.47554e-06 0)
(0.00100109 1.79662e-06 0)
(0.00100171 1.95454e-06 0)
(0.00100245 1.7742e-06 0)
(0.00100315 1.02968e-06 0)
(0.00100363 -2.69966e-07 0)
(0.00100361 -1.76204e-06 0)
(0.0010029 -2.69987e-06 0)
(0.00100169 -2.63846e-06 0)
(0.00100056 -1.79439e-06 0)
(0.000999888 -9.05417e-07 0)
(0.000999843 -4.16971e-07 0)
(0.000999964 -4.28929e-07 0)
(0.0010002 -6.1481e-07 0)
(0.000999989 -8.52504e-07 0)
(0.001 9.20432e-08 0)
(0.00100004 2.60469e-07 0)
(0.00100011 4.33857e-07 0)
(0.00100022 6.38452e-07 0)
(0.00100041 8.73114e-07 0)
(0.00100067 1.10099e-06 0)
(0.00100103 1.2492e-06 0)
(0.00100147 1.25787e-06 0)
(0.00100197 1.06664e-06 0)
(0.00100246 6.5262e-07 0)
(0.00100277 2.59228e-08 0)
(0.00100272 -7.53136e-07 0)
(0.00100225 -1.43849e-06 0)
(0.00100144 -1.77826e-06 0)
(0.0010006 -1.68145e-06 0)
(0.000999987 -1.35692e-06 0)
(0.000999775 -1.01779e-06 0)
(0.000999749 -9.17331e-07 0)
(0.000999867 -9.44786e-07 0)
(0.000999749 -1.11354e-06 0)
(0.001 7.44181e-08 0)
(0.00100004 2.06244e-07 0)
(0.00100012 3.36139e-07 0)
(0.00100024 4.81432e-07 0)
(0.00100041 6.40667e-07 0)
(0.00100064 7.80783e-07 0)
(0.00100093 8.54934e-07 0)
(0.00100126 8.31126e-07 0)
(0.0010016 6.85824e-07 0)
(0.00100188 4.0328e-07 0)
(0.00100203 -3.85216e-08 0)
(0.00100198 -5.59608e-07 0)
(0.00100169 -1.02508e-06 0)
(0.00100118 -1.28589e-06 0)
(0.00100063 -1.24238e-06 0)
(0.00100014 -1.00164e-06 0)
(0.000999895 -6.90681e-07 0)
(0.000999722 -5.39246e-07 0)
(0.000999734 -4.87704e-07 0)
(0.000999541 -6.03522e-07 0)
(0.001 5.42477e-08 0)
(0.00100005 1.46058e-07 0)
(0.00100013 2.31323e-07 0)
(0.00100024 3.22616e-07 0)
(0.00100039 4.19568e-07 0)
(0.00100059 4.95982e-07 0)
(0.00100083 5.22103e-07 0)
(0.00100109 4.76604e-07 0)
(0.00100134 3.56593e-07 0)
(0.00100154 1.53325e-07 0)
(0.00100164 -1.08394e-07 0)
(0.00100158 -4.06605e-07 0)
(0.00100137 -6.73022e-07 0)
(0.00100102 -8.45598e-07 0)
(0.00100062 -8.59184e-07 0)
(0.0010002 -7.75719e-07 0)
(0.000999927 -6.29836e-07 0)
(0.000999671 -5.84355e-07 0)
(0.00099961 -5.62826e-07 0)
(0.000999367 -6.89377e-07 0)
(0.001 3.70836e-08 0)
(0.00100005 1.02682e-07 0)
(0.00100012 1.65341e-07 0)
(0.00100022 2.32249e-07 0)
(0.00100036 3.0163e-07 0)
(0.00100054 3.58287e-07 0)
(0.00100074 3.84004e-07 0)
(0.00100095 3.7081e-07 0)
(0.00100113 3.16624e-07 0)
(0.00100127 2.22471e-07 0)
(0.00100133 8.94772e-08 0)
(0.00100129 -6.27288e-08 0)
(0.00100114 -2.00437e-07 0)
(0.00100085 -2.98483e-07 0)
(0.00100052 -3.17844e-07 0)
(0.00100014 -2.85608e-07 0)
(0.000999875 -1.98385e-07 0)
(0.000999594 -1.61868e-07 0)
(0.000999501 -1.20634e-07 0)
(0.00099923 -2.01938e-07 0)
(0.001 -3.15443e-09 0)
(0.00100005 -9.79435e-09 0)
(0.00100013 -1.47006e-08 0)
(0.00100023 -1.6886e-08 0)
(0.00100036 -1.70205e-08 0)
(0.00100053 -2.01135e-08 0)
(0.00100073 -3.08131e-08 0)
(0.00100092 -5.22611e-08 0)
(0.00100109 -8.21671e-08 0)
(0.0010012 -1.22626e-07 0)
(0.00100125 -1.67825e-07 0)
(0.00100119 -2.27817e-07 0)
(0.00100105 -2.88961e-07 0)
(0.00100079 -3.42409e-07 0)
(0.00100051 -3.6183e-07 0)
(0.00100016 -3.69228e-07 0)
(0.000999919 -3.40677e-07 0)
(0.00099959 -3.50203e-07 0)
(0.000999506 -3.28431e-07 0)
(0.000999112 -4.11643e-07 0)
)
;

boundaryField
{
    sides
    {
        type            slip;
    }
    inlet
    {
        type            fixedValue;
        value           uniform (0.001 0 0);
    }
    outlet
    {
        type            zeroGradient;
    }
    frontAndBack
    {
        type            empty;
    }
}


// ************************************************************************* //
