/*--------------------------------*- C++ -*----------------------------------*\
  =========                 |
  \\      /  F ield         | OpenFOAM: The Open Source CFD Toolbox
   \\    /   O peration     | Website:  https://openfoam.org
    \\  /    A nd           | Version:  9
     \\/     M anipulation  |
\*---------------------------------------------------------------------------*/
FoamFile
{
    format      ascii;
    class       volVectorField;
    location    "43";
    object      U;
}
// * * * * * * * * * * * * * * * * * * * * * * * * * * * * * * * * * * * * * //

dimensions      [0 1 -1 0 0 0 0];

internalField   nonuniform List<vector> 
400
(
(0.0999971 -2.61729e-06 0)
(0.100002 -7.13392e-06 0)
(0.100011 -1.10905e-05 0)
(0.100022 -1.49415e-05 0)
(0.100038 -1.87808e-05 0)
(0.100058 -2.21257e-05 0)
(0.10008 -2.41697e-05 0)
(0.100104 -2.46682e-05 0)
(0.100124 -2.34607e-05 0)
(0.10014 -2.09541e-05 0)
(0.100149 -1.70095e-05 0)
(0.100149 -1.31692e-05 0)
(0.100138 -1.01102e-05 0)
(0.100118 -9.2974e-06 0)
(0.100091 -9.78545e-06 0)
(0.100066 -1.3459e-05 0)
(0.100042 -1.57972e-05 0)
(0.100032 -2.02814e-05 0)
(0.100024 -1.89448e-05 0)
(0.100031 -2.67779e-05 0)
(0.0999976 -3.16514e-06 0)
(0.100003 -8.2099e-06 0)
(0.100012 -1.24552e-05 0)
(0.100025 -1.68235e-05 0)
(0.100041 -2.15127e-05 0)
(0.100063 -2.51999e-05 0)
(0.100087 -2.58605e-05 0)
(0.100114 -2.24928e-05 0)
(0.100138 -1.50971e-05 0)
(0.100157 -4.36089e-06 0)
(0.100167 9.22409e-06 0)
(0.100166 2.40093e-05 0)
(0.100152 3.83479e-05 0)
(0.100127 4.7702e-05 0)
(0.100098 5.09689e-05 0)
(0.100069 4.54515e-05 0)
(0.100048 3.72405e-05 0)
(0.100035 2.4528e-05 0)
(0.100032 2.05239e-05 0)
(0.100027 8.72428e-06 0)
(0.0999974 -5.97474e-06 0)
(0.100002 -1.64746e-05 0)
(0.100011 -2.62578e-05 0)
(0.100024 -3.65747e-05 0)
(0.100042 -4.76346e-05 0)
(0.100065 -5.72734e-05 0)
(0.100093 -6.22051e-05 0)
(0.100124 -6.03802e-05 0)
(0.100153 -5.11874e-05 0)
(0.100176 -3.4523e-05 0)
(0.10019 -1.12059e-05 0)
(0.100189 1.5121e-05 0)
(0.100172 3.91238e-05 0)
(0.10014 5.19477e-05 0)
(0.1001 5.05926e-05 0)
(0.100063 3.57491e-05 0)
(0.100035 1.94741e-05 0)
(0.100024 3.01305e-06 0)
(0.10002 -5.26177e-07 0)
(0.100027 -1.09796e-05 0)
(0.0999967 -8.24947e-06 0)
(0.100001 -2.29472e-05 0)
(0.10001 -3.69032e-05 0)
(0.100024 -5.19629e-05 0)
(0.100044 -6.83597e-05 0)
(0.10007 -8.30945e-05 0)
(0.100104 -9.11218e-05 0)
(0.100143 -8.91899e-05 0)
(0.100183 -7.47829e-05 0)
(0.100218 -4.66172e-05 0)
(0.10024 -2.85233e-06 0)
(0.100237 4.76326e-05 0)
(0.100208 9.22308e-05 0)
(0.100157 0.00011368 0)
(0.100102 0.00010614 0)
(0.100059 7.46479e-05 0)
(0.100039 4.11525e-05 0)
(0.100033 1.48482e-05 0)
(0.100038 9.97652e-06 0)
(0.100033 1.13207e-06 0)
(0.0999956 -1.00912e-05 0)
(0.0999992 -2.86276e-05 0)
(0.100007 -4.71004e-05 0)
(0.100021 -6.82097e-05 0)
(0.100042 -9.23584e-05 0)
(0.100073 -0.000116163 0)
(0.100114 -0.000132237 0)
(0.100165 -0.000134424 0)
(0.100222 -0.000116732 0)
(0.100278 -7.7049e-05 0)
(0.100315 -1.74649e-05 0)
(0.100314 5.61042e-05 0)
(0.100265 0.000121424 0)
(0.100179 0.000150674 0)
(0.100089 0.000137999 0)
(0.100027 9.66584e-05 0)
(0.100008 5.66669e-05 0)
(0.100017 2.88026e-05 0)
(0.100034 2.59191e-05 0)
(0.100041 1.80434e-05 0)
(0.0999941 -1.13531e-05 0)
(0.0999961 -3.27204e-05 0)
(0.100002 -5.56311e-05 0)
(0.100013 -8.32848e-05 0)
(0.100033 -0.000117562 0)
(0.100067 -0.00015472 0)
(0.100118 -0.000188281 0)
(0.100189 -0.000206143 0)
(0.100273 -0.000190266 0)
(0.100354 -0.000119091 0)
(0.100411 7.95717e-06 0)
(0.100412 0.000152504 0)
(0.100337 0.000241621 0)
(0.100205 0.000230021 0)
(0.100083 0.000143437 0)
(0.100013 4.92797e-05 0)
(0.100011 -1.85305e-07 0)
(0.100033 -1.10208e-05 0)
(0.100063 5.46882e-06 0)
(0.100054 6.01007e-06 0)
(0.0999924 -1.12121e-05 0)
(0.0999915 -3.41825e-05 0)
(0.0999927 -5.97074e-05 0)
(0.0999986 -9.51892e-05 0)
(0.100013 -0.000139561 0)
(0.100043 -0.000196671 0)
(0.1001 -0.000251083 0)
(0.100198 -0.000309092 0)
(0.100346 -0.000322681 0)
(0.100516 -0.000287038 0)
(0.100629 -6.80904e-05 0)
(0.100588 0.000254415 0)
(0.10038 0.000481538 0)
(0.100115 0.000473242 0)
(0.0999459 0.000303214 0)
(0.0999204 0.000126332 0)
(0.0999913 4.15025e-05 0)
(0.100054 3.00433e-05 0)
(0.100093 5.58034e-05 0)
(0.100065 5.46165e-05 0)
(0.0999904 -1.00435e-05 0)
(0.0999857 -2.96048e-05 0)
(0.099978 -5.74334e-05 0)
(0.0999744 -9.50304e-05 0)
(0.0999748 -0.000158129 0)
(0.0999981 -0.000236204 0)
(0.100044 -0.000341991 0)
(0.100156 -0.000412891 0)
(0.100331 -0.00043656 0)
(0.100655 -0.000254537 0)
(0.101004 7.59919e-05 0)
(0.101012 0.000425635 0)
(0.100603 0.000470845 0)
(0.100069 0.000277731 0)
(0.0997801 7.35822e-05 0)
(0.0997955 -2.77583e-05 0)
(0.099966 -3.00221e-05 0)
(0.100087 -3.11289e-06 0)
(0.100136 2.08142e-05 0)
(0.100085 1.12095e-05 0)
(0.0999893 -5.45836e-06 0)
(0.0999786 -2.09274e-05 0)
(0.0999598 -3.86453e-05 0)
(0.0999351 -7.33145e-05 0)
(0.099908 -0.000134295 0)
(0.0998988 -0.000249315 0)
(0.0999533 -0.000469852 0)
(0.100141 -0.000807107 0)
(0.100533 -0.00132853 0)
(0.101059 -0.0014924 0)
(0.10132 0.000385192 0)
(0.100993 0.00187361 0)
(0.100239 0.00157742 0)
(0.0997175 0.000573455 0)
(0.0996425 -3.17982e-05 0)
(0.0998207 -0.000126793 0)
(0.100023 -1.06553e-05 0)
(0.100105 6.19471e-05 0)
(0.100111 6.50172e-05 0)
(0.100054 2.53154e-05 0)
(0.0999701 -2.1976e-06 0)
(0.100004 -6.98774e-06 0)
(0.0999045 -1.54128e-05 0)
(0.0999689 -2.52007e-05 0)
(0.0997233 -5.97596e-05 0)
(0.099841 -0.000113757 0)
(0.099273 -0.000288692 0)
(0.0996714 -0.000558921 0)
(0.0991149 -0.00115354 0)
(0.102 -0.00141475 0)
(0.106278 2.99278e-05 0)
(0.101265 0.00146744 0)
(0.0990052 0.00130689 0)
(0.09822 0.000512659 0)
(0.0988534 1.89467e-05 0)
(0.0996038 -7.87899e-05 0)
(0.0999342 -1.19462e-05 0)
(0.0999508 2.40237e-05 0)
(0.0998652 1.7481e-05 0)
(0.0998476 -1.76531e-05 0)
(0.0999708 1.42879e-06 0)
(0.100004 4.47889e-06 0)
(0.0999051 1.114e-05 0)
(0.0999694 1.91422e-05 0)
(0.0997237 5.22942e-05 0)
(0.0998411 0.000104953 0)
(0.0992727 0.000278584 0)
(0.0996708 0.00054697 0)
(0.0991137 0.00113916 0)
(0.101998 0.0013975 0)
(0.106274 -5.25925e-05 0)
(0.101263 -0.00149431 0)
(0.0990053 -0.0013398 0)
(0.0982198 -0.000553057 0)
(0.0988519 -6.55954e-05 0)
(0.0996003 2.39837e-05 0)
(0.0999302 -4.74679e-05 0)
(0.0999465 -0.000100232 0)
(0.099864 -9.87958e-05 0)
(0.0998428 -8.84857e-05 0)
(0.0999913 4.68219e-06 0)
(0.0999806 1.8489e-05 0)
(0.0999617 3.44966e-05 0)
(0.099937 6.74499e-05 0)
(0.0999098 0.00012698 0)
(0.0999008 0.000240446 0)
(0.0999547 0.000459521 0)
(0.100143 0.000794508 0)
(0.100534 0.0013135 0)
(0.101061 0.00147324 0)
(0.101322 -0.000406957 0)
(0.100993 -0.00190159 0)
(0.100232 -0.00160934 0)
(0.0997097 -0.00061241 0)
(0.0996368 -9.28755e-06 0)
(0.0998163 7.6643e-05 0)
(0.100014 -4.26678e-05 0)
(0.10009 -0.000129851 0)
(0.100091 -0.000137726 0)
(0.100036 -0.000124906 0)
(0.0999937 9.27158e-06 0)
(0.0999889 2.72584e-05 0)
(0.0999811 5.34112e-05 0)
(0.0999772 8.93555e-05 0)
(0.0999772 0.000150696 0)
(0.0999997 0.000226962 0)
(0.100044 0.000330569 0)
(0.100155 0.000399565 0)
(0.100329 0.000420874 0)
(0.100651 0.000236477 0)
(0.100997 -9.75297e-05 0)
(0.101005 -0.000452897 0)
(0.100598 -0.00050121 0)
(0.100065 -0.000313056 0)
(0.0997734 -0.000114005 0)
(0.0997833 -2.61393e-05 0)
(0.0999499 -3.18666e-05 0)
(0.100065 -7.28053e-05 0)
(0.10011 -9.63778e-05 0)
(0.100055 -0.000107441 0)
(0.099997 1.0474e-05 0)
(0.0999961 3.18909e-05 0)
(0.099997 5.58711e-05 0)
(0.100002 8.97795e-05 0)
(0.100016 0.000132735 0)
(0.100045 0.00018836 0)
(0.100102 0.000241574 0)
(0.1002 0.00029815 0)
(0.100347 0.000310751 0)
(0.100516 0.00027283 0)
(0.100628 5.16557e-05 0)
(0.100584 -0.00027393 0)
(0.100373 -0.000506575 0)
(0.100103 -0.000507169 0)
(0.0999286 -0.000346197 0)
(0.0998975 -0.000180547 0)
(0.0999669 -0.000101394 0)
(0.100025 -0.000104119 0)
(0.100063 -0.000130336 0)
(0.100024 -0.000151806 0)
(0.1 1.06895e-05 0)
(0.100002 3.06251e-05 0)
(0.100007 5.21913e-05 0)
(0.100018 7.84957e-05 0)
(0.100038 0.00011157 0)
(0.10007 0.000147509 0)
(0.100121 0.000179888 0)
(0.10019 0.000195828 0)
(0.100273 0.000177663 0)
(0.10035 0.000102967 0)
(0.100405 -2.70416e-05 0)
(0.100403 -0.000176159 0)
(0.100324 -0.00026961 0)
(0.100188 -0.000263417 0)
(0.100062 -0.000179226 0)
(0.0999876 -9.06678e-05 0)
(0.0999821 -4.19818e-05 0)
(0.0999967 -4.28527e-05 0)
(0.100022 -6.1213e-05 0)
(0.1 -8.51985e-05 0)
(0.100003 9.50977e-06 0)
(0.100007 2.67851e-05 0)
(0.100014 4.4111e-05 0)
(0.100027 6.41465e-05 0)
(0.100047 8.72674e-05 0)
(0.100077 0.000110128 0)
(0.100117 0.0001252 0)
(0.100166 0.000126134 0)
(0.100222 0.000106825 0)
(0.100276 6.51686e-05 0)
(0.100312 2.43048e-06 0)
(0.100306 -7.52915e-05 0)
(0.100254 -0.000143578 0)
(0.100164 -0.000177489 0)
(0.10007 -0.000168017 0)
(0.100001 -0.000135899 0)
(0.0999775 -0.000102117 0)
(0.0999751 -9.1696e-05 0)
(0.0999876 -9.41912e-05 0)
(0.0999755 -0.000111296 0)
(0.100005 7.72924e-06 0)
(0.10001 2.13014e-05 0)
(0.100018 3.42947e-05 0)
(0.100031 4.84459e-05 0)
(0.10005 6.40354e-05 0)
(0.100076 7.81158e-05 0)
(0.100108 8.57861e-05 0)
(0.100145 8.34501e-05 0)
(0.100183 6.87175e-05 0)
(0.100214 4.02161e-05 0)
(0.100231 -4.02021e-06 0)
(0.100226 -5.59753e-05 0)
(0.100194 -0.000102283 0)
(0.100137 -0.000128315 0)
(0.100075 -0.000124173 0)
(0.100021 -0.000100398 0)
(0.0999932 -6.93778e-05 0)
(0.0999746 -5.3862e-05 0)
(0.0999751 -4.84876e-05 0)
(0.0999549 -6.02952e-05 0)
(0.100007 5.65686e-06 0)
(0.100013 1.51597e-05 0)
(0.100021 2.37064e-05 0)
(0.100033 3.25313e-05 0)
(0.10005 4.19272e-05 0)
(0.100073 4.95966e-05 0)
(0.100099 5.24436e-05 0)
(0.100128 4.796e-05 0)
(0.100156 3.5792e-05 0)
(0.100178 1.52588e-05 0)
(0.10019 -1.09785e-05 0)
(0.100183 -4.06512e-05 0)
(0.10016 -6.70977e-05 0)
(0.100121 -8.43229e-05 0)
(0.100076 -8.58391e-05 0)
(0.10003 -7.77069e-05 0)
(0.0999989 -6.31755e-05 0)
(0.0999708 -5.83576e-05 0)
(0.0999632 -5.60477e-05 0)
(0.0999375 -6.88897e-05 0)
(0.100009 3.83838e-06 0)
(0.100014 1.06077e-05 0)
(0.100022 1.69154e-05 0)
(0.100033 2.34283e-05 0)
(0.100048 3.01569e-05 0)
(0.100068 3.58003e-05 0)
(0.100091 3.85078e-05 0)
(0.100114 3.72578e-05 0)
(0.100135 3.17502e-05 0)
(0.10015 2.22127e-05 0)
(0.100157 8.89519e-06 0)
(0.100153 -6.2617e-06 0)
(0.100135 -1.99002e-05 0)
(0.100104 -2.96543e-05 0)
(0.100067 -3.16671e-05 0)
(0.100025 -2.85869e-05 0)
(0.0999947 -1.99302e-05 0)
(0.0999639 -1.61222e-05 0)
(0.0999525 -1.19085e-05 0)
(0.0999238 -2.01652e-05 0)
(0.100011 -2.84e-07 0)
(0.100016 -8.8265e-07 0)
(0.100024 -1.3442e-06 0)
(0.100035 -1.60541e-06 0)
(0.10005 -1.69168e-06 0)
(0.100069 -2.02941e-06 0)
(0.10009 -3.07118e-06 0)
(0.100112 -5.19098e-06 0)
(0.100131 -8.19364e-06 0)
(0.100144 -1.22702e-05 0)
(0.100149 -1.68065e-05 0)
(0.100143 -2.27609e-05 0)
(0.100127 -2.88202e-05 0)
(0.100099 -3.41613e-05 0)
(0.100068 -3.61371e-05 0)
(0.100028 -3.69279e-05 0)
(0.100001 -3.41011e-05 0)
(0.0999649 -3.50019e-05 0)
(0.0999541 -3.2792e-05 0)
(0.0999125 -4.11552e-05 0)
)
;

boundaryField
{
    sides
    {
        type            calculated;
        value           nonuniform List<vector> 
40
(
(0.100011 0 0)
(0.100016 0 0)
(0.100024 0 0)
(0.100035 0 0)
(0.10005 0 0)
(0.100069 0 0)
(0.10009 0 0)
(0.100112 0 0)
(0.100131 0 0)
(0.100144 0 0)
(0.100149 0 0)
(0.100143 0 0)
(0.100127 0 0)
(0.100099 0 0)
(0.100068 0 0)
(0.100028 0 0)
(0.100001 0 0)
(0.0999649 0 0)
(0.0999541 0 0)
(0.0999125 0 0)
(0.0999971 0 0)
(0.100002 0 0)
(0.100011 0 0)
(0.100022 0 0)
(0.100038 0 0)
(0.100058 0 0)
(0.10008 0 0)
(0.100104 0 0)
(0.100124 0 0)
(0.10014 0 0)
(0.100149 0 0)
(0.100149 0 0)
(0.100138 0 0)
(0.100118 0 0)
(0.100091 0 0)
(0.100066 0 0)
(0.100042 0 0)
(0.100032 0 0)
(0.100024 0 0)
(0.100031 0 0)
)
;
    }
    inlet
    {
        type            calculated;
        value           nonuniform List<vector> 
20
(
(0.0999972 0 0)
(0.0999976 0 0)
(0.0999974 0 0)
(0.0999966 0 0)
(0.0999954 0 0)
(0.0999939 0 0)
(0.0999921 0 0)
(0.0999905 0 0)
(0.0999894 0 0)
(0.0999893 0 0)
(0.09999 0 0)
(0.0999914 0 0)
(0.0999938 0 0)
(0.0999968 0 0)
(0.0999999 0 0)
(0.100003 0 0)
(0.100005 0 0)
(0.100008 0 0)
(0.100009 0 0)
(0.100011 0 0)
)
;
    }
    outlet
    {
        type            calculated;
        value           nonuniform List<vector> 
20
(
(0.100031 -2.6778e-05 0)
(0.100026 8.72427e-06 0)
(0.100028 -1.09796e-05 0)
(0.100032 1.13207e-06 0)
(0.100041 1.80434e-05 0)
(0.100053 6.01002e-06 0)
(0.100064 5.46158e-05 0)
(0.100084 1.12094e-05 0)
(0.100053 2.53151e-05 0)
(0.0998491 -1.76534e-05 0)
(0.0998441 -8.84868e-05 0)
(0.100035 -0.000124904 0)
(0.100054 -0.000107439 0)
(0.100022 -0.000151804 0)
(0.0999988 -8.51974e-05 0)
(0.0999748 -0.000111295 0)
(0.0999541 -6.02947e-05 0)
(0.0999367 -6.88891e-05 0)
(0.0999229 -2.0165e-05 0)
(0.0999111 -4.11546e-05 0)
)
;
    }
    frontAndBack
    {
        type            empty;
    }
}


// ************************************************************************* //
