/*--------------------------------*- C++ -*----------------------------------*\
  =========                 |
  \\      /  F ield         | OpenFOAM: The Open Source CFD Toolbox
   \\    /   O peration     | Website:  https://openfoam.org
    \\  /    A nd           | Version:  9
     \\/     M anipulation  |
\*---------------------------------------------------------------------------*/
FoamFile
{
    format      ascii;
    class       volVectorField;
    location    "160";
    object      D;
}
// * * * * * * * * * * * * * * * * * * * * * * * * * * * * * * * * * * * * * //

dimensions      [0 1 0 0 0 0 0];

internalField   nonuniform List<vector> 
1000
(
(5.92487e-08 -2.62287e-08 0)
(5.55705e-08 -2.36227e-08 0)
(5.33157e-08 -2.19753e-08 0)
(5.19986e-08 -2.09357e-08 0)
(5.13283e-08 -2.02994e-08 0)
(5.11187e-08 -1.99391e-08 0)
(5.12448e-08 -1.97708e-08 0)
(5.16194e-08 -1.97377e-08 0)
(5.2181e-08 -1.98006e-08 0)
(5.28926e-08 -1.99348e-08 0)
(5.3661e-08 -2.85079e-08 0)
(4.97784e-08 -2.63941e-08 0)
(4.73984e-08 -2.50438e-08 0)
(4.59966e-08 -2.41862e-08 0)
(4.52613e-08 -2.36624e-08 0)
(4.49947e-08 -2.33718e-08 0)
(4.50655e-08 -2.32472e-08 0)
(4.53838e-08 -2.32423e-08 0)
(4.58879e-08 -2.33249e-08 0)
(4.65404e-08 -2.34727e-08 0)
(4.78308e-08 -3.06508e-08 0)
(4.38905e-08 -2.90983e-08 0)
(4.14757e-08 -2.80883e-08 0)
(4.00451e-08 -2.74402e-08 0)
(3.92788e-08 -2.70461e-08 0)
(3.89753e-08 -2.68362e-08 0)
(3.90019e-08 -2.67622e-08 0)
(3.92686e-08 -2.67899e-08 0)
(3.97133e-08 -2.68945e-08 0)
(4.02965e-08 -2.70583e-08 0)
(4.17999e-08 -3.26237e-08 0)
(3.79589e-08 -3.16682e-08 0)
(3.56057e-08 -3.1021e-08 0)
(3.42057e-08 -3.05968e-08 0)
(3.34446e-08 -3.0342e-08 0)
(3.31252e-08 -3.02192e-08 0)
(3.31186e-08 -3.02002e-08 0)
(3.33372e-08 -3.02636e-08 0)
(3.37207e-08 -3.03929e-08 0)
(3.42302e-08 -3.05753e-08 0)
(3.56066e-08 -3.43928e-08 0)
(3.20239e-08 -3.40345e-08 0)
(2.98295e-08 -3.37509e-08 0)
(2.85201e-08 -3.35517e-08 0)
(2.78003e-08 -3.34374e-08 0)
(2.7486e-08 -3.34028e-08 0)
(2.74568e-08 -3.34401e-08 0)
(2.76313e-08 -3.35404e-08 0)
(2.79535e-08 -3.36954e-08 0)
(2.83869e-08 -3.38977e-08 0)
(2.92851e-08 -3.5925e-08 0)
(2.61131e-08 -3.61294e-08 0)
(2.41708e-08 -3.61887e-08 0)
(2.30089e-08 -3.62021e-08 0)
(2.23649e-08 -3.6221e-08 0)
(2.20755e-08 -3.62706e-08 0)
(2.20343e-08 -3.63617e-08 0)
(2.21692e-08 -3.64977e-08 0)
(2.24308e-08 -3.6678e-08 0)
(2.27869e-08 -3.69002e-08 0)
(2.28655e-08 -3.71895e-08 0)
(2.02426e-08 -3.78892e-08 0)
(1.86359e-08 -3.82508e-08 0)
(1.76727e-08 -3.84522e-08 0)
(1.71355e-08 -3.85891e-08 0)
(1.68892e-08 -3.87133e-08 0)
(1.68457e-08 -3.88525e-08 0)
(1.69454e-08 -3.90207e-08 0)
(1.71475e-08 -3.9224e-08 0)
(1.74255e-08 -3.94646e-08 0)
(1.63748e-08 -3.8158e-08 0)
(1.44169e-08 -3.92573e-08 0)
(1.32157e-08 -3.98634e-08 0)
(1.24939e-08 -4.02169e-08 0)
(1.20896e-08 -4.04494e-08 0)
(1.19017e-08 -4.06343e-08 0)
(1.18642e-08 -4.08126e-08 0)
(1.19326e-08 -4.10071e-08 0)
(1.20765e-08 -4.12296e-08 0)
(1.22761e-08 -4.14859e-08 0)
(9.83768e-09 -3.8805e-08 0)
(8.63127e-09 -4.01855e-08 0)
(7.88743e-09 -4.09636e-08 0)
(7.43968e-09 -4.14238e-08 0)
(7.18837e-09 -4.17229e-08 0)
(7.07065e-09 -4.19499e-08 0)
(7.04556e-09 -4.21556e-08 0)
(7.08558e-09 -4.23686e-08 0)
(7.17201e-09 -4.26049e-08 0)
(7.29266e-09 -4.28729e-08 0)
(3.27922e-09 -3.91087e-08 0)
(2.87406e-09 -4.0629e-08 0)
(2.6198e-09 -4.14903e-08 0)
(2.46674e-09 -4.20007e-08 0)
(2.38086e-09 -4.23309e-08 0)
(2.34045e-09 -4.25776e-08 0)
(2.33143e-09 -4.2796e-08 0)
(2.3445e-09 -4.3018e-08 0)
(2.3734e-09 -4.32614e-08 0)
(2.41422e-09 -4.35362e-08 0)
(9.13927e-08 -1.21301e-09 0)
(9.19259e-08 -8.67602e-10 0)
(9.22579e-08 -6.35596e-10 0)
(9.25935e-08 -4.89827e-10 0)
(9.30316e-08 -4.01037e-10 0)
(9.36153e-08 -3.49301e-10 0)
(9.43589e-08 -3.21883e-10 0)
(9.52624e-08 -3.10524e-10 0)
(9.63186e-08 -3.09792e-10 0)
(9.75175e-08 -3.16185e-10 0)
(9.08055e-08 -3.69777e-09 0)
(9.11973e-08 -2.62033e-09 0)
(9.14417e-08 -1.94428e-09 0)
(9.17236e-08 -1.52114e-09 0)
(9.21269e-08 -1.26205e-09 0)
(9.26862e-08 -1.11065e-09 0)
(9.34112e-08 -1.03043e-09 0)
(9.4299e-08 -9.97268e-10 0)
(9.53404e-08 -9.94812e-10 0)
(9.65236e-08 -1.0118e-09 0)
(8.95168e-08 -6.20397e-09 0)
(8.96375e-08 -4.44018e-09 0)
(8.97133e-08 -3.34876e-09 0)
(8.98879e-08 -2.6688e-09 0)
(9.02206e-08 -2.25239e-09 0)
(9.07312e-08 -2.00887e-09 0)
(9.14198e-08 -1.87992e-09 0)
(9.22777e-08 -1.82679e-09 0)
(9.32917e-08 -1.82301e-09 0)
(9.44473e-08 -1.85025e-09 0)
(8.75745e-08 -8.72498e-09 0)
(8.73119e-08 -6.36437e-09 0)
(8.71521e-08 -4.90739e-09 0)
(8.71761e-08 -4.00174e-09 0)
(8.74092e-08 -3.44771e-09 0)
(8.78504e-08 -3.12401e-09 0)
(8.84872e-08 -2.95311e-09 0)
(8.93025e-08 -2.88355e-09 0)
(9.0278e-08 -2.88012e-09 0)
(9.13954e-08 -2.91847e-09 0)
(8.50191e-08 -1.12587e-08 0)
(8.42829e-08 -8.42007e-09 0)
(8.38328e-08 -6.66649e-09 0)
(8.3672e-08 -5.5767e-09 0)
(8.37827e-08 -4.91051e-09 0)
(8.41383e-08 -4.52196e-09 0)
(8.47108e-08 -4.31794e-09 0)
(8.54733e-08 -4.23671e-09 0)
(8.6401e-08 -4.23602e-09 0)
(8.74712e-08 -4.28673e-09 0)
(8.18907e-08 -1.38014e-08 0)
(8.06192e-08 -1.06242e-08 0)
(7.98412e-08 -8.65747e-09 0)
(7.94719e-08 -7.43396e-09 0)
(7.94442e-08 -6.68608e-09 0)
(7.97029e-08 -6.25076e-09 0)
(8.02023e-08 -6.02389e-09 0)
(8.09043e-08 -5.93645e-09 0)
(8.1777e-08 -5.94117e-09 0)
(8.27928e-08 -6.00549e-09 0)
(7.82321e-08 -1.63459e-08 0)
(7.63972e-08 -1.29824e-08 0)
(7.52736e-08 -1.0895e-08 0)
(7.46843e-08 -9.5942e-09 0)
(7.45103e-08 -8.79875e-09 0)
(7.46661e-08 -8.33674e-09 0)
(7.50872e-08 -8.0982e-09 0)
(7.57237e-08 -8.0102e-09 0)
(7.65365e-08 -8.02283e-09 0)
(7.74929e-08 -8.10174e-09 0)
(7.40895e-08 -1.88801e-08 0)
(7.16982e-08 -1.54876e-08 0)
(7.02331e-08 -1.33759e-08 0)
(6.94258e-08 -1.20569e-08 0)
(6.91063e-08 -1.12499e-08 0)
(6.91586e-08 -1.07824e-08 0)
(6.94999e-08 -1.05438e-08 0)
(7.0069e-08 -1.04606e-08 0)
(7.08195e-08 -1.04829e-08 0)
(7.17137e-08 -1.05765e-08 0)
(6.95116e-08 -2.13871e-08 0)
(6.6606e-08 -1.81199e-08 0)
(6.48252e-08 -1.60785e-08 0)
(6.38157e-08 -1.48001e-08 0)
(6.33598e-08 -1.40174e-08 0)
(6.33136e-08 -1.35658e-08 0)
(6.35774e-08 -1.33389e-08 0)
(6.40797e-08 -1.32658e-08 0)
(6.47677e-08 -1.32983e-08 0)
(6.55999e-08 -1.34047e-08 0)
(6.45482e-08 -2.38453e-08 0)
(6.12038e-08 -2.08464e-08 0)
(5.91537e-08 -1.89636e-08 0)
(5.79704e-08 -1.77805e-08 0)
(5.73952e-08 -1.70561e-08 0)
(5.72604e-08 -1.66409e-08 0)
(5.74518e-08 -1.64377e-08 0)
(5.78893e-08 -1.6381e-08 0)
(5.85154e-08 -1.6425e-08 0)
(5.92881e-08 -1.65395e-08 0)
(9.88474e-08 -3.1893e-10 0)
(1.00306e-07 -3.12405e-10 0)
(1.01869e-07 -3.06126e-10 0)
(1.03527e-07 -2.99393e-10 0)
(1.05271e-07 -2.91533e-10 0)
(1.07091e-07 -2.81993e-10 0)
(1.0898e-07 -2.70339e-10 0)
(1.10931e-07 -2.56218e-10 0)
(1.12937e-07 -2.39323e-10 0)
(1.14992e-07 -2.19359e-10 0)
(1.17089e-07 -1.96017e-10 0)
(1.19223e-07 -1.6895e-10 0)
(1.21387e-07 -1.3776e-10 0)
(1.23576e-07 -1.01973e-10 0)
(1.25784e-07 -6.1024e-11 0)
(1.28004e-07 -1.42409e-11 0)
(1.30228e-07 3.91256e-11 0)
(1.32449e-07 9.96304e-11 0)
(1.34659e-07 1.66414e-10 0)
(1.36848e-07 2.33402e-10 0)
(9.7892e-08 -1.0117e-09 0)
(9.94336e-08 -9.82181e-10 0)
(1.01068e-07 -9.56424e-10 0)
(1.02788e-07 -9.31101e-10 0)
(1.04585e-07 -9.03548e-10 0)
(1.06454e-07 -8.71788e-10 0)
(1.08386e-07 -8.34331e-10 0)
(1.10376e-07 -7.89997e-10 0)
(1.12417e-07 -7.37766e-10 0)
(1.14504e-07 -6.76681e-10 0)
(1.16631e-07 -6.05756e-10 0)
(1.18793e-07 -5.23912e-10 0)
(1.20983e-07 -4.29917e-10 0)
(1.23197e-07 -3.22337e-10 0)
(1.25429e-07 -1.99485e-10 0)
(1.27671e-07 -5.94038e-11 0)
(1.29918e-07 1.00095e-10 0)
(1.32163e-07 2.81292e-10 0)
(1.34396e-07 4.86536e-10 0)
(1.36607e-07 7.1969e-10 0)
(9.58974e-08 -1.83539e-09 0)
(9.76102e-08 -1.7635e-09 0)
(9.93933e-08 -1.70218e-09 0)
(1.01243e-07 -1.64523e-09 0)
(1.03155e-07 -1.58751e-09 0)
(1.05125e-07 -1.52511e-09 0)
(1.07147e-07 -1.45511e-09 0)
(1.09218e-07 -1.37517e-09 0)
(1.11334e-07 -1.28331e-09 0)
(1.13488e-07 -1.17773e-09 0)
(1.15677e-07 -1.0566e-09 0)
(1.17896e-07 -9.17991e-10 0)
(1.2014e-07 -7.59749e-10 0)
(1.22405e-07 -5.79395e-10 0)
(1.24684e-07 -3.74057e-10 0)
(1.26973e-07 -1.40383e-10 0)
(1.29264e-07 1.25545e-10 0)
(1.31552e-07 4.28437e-10 0)
(1.33827e-07 7.74602e-10 0)
(1.36079e-07 1.1745e-09 0)
(9.2963e-08 -2.87168e-09 0)
(9.49222e-08 -2.72755e-09 0)
(9.69209e-08 -2.60542e-09 0)
(9.89603e-08 -2.4959e-09 0)
(1.0104e-07 -2.39083e-09 0)
(1.03158e-07 -2.28384e-09 0)
(1.05315e-07 -2.16997e-09 0)
(1.07506e-07 -2.04531e-09 0)
(1.0973e-07 -1.90654e-09 0)
(1.11984e-07 -1.75066e-09 0)
(1.14264e-07 -1.5748e-09 0)
(1.16568e-07 -1.37595e-09 0)
(1.18891e-07 -1.15087e-09 0)
(1.2123e-07 -8.95889e-10 0)
(1.2358e-07 -6.06786e-10 0)
(1.25935e-07 -2.78627e-10 0)
(1.28292e-07 9.44787e-11 0)
(1.30642e-07 5.19811e-10 0)
(1.32978e-07 1.00708e-09 0)
(1.3529e-07 1.57133e-09 0)
(8.91854e-08 -4.18634e-09 0)
(9.14532e-08 -3.93212e-09 0)
(9.37243e-08 -3.71691e-09 0)
(9.60046e-08 -3.52777e-09 0)
(9.82984e-08 -3.35294e-09 0)
(1.00608e-07 -3.18292e-09 0)
(1.02936e-07 -3.01016e-09 0)
(1.05283e-07 -2.82858e-09 0)
(1.07647e-07 -2.63307e-09 0)
(1.1003e-07 -2.41909e-09 0)
(1.12429e-07 -2.18233e-09 0)
(1.14842e-07 -1.91849e-09 0)
(1.17268e-07 -1.623e-09 0)
(1.19702e-07 -1.29079e-09 0)
(1.22143e-07 -9.16139e-10 0)
(1.24585e-07 -4.92344e-10 0)
(1.27024e-07 -1.144e-11 0)
(1.29455e-07 5.36367e-10 0)
(1.31869e-07 1.16387e-09 0)
(1.3426e-07 1.89019e-09 0)
(8.46746e-08 -5.82724e-09 0)
(8.72982e-08 -5.42037e-09 0)
(8.98866e-08 -5.07525e-09 0)
(9.245e-08 -4.77527e-09 0)
(9.49971e-08 -4.50451e-09 0)
(9.75345e-08 -4.24973e-09 0)
(1.00067e-07 -4.0002e-09 0)
(1.02599e-07 -3.74711e-09 0)
(1.05133e-07 -3.48304e-09 0)
(1.07671e-07 -3.20147e-09 0)
(1.10212e-07 -2.89634e-09 0)
(1.12757e-07 -2.56171e-09 0)
(1.15306e-07 -2.19144e-09 0)
(1.17856e-07 -1.77888e-09 0)
(1.20406e-07 -1.31659e-09 0)
(1.22952e-07 -7.95995e-10 0)
(1.2549e-07 -2.06983e-10 0)
(1.28017e-07 4.62741e-10 0)
(1.30526e-07 1.22898e-09 0)
(1.33011e-07 2.11494e-09 0)
(7.95542e-08 -7.82125e-09 0)
(8.25641e-08 -7.21855e-09 0)
(8.55014e-08 -6.70524e-09 0)
(8.83793e-08 -6.26133e-09 0)
(9.12101e-08 -5.86645e-09 0)
(9.4004e-08 -5.50321e-09 0)
(9.67694e-08 -5.15719e-09 0)
(9.95129e-08 -4.81636e-09 0)
(1.0224e-07 -4.47051e-09 0)
(1.04955e-07 -4.1107e-09 0)
(1.07659e-07 -3.72874e-09 0)
(1.10356e-07 -3.31675e-09 0)
(1.13046e-07 -2.86677e-09 0)
(1.15728e-07 -2.37035e-09 0)
(1.18403e-07 -1.81819e-09 0)
(1.21067e-07 -1.19973e-09 0)
(1.2372e-07 -5.02634e-10 0)
(1.26357e-07 2.87918e-10 0)
(1.28974e-07 1.19075e-09 0)
(1.31566e-07 2.23311e-09 0)
(7.39571e-08 -1.01721e-08 0)
(7.73658e-08 -9.3343e-09 0)
(8.06695e-08 -8.61661e-09 0)
(8.38818e-08 -7.99644e-09 0)
(8.70176e-08 -7.4492e-09 0)
(9.00896e-08 -6.95333e-09 0)
(9.31087e-08 -6.49041e-09 0)
(9.60842e-08 -6.04485e-09 0)
(9.90241e-08 -5.60325e-09 0)
(1.01934e-07 -5.15389e-09 0)
(1.0482e-07 -4.68608e-09 0)
(1.07685e-07 -4.18971e-09 0)
(1.10531e-07 -3.65475e-09 0)
(1.1336e-07 -3.07076e-09 0)
(1.16172e-07 -2.42645e-09 0)
(1.18968e-07 -1.70919e-09 0)
(1.21746e-07 -9.0438e-10 0)
(1.24505e-07 5.32917e-12 0)
(1.27241e-07 1.04178e-09 0)
(1.29953e-07 2.23612e-09 0)
(6.80211e-08 -1.28598e-08 0)
(7.18251e-08 -1.1756e-08 0)
(7.54985e-08 -1.08034e-08 0)
(7.90534e-08 -9.97811e-09 0)
(8.25054e-08 -9.25232e-09 0)
(8.58685e-08 -8.60072e-09 0)
(8.91555e-08 -8.00105e-09 0)
(9.23777e-08 -7.43399e-09 0)
(9.55447e-08 -6.88272e-09 0)
(9.86649e-08 -6.33241e-09 0)
(1.01745e-07 -5.76962e-09 0)
(1.0479e-07 -5.18173e-09 0)
(1.07805e-07 -4.55644e-09 0)
(1.10791e-07 -3.88114e-09 0)
(1.13753e-07 -3.14246e-09 0)
(1.1669e-07 -2.32564e-09 0)
(1.19603e-07 -1.41387e-09 0)
(1.22492e-07 -3.87321e-10 0)
(1.25357e-07 7.7876e-10 0)
(1.28196e-07 2.11928e-09 0)
(6.18913e-08 -1.58396e-08 0)
(6.60756e-08 -1.4449e-08 0)
(7.01087e-08 -1.32392e-08 0)
(7.40018e-08 -1.21858e-08 0)
(7.77699e-08 -1.12596e-08 0)
(8.14275e-08 -1.04323e-08 0)
(8.4988e-08 -9.67843e-09 0)
(8.84638e-08 -8.97487e-09 0)
(9.1866e-08 -8.30135e-09 0)
(9.52044e-08 -7.63975e-09 0)
(9.84873e-08 -6.97366e-09 0)
(1.01722e-07 -6.28779e-09 0)
(1.04913e-07 -5.56734e-09 0)
(1.08066e-07 -4.79746e-09 0)
(1.11183e-07 -3.9626e-09 0)
(1.14269e-07 -3.0459e-09 0)
(1.17324e-07 -2.02842e-09 0)
(1.20351e-07 -8.88114e-10 0)
(1.2335e-07 4.02358e-10 0)
(1.26324e-07 1.88156e-09 0)
(5.73907e-08 -1.85076e-08 0)
(6.18012e-08 -1.69029e-08 0)
(6.60453e-08 -1.55032e-08 0)
(7.01427e-08 -1.42741e-08 0)
(7.41072e-08 -1.31847e-08 0)
(7.79519e-08 -1.22064e-08 0)
(8.1689e-08 -1.13131e-08 0)
(8.53304e-08 -1.0481e-08 0)
(8.8887e-08 -9.68855e-09 0)
(9.23685e-08 -8.91622e-09 0)
(9.57836e-08 -8.14612e-09 0)
(9.914e-08 -7.36145e-09 0)
(1.02444e-07 -6.546e-09 0)
(1.05701e-07 -5.68358e-09 0)
(1.08915e-07 -4.75744e-09 0)
(1.12091e-07 -3.74962e-09 0)
(1.15231e-07 -2.64029e-09 0)
(1.18339e-07 -1.40666e-09 0)
(1.21418e-07 -2.09195e-11 0)
(1.24473e-07 1.55587e-09 0)
(5.47915e-08 -2.05686e-08 0)
(5.92139e-08 -1.88994e-08 0)
(6.34969e-08 -1.74089e-08 0)
(6.76466e-08 -1.60789e-08 0)
(7.16711e-08 -1.48836e-08 0)
(7.55794e-08 -1.37972e-08 0)
(7.93812e-08 -1.27959e-08 0)
(8.30858e-08 -1.18575e-08 0)
(8.67026e-08 -1.09617e-08 0)
(9.02402e-08 -1.00895e-08 0)
(9.37067e-08 -9.22328e-09 0)
(9.71092e-08 -8.34617e-09 0)
(1.00454e-07 -7.44189e-09 0)
(1.03747e-07 -6.49411e-09 0)
(1.06993e-07 -5.48603e-09 0)
(1.10196e-07 -4.39984e-09 0)
(1.13361e-07 -3.21607e-09 0)
(1.16492e-07 -1.91272e-09 0)
(1.19595e-07 -4.63367e-10 0)
(1.22675e-07 1.16823e-09 0)
(5.24777e-08 -2.25274e-08 0)
(5.68659e-08 -2.08252e-08 0)
(6.11439e-08 -1.92714e-08 0)
(6.53082e-08 -1.78605e-08 0)
(6.93599e-08 -1.6574e-08 0)
(7.33035e-08 -1.5391e-08 0)
(7.71451e-08 -1.42907e-08 0)
(8.08918e-08 -1.32531e-08 0)
(8.45509e-08 -1.22593e-08 0)
(8.81295e-08 -1.12914e-08 0)
(9.16347e-08 -1.03324e-08 0)
(9.50729e-08 -9.36587e-09 0)
(9.84504e-08 -8.3757e-09 0)
(1.01773e-07 -7.3458e-09 0)
(1.05045e-07 -6.25968e-09 0)
(1.08272e-07 -5.09997e-09 0)
(1.11459e-07 -3.84798e-09 0)
(1.14612e-07 -2.48288e-09 0)
(1.17736e-07 -9.80168e-10 0)
(1.20839e-07 6.93286e-10 0)
(5.04203e-08 -2.43876e-08 0)
(5.47494e-08 -2.26706e-08 0)
(5.89912e-08 -2.1075e-08 0)
(6.31388e-08 -1.96017e-08 0)
(6.71886e-08 -1.82395e-08 0)
(7.11411e-08 -1.69724e-08 0)
(7.49993e-08 -1.57832e-08 0)
(7.87674e-08 -1.46546e-08 0)
(8.24507e-08 -1.35696e-08 0)
(8.6055e-08 -1.25117e-08 0)
(8.95859e-08 -1.14646e-08 0)
(9.30492e-08 -1.04129e-08 0)
(9.64505e-08 -9.34092e-09 0)
(9.97951e-08 -8.23314e-09 0)
(1.03088e-07 -7.07364e-09 0)
(1.06335e-07 -5.84584e-09 0)
(1.09541e-07 -4.5321e-09 0)
(1.12713e-07 -3.11313e-09 0)
(1.15857e-07 -1.56663e-09 0)
(1.18982e-07 1.37141e-10 0)
(4.85853e-08 -2.61499e-08 0)
(5.28387e-08 -2.44311e-08 0)
(5.70236e-08 -2.28094e-08 0)
(6.11313e-08 -2.12899e-08 0)
(6.51561e-08 -1.98664e-08 0)
(6.90956e-08 -1.85278e-08 0)
(7.295e-08 -1.72606e-08 0)
(7.67212e-08 -1.60503e-08 0)
(8.04126e-08 -1.48819e-08 0)
(8.40283e-08 -1.37405e-08 0)
(8.75728e-08 -1.26114e-08 0)
(9.10509e-08 -1.14798e-08 0)
(9.44675e-08 -1.03311e-08 0)
(9.78275e-08 -9.1505e-09 0)
(1.01136e-07 -7.92295e-09 0)
(1.04398e-07 -6.63288e-09 0)
(1.0762e-07 -5.26397e-09 0)
(1.10808e-07 -3.7987e-09 0)
(1.1397e-07 -2.21718e-09 0)
(1.17116e-07 -4.93246e-10 0)
(4.69398e-08 -2.7817e-08 0)
(5.11065e-08 -2.61057e-08 0)
(5.52202e-08 -2.44698e-08 0)
(5.92717e-08 -2.2917e-08 0)
(6.32542e-08 -2.14452e-08 0)
(6.71633e-08 -2.00471e-08 0)
(7.09972e-08 -1.87126e-08 0)
(7.47562e-08 -1.74301e-08 0)
(7.84417e-08 -1.61867e-08 0)
(8.20564e-08 -1.49695e-08 0)
(8.56036e-08 -1.3765e-08 0)
(8.90872e-08 -1.25597e-08 0)
(9.25112e-08 -1.13401e-08 0)
(9.58802e-08 -1.00924e-08 0)
(9.9199e-08 -8.80255e-09 0)
(1.02473e-07 -7.45628e-09 0)
(1.05707e-07 -6.03875e-09 0)
(1.08909e-07 -4.53432e-09 0)
(1.12087e-07 -2.92566e-09 0)
(1.1525e-07 -1.19029e-09 0)
(4.54531e-08 -2.93932e-08 0)
(4.95261e-08 -2.76959e-08 0)
(5.35593e-08 -2.60547e-08 0)
(5.75435e-08 -2.44791e-08 0)
(6.1471e-08 -2.297e-08 0)
(6.53366e-08 -2.15232e-08 0)
(6.91371e-08 -2.01316e-08 0)
(7.28713e-08 -1.87862e-08 0)
(7.65393e-08 -1.74765e-08 0)
(8.01425e-08 -1.61912e-08 0)
(8.36831e-08 -1.49186e-08 0)
(8.7164e-08 -1.36464e-08 0)
(9.05886e-08 -1.23622e-08 0)
(9.39609e-08 -1.10535e-08 0)
(9.72852e-08 -9.70747e-09 0)
(1.00567e-07 -8.31118e-09 0)
(1.03811e-07 -6.85138e-09 0)
(1.07024e-07 -5.31444e-09 0)
(1.10215e-07 -3.68559e-09 0)
(1.13393e-07 -1.94603e-09 0)
(4.40967e-08 -3.08842e-08 0)
(4.80726e-08 -2.92051e-08 0)
(5.20198e-08 -2.75651e-08 0)
(5.59292e-08 -2.59749e-08 0)
(5.97931e-08 -2.44374e-08 0)
(6.36057e-08 -2.29514e-08 0)
(6.7363e-08 -2.15121e-08 0)
(7.10627e-08 -2.01129e-08 0)
(7.47039e-08 -1.87453e-08 0)
(7.8287e-08 -1.74e-08 0)
(8.18132e-08 -1.60666e-08 0)
(8.52846e-08 -1.47344e-08 0)
(8.87039e-08 -1.33923e-08 0)
(9.20745e-08 -1.2029e-08 0)
(9.54002e-08 -1.0633e-08 0)
(9.86858e-08 -9.1928e-09 0)
(1.01937e-07 -7.69682e-09 0)
(1.05159e-07 -6.13342e-09 0)
(1.08361e-07 -4.49038e-09 0)
(1.11553e-07 -2.75244e-09 0)
(4.28451e-08 -3.22962e-08 0)
(4.6723e-08 -3.06376e-08 0)
(5.05814e-08 -2.90034e-08 0)
(5.44117e-08 -2.74048e-08 0)
(5.82063e-08 -2.58466e-08 0)
(6.19594e-08 -2.43294e-08 0)
(6.56664e-08 -2.28508e-08 0)
(6.93244e-08 -2.14061e-08 0)
(7.29318e-08 -1.99888e-08 0)
(7.64881e-08 -1.85912e-08 0)
(7.99937e-08 -1.72045e-08 0)
(8.34501e-08 -1.58194e-08 0)
(8.68592e-08 -1.44261e-08 0)
(9.02239e-08 -1.30146e-08 0)
(9.35476e-08 -1.15748e-08 0)
(9.68344e-08 -1.00966e-08 0)
(1.0009e-07 -8.57014e-09 0)
(1.03319e-07 -6.98571e-09 0)
(1.0653e-07 -5.3335e-09 0)
(1.09733e-07 -3.60164e-09 0)
(4.16755e-08 -3.36358e-08 0)
(4.54562e-08 -3.19986e-08 0)
(4.9225e-08 -3.0373e-08 0)
(5.29741e-08 -2.87707e-08 0)
(5.66962e-08 -2.71978e-08 0)
(6.03856e-08 -2.56564e-08 0)
(6.40376e-08 -2.41459e-08 0)
(6.76489e-08 -2.26633e-08 0)
(7.12174e-08 -2.12039e-08 0)
(7.4742e-08 -1.97615e-08 0)
(7.82224e-08 -1.83287e-08 0)
(8.16595e-08 -1.68977e-08 0)
(8.50546e-08 -1.54599e-08 0)
(8.841e-08 -1.40065e-08 0)
(9.17287e-08 -1.25289e-08 0)
(9.50144e-08 -1.10184e-08 0)
(9.82716e-08 -9.46671e-09 0)
(1.01506e-07 -7.866e-09 0)
(1.04725e-07 -6.20872e-09 0)
(1.07936e-07 -4.4861e-09 0)
(4.05674e-08 -3.49094e-08 0)
(4.42528e-08 -3.32934e-08 0)
(4.79328e-08 -3.16782e-08 0)
(5.16002e-08 -3.00756e-08 0)
(5.52485e-08 -2.84927e-08 0)
(5.8872e-08 -2.69328e-08 0)
(6.24663e-08 -2.53969e-08 0)
(6.60278e-08 -2.38833e-08 0)
(6.9554e-08 -2.23889e-08 0)
(7.30435e-08 -2.09087e-08 0)
(7.64954e-08 -1.94368e-08 0)
(7.99101e-08 -1.79666e-08 0)
(8.32884e-08 -1.64907e-08 0)
(8.66321e-08 -1.50016e-08 0)
(8.99436e-08 -1.34919e-08 0)
(9.32261e-08 -1.19544e-08 0)
(9.64837e-08 -1.03822e-08 0)
(9.97215e-08 -8.76931e-09 0)
(1.02946e-07 -7.11018e-09 0)
(1.06164e-07 -5.39882e-09 0)
(3.95021e-08 -3.61232e-08 0)
(4.30949e-08 -3.45272e-08 0)
(4.66878e-08 -3.29232e-08 0)
(5.02745e-08 -3.13227e-08 0)
(5.38491e-08 -2.97335e-08 0)
(5.74063e-08 -2.81601e-08 0)
(6.09417e-08 -2.66043e-08 0)
(6.44519e-08 -2.50659e-08 0)
(6.7934e-08 -2.35429e-08 0)
(7.13863e-08 -2.20315e-08 0)
(7.48078e-08 -2.05271e-08 0)
(7.81981e-08 -1.9024e-08 0)
(8.15578e-08 -1.75162e-08 0)
(8.4888e-08 -1.59972e-08 0)
(8.81907e-08 -1.44609e-08 0)
(9.14685e-08 -1.29012e-08 0)
(9.47251e-08 -1.13128e-08 0)
(9.79647e-08 -9.69111e-09 0)
(1.01193e-07 -8.03254e-09 0)
(1.04417e-07 -6.33345e-09 0)
(3.84625e-08 -3.72826e-08 0)
(4.19657e-08 -3.57052e-08 0)
(4.54741e-08 -3.41124e-08 0)
(4.8982e-08 -3.25158e-08 0)
(5.24842e-08 -3.09233e-08 0)
(5.59758e-08 -2.93403e-08 0)
(5.94527e-08 -2.77696e-08 0)
(6.29114e-08 -2.62119e-08 0)
(6.63491e-08 -2.46661e-08 0)
(6.97636e-08 -2.31296e-08 0)
(7.31538e-08 -2.15987e-08 0)
(7.65189e-08 -2.00688e-08 0)
(7.98589e-08 -1.85348e-08 0)
(8.31746e-08 -1.69914e-08 0)
(8.64675e-08 -1.54334e-08 0)
(8.97396e-08 -1.3856e-08 0)
(9.2994e-08 -1.2255e-08 0)
(9.62344e-08 -1.06274e-08 0)
(9.94655e-08 -8.971e-09 0)
(1.02693e-07 -7.28433e-09 0)
(3.74322e-08 -3.83928e-08 0)
(4.08492e-08 -3.68322e-08 0)
(4.42762e-08 -3.52504e-08 0)
(4.77081e-08 -3.36586e-08 0)
(5.11403e-08 -3.20652e-08 0)
(5.45684e-08 -3.04761e-08 0)
(5.79883e-08 -2.88947e-08 0)
(6.13967e-08 -2.73225e-08 0)
(6.47906e-08 -2.57593e-08 0)
(6.8168e-08 -2.42033e-08 0)
(7.1527e-08 -2.26515e-08 0)
(7.48668e-08 -2.11004e-08 0)
(7.81871e-08 -1.95456e-08 0)
(8.1488e-08 -1.79828e-08 0)
(8.47706e-08 -1.64076e-08 0)
(8.80365e-08 -1.48164e-08 0)
(9.1288e-08 -1.32061e-08 0)
(9.45282e-08 -1.15746e-08 0)
(9.77611e-08 -9.92144e-09 0)
(1.00992e-07 -8.2466e-09 0)
(3.63952e-08 -3.94581e-08 0)
(3.97298e-08 -3.79126e-08 0)
(4.30789e-08 -3.63413e-08 0)
(4.64385e-08 -3.47553e-08 0)
(4.9804e-08 -3.3163e-08 0)
(5.31716e-08 -3.15706e-08 0)
(5.65373e-08 -2.99823e-08 0)
(5.98978e-08 -2.84e-08 0)
(6.325e-08 -2.68241e-08 0)
(6.65917e-08 -2.52535e-08 0)
(6.99209e-08 -2.36861e-08 0)
(7.32364e-08 -2.21188e-08 0)
(7.65374e-08 -2.05481e-08 0)
(7.98238e-08 -1.89704e-08 0)
(8.30962e-08 -1.73822e-08 0)
(8.63555e-08 -1.57806e-08 0)
(8.96037e-08 -1.41635e-08 0)
(9.28431e-08 -1.253e-08 0)
(9.6077e-08 -1.08803e-08 0)
(9.93091e-08 -9.21618e-09 0)
(3.53356e-08 -4.04827e-08 0)
(3.85915e-08 -3.89509e-08 0)
(4.18673e-08 -3.73897e-08 0)
(4.51588e-08 -3.581e-08 0)
(4.84622e-08 -3.42204e-08 0)
(5.17735e-08 -3.26275e-08 0)
(5.50889e-08 -3.10355e-08 0)
(5.8405e-08 -2.94469e-08 0)
(6.17188e-08 -2.78626e-08 0)
(6.50275e-08 -2.62821e-08 0)
(6.8329e-08 -2.47036e-08 0)
(7.16218e-08 -2.31247e-08 0)
(7.49048e-08 -2.15425e-08 0)
(7.81775e-08 -1.99539e-08 0)
(8.14401e-08 -1.83562e-08 0)
(8.46931e-08 -1.67472e-08 0)
(8.79377e-08 -1.51255e-08 0)
(9.11759e-08 -1.34909e-08 0)
(9.44099e-08 -1.18448e-08 0)
(9.76429e-08 -1.01897e-08 0)
(3.42363e-08 -4.14704e-08 0)
(3.74182e-08 -3.99511e-08 0)
(4.06256e-08 -3.83998e-08 0)
(4.38546e-08 -3.68273e-08 0)
(4.71014e-08 -3.52421e-08 0)
(5.0362e-08 -3.36508e-08 0)
(5.36325e-08 -3.20581e-08 0)
(5.69091e-08 -3.04667e-08 0)
(6.01887e-08 -2.88778e-08 0)
(6.34681e-08 -2.72912e-08 0)
(6.67451e-08 -2.57057e-08 0)
(7.00177e-08 -2.41192e-08 0)
(7.32845e-08 -2.25293e-08 0)
(7.65448e-08 -2.09334e-08 0)
(7.97982e-08 -1.93293e-08 0)
(8.30451e-08 -1.77153e-08 0)
(8.62862e-08 -1.60906e-08 0)
(8.95227e-08 -1.44557e-08 0)
(9.27565e-08 -1.28126e-08 0)
(9.59897e-08 -1.11646e-08 0)
(3.30792e-08 -4.2425e-08 0)
(3.61924e-08 -4.09178e-08 0)
(3.93376e-08 -3.93767e-08 0)
(4.2511e-08 -3.78123e-08 0)
(4.57083e-08 -3.6233e-08 0)
(4.89253e-08 -3.46456e-08 0)
(5.21576e-08 -3.30547e-08 0)
(5.54012e-08 -3.14634e-08 0)
(5.86523e-08 -2.9873e-08 0)
(6.19074e-08 -2.82838e-08 0)
(6.51639e-08 -2.66946e-08 0)
(6.84195e-08 -2.5104e-08 0)
(7.16724e-08 -2.35096e-08 0)
(7.49218e-08 -2.19093e-08 0)
(7.81669e-08 -2.03012e-08 0)
(8.14079e-08 -1.86841e-08 0)
(8.46453e-08 -1.70577e-08 0)
(8.78799e-08 -1.54229e-08 0)
(9.11128e-08 -1.37821e-08 0)
(9.43457e-08 -1.21391e-08 0)
(3.18428e-08 -4.33507e-08 0)
(3.48941e-08 -4.18559e-08 0)
(3.79852e-08 -4.03259e-08 0)
(4.11117e-08 -3.87709e-08 0)
(4.42688e-08 -3.71993e-08 0)
(4.74514e-08 -3.56176e-08 0)
(5.06544e-08 -3.40308e-08 0)
(5.38731e-08 -3.2442e-08 0)
(5.7103e-08 -3.08528e-08 0)
(6.03402e-08 -2.92635e-08 0)
(6.35812e-08 -2.76734e-08 0)
(6.68236e-08 -2.6081e-08 0)
(7.00654e-08 -2.44846e-08 0)
(7.33053e-08 -2.28821e-08 0)
(7.65429e-08 -2.1272e-08 0)
(7.97781e-08 -1.96533e-08 0)
(8.30113e-08 -1.80259e-08 0)
(8.62434e-08 -1.63913e-08 0)
(8.9475e-08 -1.47519e-08 0)
(9.27072e-08 -1.31118e-08 0)
(3.04998e-08 -4.42524e-08 0)
(3.34983e-08 -4.27717e-08 0)
(3.65461e-08 -4.12545e-08 0)
(3.96375e-08 -3.97106e-08 0)
(4.27665e-08 -3.81484e-08 0)
(4.59268e-08 -3.65744e-08 0)
(4.91122e-08 -3.49935e-08 0)
(5.23168e-08 -3.34089e-08 0)
(5.55351e-08 -3.18226e-08 0)
(5.87623e-08 -3.02349e-08 0)
(6.19944e-08 -2.86453e-08 0)
(6.52283e-08 -2.70528e-08 0)
(6.8462e-08 -2.54558e-08 0)
(7.1694e-08 -2.38525e-08 0)
(7.49241e-08 -2.22415e-08 0)
(7.81526e-08 -2.06221e-08 0)
(8.13804e-08 -1.89945e-08 0)
(8.46088e-08 -1.736e-08 0)
(8.78388e-08 -1.57215e-08 0)
(9.10705e-08 -1.40827e-08 0)
(2.39821e-09 -4.38498e-08 0)
(7.23773e-09 -4.32168e-08 0)
(1.21717e-08 -4.18921e-08 0)
(1.72567e-08 -3.99589e-08 0)
(2.25349e-08 -3.75015e-08 0)
(2.80317e-08 -3.46172e-08 0)
(3.37525e-08 -3.1415e-08 0)
(3.96808e-08 -2.80111e-08 0)
(4.57781e-08 -2.45236e-08 0)
(5.19826e-08 -2.1068e-08 0)
(2.3232e-09 -4.42034e-08 0)
(7.00427e-09 -4.36295e-08 0)
(1.17634e-08 -4.24254e-08 0)
(1.66486e-08 -4.06627e-08 0)
(2.16962e-08 -3.84135e-08 0)
(2.69285e-08 -3.57609e-08 0)
(3.23527e-08 -3.27977e-08 0)
(3.7958e-08 -2.96238e-08 0)
(4.37159e-08 -2.63425e-08 0)
(4.95789e-08 -2.30613e-08 0)
(2.25651e-09 -4.45902e-08 0)
(6.79801e-09 -4.40666e-08 0)
(1.14039e-08 -4.29665e-08 0)
(1.61146e-08 -4.13525e-08 0)
(2.09608e-08 -3.92869e-08 0)
(2.59623e-08 -3.68416e-08 0)
(3.1126e-08 -3.40966e-08 0)
(3.64453e-08 -3.11384e-08 0)
(4.18987e-08 -2.80575e-08 0)
(4.74492e-08 -2.49502e-08 0)
(2.19656e-09 -4.50091e-08 0)
(6.61345e-09 -4.45285e-08 0)
(1.10835e-08 -4.35184e-08 0)
(1.56408e-08 -4.2034e-08 0)
(2.03111e-08 -4.01299e-08 0)
(2.51114e-08 -3.78688e-08 0)
(3.00481e-08 -3.53209e-08 0)
(3.51165e-08 -3.25616e-08 0)
(4.03003e-08 -2.96705e-08 0)
(4.55693e-08 -2.67336e-08 0)
(2.14171e-09 -4.54583e-08 0)
(6.44522e-09 -4.5015e-08 0)
(1.0793e-08 -4.4083e-08 0)
(1.52135e-08 -4.27116e-08 0)
(1.97285e-08 -4.09494e-08 0)
(2.43522e-08 -3.88518e-08 0)
(2.90903e-08 -3.64809e-08 0)
(3.39391e-08 -3.39033e-08 0)
(3.88856e-08 -3.11893e-08 0)
(4.39045e-08 -2.84156e-08 0)
(2.09058e-09 -4.59362e-08 0)
(6.28892e-09 -4.55251e-08 0)
(1.05244e-08 -4.4661e-08 0)
(1.4821e-08 -4.33884e-08 0)
(1.9197e-08 -4.17509e-08 0)
(2.36643e-08 -3.97981e-08 0)
(2.82276e-08 -3.75854e-08 0)
(3.28837e-08 -3.51724e-08 0)
(3.76218e-08 -3.26217e-08 0)
(4.24201e-08 -3.00016e-08 0)
(2.04207e-09 -4.64404e-08 0)
(6.14106e-09 -4.60575e-08 0)
(1.02716e-08 -4.52527e-08 0)
(1.44541e-08 -4.40666e-08 0)
(1.87039e-08 -4.25387e-08 0)
(2.30309e-08 -4.07139e-08 0)
(2.74389e-08 -3.86424e-08 0)
(3.1925e-08 -3.63776e-08 0)
(3.64797e-08 -3.39759e-08 0)
(4.10843e-08 -3.14984e-08 0)
(1.99527e-09 -4.69689e-08 0)
(5.99888e-09 -4.66107e-08 0)
(1.00297e-08 -4.58577e-08 0)
(1.41052e-08 -4.47475e-08 0)
(1.82386e-08 -4.33161e-08 0)
(2.24381e-08 -4.16046e-08 0)
(2.67067e-08 -3.96586e-08 0)
(3.10416e-08 -3.75267e-08 0)
(3.54343e-08 -3.526e-08 0)
(3.98683e-08 -3.29132e-08 0)
(1.94948e-09 -4.75191e-08 0)
(5.86011e-09 -4.71826e-08 0)
(9.79467e-09 -4.64753e-08 0)
(1.37684e-08 -4.54319e-08 0)
(1.77927e-08 -4.40858e-08 0)
(2.18746e-08 -4.24745e-08 0)
(2.60164e-08 -4.064e-08 0)
(3.02154e-08 -3.86269e-08 0)
(3.44637e-08 -3.64816e-08 0)
(3.87469e-08 -3.42537e-08 0)
(1.90405e-09 -4.80885e-08 0)
(5.7228e-09 -4.77713e-08 0)
(9.56306e-09 -4.71044e-08 0)
(1.34384e-08 -4.61201e-08 0)
(1.73589e-08 -4.48493e-08 0)
(2.13306e-08 -4.33268e-08 0)
(2.53554e-08 -4.15914e-08 0)
(2.94306e-08 -3.96842e-08 0)
(3.35491e-08 -3.76479e-08 0)
(3.7698e-08 -3.55272e-08 0)
(1.85844e-09 -4.86748e-08 0)
(5.58524e-09 -4.83747e-08 0)
(9.33187e-09 -4.77436e-08 0)
(1.31107e-08 -4.68117e-08 0)
(1.69308e-08 -4.56078e-08 0)
(2.07977e-08 -4.41642e-08 0)
(2.47129e-08 -4.25169e-08 0)
(2.86739e-08 -4.07041e-08 0)
(3.26741e-08 -3.8765e-08 0)
(3.6702e-08 -3.67406e-08 0)
(1.81212e-09 -4.92752e-08 0)
(5.4458e-09 -4.89904e-08 0)
(9.09826e-09 -4.83912e-08 0)
(1.2781e-08 -4.75061e-08 0)
(1.65026e-08 -4.63617e-08 0)
(2.02682e-08 -4.49884e-08 0)
(2.4079e-08 -4.34195e-08 0)
(2.79329e-08 -4.16907e-08 0)
(3.18238e-08 -3.98385e-08 0)
(3.57414e-08 -3.79e-08 0)
(1.76457e-09 -4.98869e-08 0)
(5.30292e-09 -4.9616e-08 0)
(8.85952e-09 -4.90455e-08 0)
(1.24454e-08 -4.82022e-08 0)
(1.60689e-08 -4.71112e-08 0)
(1.97348e-08 -4.58005e-08 0)
(2.34446e-08 -4.43016e-08 0)
(2.71964e-08 -4.26477e-08 0)
(3.09847e-08 -4.08727e-08 0)
(3.48001e-08 -3.90108e-08 0)
(1.71525e-09 -5.05068e-08 0)
(5.15494e-09 -5.02485e-08 0)
(8.61284e-09 -4.97041e-08 0)
(1.20998e-08 -4.88986e-08 0)
(1.5624e-08 -4.78555e-08 0)
(1.91904e-08 -4.66011e-08 0)
(2.28007e-08 -4.51648e-08 0)
(2.64534e-08 -4.35778e-08 0)
(3.01436e-08 -4.18716e-08 0)
(3.3863e-08 -4.00778e-08 0)
(1.66358e-09 -5.11317e-08 0)
(5.00013e-09 -5.08851e-08 0)
(8.35528e-09 -5.03645e-08 0)
(1.17399e-08 -4.95933e-08 0)
(1.51622e-08 -4.85936e-08 0)
(1.86276e-08 -4.739e-08 0)
(2.21383e-08 -4.601e-08 0)
(2.5693e-08 -4.44829e-08 0)
(2.92877e-08 -4.28381e-08 0)
(3.29149e-08 -4.11049e-08 0)
(1.60893e-09 -5.17579e-08 0)
(4.83663e-09 -5.15223e-08 0)
(8.08364e-09 -5.10237e-08 0)
(1.1361e-08 -5.0284e-08 0)
(1.46773e-08 -4.93239e-08 0)
(1.80385e-08 -4.81665e-08 0)
(2.14474e-08 -4.68375e-08 0)
(2.49036e-08 -4.53644e-08 0)
(2.84035e-08 -4.37747e-08 0)
(3.19407e-08 -4.20956e-08 0)
(1.5506e-09 -5.2381e-08 0)
(4.66243e-09 -5.21561e-08 0)
(7.79439e-09 -5.16782e-08 0)
(1.09578e-08 -5.09677e-08 0)
(1.41622e-08 -5.00441e-08 0)
(1.74142e-08 -4.89291e-08 0)
(2.07175e-08 -4.76469e-08 0)
(2.40725e-08 -4.6223e-08 0)
(2.74766e-08 -4.46833e-08 0)
(3.09241e-08 -4.30529e-08 0)
(1.4881e-09 -5.29962e-08 0)
(4.47554e-09 -5.27821e-08 0)
(7.48347e-09 -5.23239e-08 0)
(1.05242e-08 -5.16407e-08 0)
(1.36085e-08 -5.07512e-08 0)
(1.67442e-08 -4.96758e-08 0)
(1.99361e-08 -4.84372e-08 0)
(2.31854e-08 -4.70589e-08 0)
(2.64907e-08 -4.55653e-08 0)
(2.98472e-08 -4.39796e-08 0)
(1.42211e-09 -5.35981e-08 0)
(4.27397e-09 -5.33952e-08 0)
(7.14564e-09 -5.29555e-08 0)
(1.00521e-08 -5.22982e-08 0)
(1.30058e-08 -5.14413e-08 0)
(1.60159e-08 -5.04038e-08 0)
(1.9088e-08 -4.92067e-08 0)
(2.2225e-08 -4.7872e-08 0)
(2.54263e-08 -4.6422e-08 0)
(2.86888e-08 -4.48785e-08 0)
(1.35761e-09 -5.41813e-08 0)
(4.05473e-09 -5.39883e-08 0)
(6.77269e-09 -5.3566e-08 0)
(9.52987e-09 -5.29341e-08 0)
(1.23394e-08 -5.21093e-08 0)
(1.52112e-08 -5.11093e-08 0)
(1.81526e-08 -4.99531e-08 0)
(2.11677e-08 -4.86612e-08 0)
(2.42577e-08 -4.72544e-08 0)
(2.74209e-08 -4.57527e-08 0)
)
;

boundaryField
{
    left
    {
        type            symmetryPlane;
    }
    right
    {
        type            tractionDisplacement;
        traction        uniform (10000 0 0);
        pressure        
        {
            type            uniform;
            value           0;
        }
        value           nonuniform List<vector> 
30
(
(1.37938e-07 2.61082e-10 3.25407e-26)
(1.37704e-07 8.52978e-10 -1.95214e-26)
(1.37194e-07 1.40577e-09 -2.48603e-29)
(1.36432e-07 1.89666e-09 3.62027e-26)
(1.35437e-07 2.30718e-09 -3.09353e-26)
(1.34232e-07 2.62139e-09 -5.50271e-27)