/*--------------------------------*- C++ -*----------------------------------*\
  =========                 |
  \\      /  F ield         | OpenFOAM: The Open Source CFD Toolbox
   \\    /   O peration     | Website:  https://openfoam.org
    \\  /    A nd           | Version:  9
     \\/     M anipulation  |
\*---------------------------------------------------------------------------*/
FoamFile
{
    format      ascii;
    class       volScalarField;
    location    "160";
    object      sigmayy;
}
// * * * * * * * * * * * * * * * * * * * * * * * * * * * * * * * * * * * * * //

dimensions      [1 -1 -2 0 0 0 0];

internalField   nonuniform List<scalar> 
1000
(
4577.15
1142.45
-719.086
-1738.33
-2285.74
-2557.51
-2664.28
-2672.74
-2626.36
-2547.39
5155.06
1842.83
22.3036
-1009.38
-1594.07
-1913.8
-2072.02
-2131.36
-2129.44
-2068.87
5279.2
2374.66
754.111
-201.092
-773.959
-1116.05
-1314.25
-1421.59
-1469.79
-1456.24
5011.54
2746.59
1455.89
650.681
130.975
-211.156
-438.557
-590.393
-690.502
-732.875
4447.25
2979.06
2107.02
1503.31
1066.97
742.36
495.643
304.437
154.468
53.988
3703.87
3100.68
2687.13
2310.19
1974.08
1678.65
1420.87
1196.26
1000.76
844.139
2908.2
3143.54
3176.62
3024.37
2791.4
2530.35
2267.66
2015.99
1781.16
1574.13
2181.93
3138.2
3558.08
3603.34
3463.28
3235.44
2971.56
2699.16
2432.74
2184.24
1628.09
3112.01
3820.82
4015.1
3945.42
3743.12
3479.09
3191.9
2902.4
2623.43
1335.07
3111.41
3962.08
4225.33
4185.64
3992.45
3726
3429.82
3127.05
2829.48
-11969.9
-7832.7
-5245.31
-3569.34
-2452.4
-1683.65
-1136.76
-734.129
-426.898
-183.923
-11545.9
-7556.03
-5185.68
-3644.57
-2602.82
-1874.53
-1348.03
-953.689
-646.844
-398.128
-10357.5
-7024.18
-5008.66
-3677.15
-2759.75
-2103.7
-1617.36
-1243.32
-944.688
-697.095
-8647.44
-6249.08
-4742.37
-3704.05
-2959.32
-2404.27
-1975.1
-1631.19
-1346.36
-1103.2
-6578.35
-5279.16
-4384.62
-3700.06
-3163.57
-2731.04
-2372.36
-2066.95
-1801.31
-1566.43
-4314.38
-4176.63
-3938.45
-3637.64
-3329.14
-3032.3
-2753.26
-2493.04
-2251.86
-2030.23
-2022.92
-3008.06
-3410.89
-3490.52
-3411.78
-3254.46
-3059.64
-2849.38
-2637.63
-2435.2
135.707
-1838.4
-2811.82
-3236.99
-3372.13
-3348.72
-3237.97
-3080.33
-2902.18
-2724.84
2021.12
-726.432
-2153.51
-2862.42
-3180.2
-3276.78
-3245.85
-3141.55
-2999.96
-2851.77
3524.49
279.087
-1450.43
-2361.26
-2818.87
-3015.24
-3057.18
-3006.17
-2902.82
-2791.22
10.1812
191.841
355.126
507.087
653.278
798.165
945.356
1097.87
1258.37
1429.34
1613.22
1812.57
2030.12
2268.92
2532.42
2824.51
3149.41
3510.89
3909.07
4339.35
-185.881
24.5272
208.602
377.983
538.791
695.93
853.328
1014.26
1181.6
1358.01
1546.05
1748.38
1967.79
2207.35
2470.47
2761.01
3083.46
3443.58
3850.92
4337.83
-469.725
-224.128
-12.8676
181.029
363.352
539.027
712.162
886.265
1064.44
1249.54
1444.32
1651.54
1874.08
2115.05
2377.91
2666.62
2986
3342.4
3744.92
4218.93
-858.399
-570.125
-324.182
-98.2933
112.839
313.86
508.863
701.502
895.086
1092.68
1297.23
1511.63
1738.87
1982.11
2244.83
2531.02
2845.43
3193.92
3583.71
4036.94
-1305.26
-976.98
-695.198
-435.273
-192.422
37.298
257.629
472.126
684.148
896.878
1113.37
1336.64
1569.72
1815.77
2078.22
2360.88
2668.09
3004.89
3377.14
3805.85
-1758.52
-1404.55
-1092.89
-802.796
-530.03
-271.977
-25.7684
211.662
443.434
672.639
902.309
1135.44
1375.01
1624.1
1885.92
2163.94
2461.94
2784.16
3135.36
3535.26
-2164
-1810.65
-1482.5
-1172.23
-876.229
-594.09
-324.511
-65.4617
185.531
431.155
674.184
917.412
1163.63
1415.67
1676.39
1948.77
2235.94
2541.27
2868.44
3234.79
-2470.67
-2154.64
-1830.14
-1515.16
-1207.15
-908.905
-621.486
-344.535
-76.7385
183.794
439.268
692.039
944.517
1199.11
1458.19
1724.09
1999.13
2285.68
2586.23
2914.56
-2631.75
-2393.08
-2096.62
-1796.36
-1491.83
-1189.57
-893.558
-605.648
-326.19
-54.519
210.655
470.971
728.216
984.194
1240.61
1499.02
1760.71
2026.79
2298.26
2584.53
-2614.9
-2457.34
-2217.38
-1961.54
-1687.67
-1403.55
-1116
-829.84
-547.958
-271.752
-1.54546
263.031
522.72
778.395
1030.84
1280.57
1527.67
1771.63
2011.33
2249.78
-2551.11
-2337.8
-2168.32
-1956.39
-1716.96
-1459.96
-1193.39
-923.222
-653.565
-386.978
-124.885
132.048
383.591
629.663
870.093
1104.38
1331.45
1549.4
1755.05
1944.85
-2330.28
-2227.97
-2105.16
-1927.78
-1715.95
-1481.59
-1233.57
-978.593
-721.535
-465.78
-213.58
33.5879
274.699
508.889
735.183
952.235
1158.04
1349.57
1522.11
1668.72
-2023.98
-1991.15
-1926.8
-1798.52
-1627.34
-1427.25
-1208.33
-978.091
-742.197
-504.847
-269.141
-37.4119
188.466
406.789
615.744
813.125
996.021
1160.4
1300.46
1407.52
-1748.69
-1758.86
-1735.86
-1649.26
-1515.83
-1349.08
-1159.41
-954.855
-741.597
-524.446
-307.161
-92.7674
116.157
317.199
507.833
685.135
845.463
984.054
1094.43
1166.58
-1496.54
-1536.04
-1541.86
-1488.32
-1387.91
-1252.18
-1090.95
-912.186
-722.314
-526.508
-328.988
-133.296
57.4376
240.234
411.999
569.25
707.808
822.423
906.217
948.201
-1268.01
-1327.15
-1352.7
-1324.34
-1251.32
-1143.07
-1008.26
-854.379
-687.734
-513.613
-336.489
-160.239
11.6192
175.696
328.487
466.116
584.056
676.786
737.253
753.897
-1063.59
-1134.69
-1173.08
-1163.3
-1112.23
-1027.46
-916.36
-785.681
-641.362
-488.574
-331.839
-175.193
-22.3729
122.978
257.102
375.892
474.65
547.772
588.243
584.362
-883.12
-959.988
-1005.78
-1009.13
-975.153
-909.889
-819.512
-709.912
-586.501
-454.159
-317.286
-179.911
-45.8387
81.1892
197.308
298.336
379.56
435.461
459.259
439.497
-725.694
-803.399
-852.262
-864.284
-843.209
-793.801
-721.156
-630.318
-526.088
-412.936
-295.006
-176.183
-60.1975
49.2445
148.31
232.876
298.356
339.461
349.807
318.512
-589.746
-664.489
-713.066
-730.156
-718.444
-681.658
-623.943
-549.547
-462.637
-367.2
-267.029
-165.753
-66.9138
25.9371
109.116
178.68
230.281
258.983
258.922
220.048
-473.301
-542.275
-588.043
-607.359
-602.106
-575.162
-529.856
-469.703
-398.242
-318.948
-235.195
-150.275
-67.4454
9.99127
78.6005
134.713
174.318
192.918
185.26
142.306
-374.187
-435.442
-476.602
-495.982
-494.866
-475.445
-440.348
-392.429
-334.63
-269.897
-201.15
-131.286
-63.2101
0.103732
55.5463
99.7982
129.252
139.915
127.192
83.165
-290.22
-342.537
-377.913
-395.791
-397.023
-383.244
-356.491
-319.024
-273.225
-221.522
-166.362
-110.208
-55.566
-5.0244
38.6903
72.6625
93.7362
98.4523
82.8975
40.3183
-219.357
-262.136
-291.084
-306.42
-308.685
-299.073
-279.115
-250.549
-215.238
-175.113
-132.146
-88.3499
-45.7989
-6.66057
26.7614
51.9893
66.3417
66.9107
50.451
11.3668
-159.816
-192.994
-215.331
-227.541
-229.947
-223.384
-208.958
-187.951
-161.754
-131.833
-99.6988
-66.9152
-35.1113
-6.01297
18.5213
36.4692
45.6335
43.64
27.8886
-6.07183
-110.188
-134.183
-150.14
-159.046
-161.061
-156.733
-146.811
-132.183
-113.829
-92.7858
-70.1368
-47.0119
-24.6027
-4.19096
12.8186
24.8646
30.2247
27.0286
13.2885
-14.328
-69.5674
-85.2489
-95.4504
-101.233
-102.631
-99.9565
-93.673
-84.3434
-72.593
-59.0886
-44.53
-29.6521
-15.2388
-2.14665
8.66194
16.0867
18.8634
15.5895
4.80871
-15.647
-37.7161
-46.4313
-51.8975
-55.0611
-55.8457
-54.3942
-50.9563
-45.8403
-39.3887
-31.9655
-23.9533
-15.7551
-7.80523
-0.58519
5.34803
9.33234
10.5537
8.03752
0.755786
-12.3277
-15.4046
-19.0727
-21.2296
-22.5374
-22.8628
-22.2547
-20.8215
-18.6945
-16.0156
-12.9338
-9.60437
-6.19138
-2.87192
0.152675
2.64652
4.31195
4.74807
3.37631
-0.456375
-6.86187
-11.2626
-10.0031
-8.70152
-7.54491
-6.48546
-5.53047
-4.68833
-3.95888
-3.3337
-2.7985
-2.33444
-1.92041
-1.53466
-1.15944
-0.783026
-0.41306
-0.100059
0.0192666
-0.356008
-1.36694
2553.53
2376.66
1986.78
1440.94
783.108
64.333
-660.247
-1336.69
-1920.27
-2429.1
2297.39
2149.64
1815.31
1344.71
775.728
151.326
-482.455
-1080.62
-1606.41
-2101.81
2061.59
1940.36
1660.05
1261.5
774.873
234.15
-323.925
-862.42
-1348.52
-1805.29
1842.59
1742.57
1507.76
1171.3
757.183
292.388
-193.732
-671.124
-1112.03
-1527.85
1638.91
1556.3
1359.82
1076.49
725.272
327.594
-93.0783
-512.331
-907.089
-1279.66
1449.54
1381.45
1217.37
979.524
682.876
344.415
-17.1154
-381.966
-731.176
-1060.58
1273.57
1217.67
1081.05
882.14
632.748
346.32
37.7986
-276.901
-582.289
-869.95
1110.08
1064.48
951.208
785.649
577.133
336.278
74.96
-194.039
-458.111
-706.342
958.251
921.392
828.017
691.067
517.908
316.894
97.4215
-130.287
-356.01
-567.639
817.373
787.959
711.579
599.21
456.654
290.445
107.966
-82.6639
-273.204
-451.286
686.893
663.83
601.985
510.764
394.723
258.921
109.09
-48.385
-206.921
-354.54
566.449
548.797
499.371
426.352
333.302
224.065
103.014
-24.9099
-154.519
-274.667
455.905
442.825
403.963
346.595
273.477
187.44
91.7154
-9.95438
-113.563
-209.081
355.394
346.084
316.11
272.161
216.304
150.482
76.9709
-1.48369
-81.8655
-155.439
265.363
258.964
236.325
203.839
162.88
114.575
60.4035
2.30368
-57.5211
-111.715
186.631
182.078
165.342
142.629
114.434
81.117
43.5306
2.9953
-38.9273
-76.2673
120.419
116.249
104.259
89.8962
72.4218
51.5782
27.8098
1.98859
-24.8064
-47.9067
68.175
62.6655
54.9064
47.5702
38.6154
27.5619
14.6848
0.524834
-14.217
-25.9935
30.7338
24.0834
20.6571
18.5202
15.4301
11.1501
5.89532
-0.0757278
-6.41591
-10.562
-13.8626
-20.3683
-19.9431
-18.9065
-18.046
-17.2571
-16.4278
-15.5373
-14.5774
-12.7292
)
;

boundaryField
{
    left
    {
        type            symmetryPlane;
    }
    right
    {
        type            calculated;
        value           nonuniform List<scalar> 
30
(
4334.52
4330.65
4211.89
4030.27
3799.5
3529.2
3229.05
2909.18
2579.56
2245.61
1941.25
1665.66
1405
1164.53
946.579
752.665
583.474
438.905
318.166
219.901
142.31
83.2792
40.5025
11.5864
-5.84876
-14.122
-15.4691
-12.1395
-6.61746
-1.1503
)
;
    }
    down
    {
        type            symmetryPlane;
    }
    up
    {
        type            calculated;
        value           nonuniform List<scalar> 
30
(
-1.17449e-07
-2.52043e-06
-6.96477e-06
-1.26465e-05
-1.86912e-05
-2.42241e-05
-2.84225e-05
-3.06688e-05
-3.07095e-05
-2.19017e-05
-7.11883e-06
2.00089e-11
-9.09495e-13
-1.40972e-11
-1.50067e-11
-6.36646e-12
-4.54747e-12
9.09495e-13
-7.7307e-12
-1.04592e-11
4.54747e-13
4.54747e-12
-8.18545e-12
4.09273e-12
-1.36424e-12
-6.36646e-12
-1.09139e-11
9.09495e-12
-5.00222e-12
-4.54747e-12
)
;
    }
    hole
    {
        type            calculated;
        value           nonuniform List<scalar> 
20
(
5402.59
5796.06
5676.74
5122.26
4248.09
3195.03
2114.23
1151.55
432.441
49.0544
-11828.3
-11338.7
-10042.6
-8195.08
-5973.56
-3560.86
-1144.47
1096.4
3006.06
4465.61
)
;
    }
    frontAndBack
    {
        type            empty;
    }
}


// ************************************************************************* //
