/*--------------------------------*- C++ -*----------------------------------*\
  =========                 |
  \\      /  F ield         | OpenFOAM: The Open Source CFD Toolbox
   \\    /   O peration     | Website:  https://openfoam.org
    \\  /    A nd           | Version:  9
     \\/     M anipulation  |
\*---------------------------------------------------------------------------*/
FoamFile
{
    format      ascii;
    class       volScalarField;
    location    "160";
    object      sigmaEq;
}
// * * * * * * * * * * * * * * * * * * * * * * * * * * * * * * * * * * * * * //

dimensions      [1 -1 -2 0 0 0 0];

internalField   nonuniform List<scalar> 
1000
(
10600.9
11713.3
13297.5
14295.4
14803.2
14988
14971.1
14832.5
14632.6
14364.6
13567.3
13301.9
14113.7
14732
15039.8
15111.7
15028
14849.7
14624.5
14337.5
16433.5
14884.1
14862.4
15031.5
15094.7
15029.9
14869.2
14649.1
14402.1
14114.8
19124.3
16399.8
15535.8
15211.1
14994.4
14771.3
14522.8
14256.3
13986.6
13698.1
21571.5
17797.1
16126.5
15292.4
14772.9
14374.4
14027.5
13709
13414.5
13124.9
23713.8
19030.8
16628
15300.4
14472.3
13888.9
13436.1
13061
12740.2
12449
25496.7
20063.3
17035.6
15262.3
14140.8
13374.8
12814.4
12381.3
12033.5
11739.7
26872.6
20865
17345.9
15204.1
13828.3
12897.9
12238.2
11750.5
11377.2
11080.3
27796.3
21412.3
17553.6
15145.9
13580.3
12523.7
11786.1
11255.1
10862.1
10563.2
28254.5
21690.8
17634.7
15077.2
13406.9
12281.2
11501.2
10947.4
10545.7
10250.7
10525.6
6742.74
4677.63
3712.72
3395.4
3449.53
3698.01
4035.03
4402.66
4770.99
10212.7
6611.46
5050.72
4524.72
4450.46
4572.84
4786.64
5043.32
5315.88
5590.25
9293.07
6438.57
5728.81
5764.78
5955.19
6156.88
6347.75
6528.56
6700.77
6870.81
7918.35
6261.17
6586.51
7140.53
7550.6
7821.91
8002.29
8128.09
8221.15
8303.89
6160.73
6181.73
7539.74
8517.12
9098.27
9423.84
9596.49
9679.25
9709.01
9719.72
4123.67
6330.2
8535.26
9822.06
10525.2
10886.6
11048.7
11094.1
11070.8
11020.5
2170.26
6810.12
9540.05
11013.2
11786.8
12162.5
12307.5
12317.5
12247.9
12144.7
2330.55
7649.97
10532.5
12065.7
12855.8
13221.9
13341
13314.9
13203.4
13052.8
4748.8
8803.45
11497.3
12966.2
13717.2
14048.8
14132.3
14068.9
13919.6
13727.5
7620.87
10187.2
12422.3
13709.1
14365.7
14637.2
14676.2
14576
14396.8
14193.7
5112.01
5419.45
5698.51
5949.86
6173.47
6369.58
6538.65
6681.21
6797.69
6888.35
6953.17
6991.8
7003.54
6987.25
6941.44
6864.23
6753.69
6608.71
6431.92
6253.54
5803.19
5975.39
6150.36
6320.14
6478.92
6623.06
6750.19
6858.66
6947.28
7015.04
7060.96
7083.96
7082.8
7055.98
7001.83
6918.52
6804.23
6656.84
6471.88
6261.02
6930.8
6926.15
6949.19
6990.84
7042.25
7096.88
7149.51
7195.99
7232.94
7257.55
7267.37
7260.15
7233.71
7185.88
7114.42
7016.99
6890.98
6733.01
6538.08
6322.61
8227.24
8058.49
7929.69
7835.93
7768.06
7718.85
7681.92
7651.6
7622.95
7591.65
7553.88
7506.22
7445.51
7368.72
7272.89
7155.03
7011.94
6840.18
6636.18
6418.73
9530.68
9228.55
8967.47
8750.71
8569.95
8418.62
8290.52
8179.65
8080.38
7987.55
7896.42
7802.68
7702.35
7591.7
7467.16
7325.28
7162.74
6976.54
6764.31
6545.1
10744.7
10346
9979.62
9660.75
9382.51
9139.75
8927.28
8739.66
8571.37
8417.03
8271.54
8130.1
7988.24
7841.78
7686.81
7519.74
7337.37
7137.28
6918.04
6698.51
11808.5
11352.5
10911
10514.7
10158.7
9839.86
9554.59
9298.66
9067.29
8855.45
8658.15
8470.53
8287.98
8106.2
7921.22
7729.56
7528.42
7315.99
7091.94
6875.05
12682.4
12208.9
11724.1
11276.7
10864.7
10487.5
10143.7
9830.68
9544.95
9282.3
9038.24
8808.25
8587.92
8373.11
8160.1
7945.79
7727.98
7505.74
7280.06
7069.76
13339.5
12883.9
12385.9
11913.5
11468.4
11052.6
10667
10310.9
9982.16
9677.91
9394.53
9128.15
8874.88
8631.04
8393.39
8159.48
7927.98
7699.24
7475.96
7276.9
13787.8
13352.1
12859.6
12386.3
11932.7
11500.8
11093
10710.4
10352.7
10018.6
9705.67
9411.12
9131.86
8864.94
8607.89
8359.1
8118.38
7887.62
7671.99
7492.07
14089
13570.9
13093.2
12633.1
12187.4
11758.3
11348.3
10959.2
10591.8
10245.6
9919.28
9610.94
9318.49
9039.9
8773.69
8519.3
8277.74
8052.42
7850.68
7693.53
13759.9
13445.5
13053.2
12648.9
12243.3
11843.2
11453.7
11078
10718.3
10375.3
10049.1
9739.04
9444.11
9163.48
8896.82
8644.77
8409.53
8195.84
8012.54
7879.62
13419.2
13202.5
12895.5
12554.4
12196.6
11833.4
11472.4
11118.5
10774.9
10443.7
10125.8
9821.8
9531.77
9256
8995.22
8751.19
8527.26
8329.28
8167.09
8058.67
13065.8
12912.6
12672.1
12390.1
12081.5
11758.6
11430.4
11103.1
10780.9
10466.8
10162.9
9870.39
9590.55
9324.57
9074.18
8842.1
8632.62
8452.39
8311.72
8226.42
12701.5
12596.5
12408.5
12177.6
11915.4
11633.1
11339.6
11041.8
10744.6
10451.7
10165.8
9889.2
9623.79
9371.61
9135.22
8918.13
8725.32
8563.94
8444.37
8380.41
12332.9
12266
12120.9
11933.7
11713.4
11469.8
11211.1
10944
10673.9
10404.9
10140.2
9882.76
9635.02
9399.73
9180.09
8980.18
8805.43
8663.22
8563.74
8518.88
11966.4
11929.7
11820.3
11670.3
11487.4
11279.7
11054.6
10818.4
10576.4
10332.9
10091.6
9855.5
9627.8
9411.64
9210.67
9029.35
8873.35
8750
8669.13
8640.78
11607.4
11594.2
11514.4
11396.4
11246.6
11071.8
10878.5
10672.5
10458.8
10241.6
10024.7
9811.61
9605.53
9409.98
9228.88
9066.88
8929.69
8824.41
8760.29
8745.71
11259.4
11264.2
11209
11118.4
10997.9
10853
10689.5
10512.6
10326.7
10136
9944.28
9754.91
9571.35
9397.23
9236.57
9094.05
8975.24
8886.87
8837.47
8833.87
10924.4
10942.8
10908.1
10841.2
10746.6
10629
10493.3
10344
10185.2
10020.8
9854.17
9688.81
9528.11
9375.68
9235.51
9112.16
9010.93
8938.06
8901.25
8905.97
10603.3
10632.1
10614.6
10568.3
10496.8
10404.1
10294.4
10171.3
10038.6
9899.73
9757.92
9616.38
9478.4
9347.46
9227.41
9122.55
9037.81
8978.87
8952.54
8963.13
10295.9
10333.1
10330.3
10302.2
10251.7
10182
10096.4
9998.18
9890.48
9776.31
9658.62
9540.36
9424.58
9314.56
9213.88
9126.54
9057.01
9010.36
8992.51
9006.76
10001.9
10046.2
10056.7
10045.2
10014
9965.58
9902.7
9827.99
9744.08
9653.59
9559.1
9463.24
9368.82
9278.8
9196.47
9125.45
9069.73
9033.72
9022.46
9038.46
9720.44
9771.78
9794.75
9798.93
9785.95
9757.71
9716.28
9663.8
9602.44
9534.41
9461.93
9387.34
9313.11
9241.91
9176.66
9120.59
9077.16
9050.17
9043.82
9059.95
9451.13
9510.19
9545.88
9565.53
9570.22
9561.26
9540.2
9508.71
9468.55
9421.56
9369.64
9314.85
9259.33
9205.47
9155.81
9113.15
9080.48
9060.97
9058.03
9072.96
9194.01
9262.49
9311.92
9347.5
9369.76
9379.53
9377.87
9366.07
9345.55
9317.88
9284.71
9247.86
9209.23
9170.91
9135.11
9104.21
9080.72
9067.25
9066.45
9079.18
8950.13
9030.73
9095.77
9148.37
9188.54
9216.63
9233.37
9239.75
9236.97
9226.44
9209.69
9188.39
9164.33
9139.37
9115.42
9094.5
9078.64
9069.91
9070.34
9080.25
8722.16
8818.68
8902.06
8973.31
9031.93
9077.95
9111.83
9134.44
9146.92
9150.66
9147.24
9138.38
9125.87
9111.52
9097.08
9084.23
9074.57
9069.61
9070.67
9077.74
8515.47
8632.97
8738.16
8829.97
8907.57
8970.79
9020.05
9056.2
9080.53
9094.63
9100.35
9099.68
9094.66
9087.3
9079.42
9072.59
9068.01
9066.46
9068.43
9073.49
8343.85
8487.51
8617.16
8730.47
8826.56
8905.2
8966.85
9012.59
9044.03
9063.21
9072.48
9074.37
9071.48
9066.33
9061.21
9057.93
9057.64
9060.49
9065.31
9069.46
10023.5
10308.1
10792.2
11415.1
12091
12743.5
13309.2
13739.5
14000.3
14070.9
9829.84
10076.1
10507.1
11072
11698.2
12320.3
12883.2
13343.5
13669.2
13795.8
9666.21
9879.22
10258.1
10762
11329.4
11904.8
12440.4
12898.3
13248.1
13417
9526.56
9711.4
10043.5
10490.7
11001.7
11529.1
12031.7
12475.9
12832.7
13032.9
9403.75
9564.26
9854.45
10249.4
10706.5
11185.4
11650.8
12073
12424.9
12644.9
9291.69
9431.12
9684.18
10031.6
10438.2
10869.8
11296
11690.8
12029.6
12258.6
9185.52
9306.76
9527.23
9832.17
10192.3
10578.9
10965.9
11330.5
11650.5
11879.8
9081.33
9186.94
9379.04
9646.35
9964.56
10309.4
10658.3
10991.8
11290
11513.1
8975.89
9068.14
9235.7
9470.03
9750.8
10057.5
10370.8
10673.5
10948.5
11161.1
8866.4
8947.29
9093.75
9299.41
9547.17
9819.58
10100
10373.6
10625.1
10825
8750.25
8821.55
8950.02
9130.98
9349.95
9592.02
9842.85
10089.4
10318.5
10504.5
8624.86
8688.18
8801.48
8961.4
9155.58
9371.21
9595.85
9818.1
10026.3
10198.7
8487.55
8544.37
8645.09
8787.38
8960.57
9153.62
9355.68
9556.68
9746.45
9906.28
8335.38
8387.14
8477.72
8605.56
8761.43
8935.75
9119.01
9302.24
9476.44
9625.7
8165.02
8213.22
8296
8412.41
8554.51
8714.06
8882.59
9051.97
9214.12
9355.58
7972.64
8018.97
8096.14
8203.98
8335.95
8484.94
8643.26
8803.32
8957.7
9095.03
7753.95
7800.25
7873.62
7975.66
8101.46
8244.67
8397.99
8554.13
8706
8844.02
7504.93
7551.83
7622.35
7721.81
7846.34
7989.53
8144.08
8302.8
8458.8
8603.87
7224.76
7264.68
7333.36
7435.48
7565.37
7715.78
7879.26
8048.68
8217.27
8378.02
6933.56
6931.23
7005.38
7118.9
7262.09
7427.91
7609.32
7799.11
7990.3
8178.29
)
;

boundaryField
{
    left
    {
        type            symmetryPlane;
    }
    right
    {
        type            calculated;
        value           nonuniform List<scalar> 
30
(
6242.39
6244.38
6306.11
6402.88
6529.76
6683.65
6860.74
7056.15
7264.14
7481.14
7683.98
7871.49
8051.96
8220.96
8376.1
8515.61
8638.42
8744.12
8832.92
8905.54
8963.08
9006.98
9038.86
9060.44
9073.47
9079.65
9080.66
9078.17
9074.04
9069.96
)
;
    }
    down
    {
        type            symmetryPlane;
    }
    up
    {
        type            calculated;
        value           nonuniform List<scalar> 
30
(
6926.97
6921.53
6995.82
7109.76
7253.29
7419.41
7601.16
7791.34
7982.97
8171.83
8338.13
8482.46
8612.79
8726.72
8823.37
8902.5
8964.58
9010.69
9042.44
9061.88
9071.37
9073.45
9070.75
9065.78
9060.83
9057.74
9057.6
9060.5
9065.14
9068.82
)
;
    }
    hole
    {
        type            calculated;
        value           nonuniform List<scalar> 
20
(
10633.6
13714.6
16679.6
19457.2
21980.3
24187.4
26023.4
27439
28387.4
28860.4
10743.7
10427.2
9468.14
8023.36
6154.81
3915.7
1363.45
1438.3
4420.54
7510.57
)
;
    }
    frontAndBack
    {
        type            empty;
    }
}


// ************************************************************************* //
