/*--------------------------------*- C++ -*----------------------------------*\
  =========                 |
  \\      /  F ield         | OpenFOAM: The Open Source CFD Toolbox
   \\    /   O peration     | Website:  https://openfoam.org
    \\  /    A nd           | Version:  9
     \\/     M anipulation  |
\*---------------------------------------------------------------------------*/
FoamFile
{
    format      ascii;
    class       volScalarField;
    location    "160";
    object      sigmazz;
}
// * * * * * * * * * * * * * * * * * * * * * * * * * * * * * * * * * * * * * //

dimensions      [1 -1 -2 0 0 0 0];

internalField   nonuniform List<scalar> 
1000
(
2847.09
2792.08
2737.62
2693.87
2658.14
2628.43
2603.15
2580.76
2561.6
2540.38
3673
3470.29
3310.67
3182.61
3078.28
2991.98
2919.54
2857.85
2806.74
2764.11
4467.8
4122.91
3862.12
3652.95
3482.65
3341.97
3224.19
3124.44
3040.94
2972.24
5212.37
4734.09
4378.46
4093.29
3861.17
3669.45
3508.99
3373.06
3258.07
3161.97
5888.72
5288.89
4847.01
4492.79
4204.47
3966.32
3766.9
3597.79
3453.72
3331.72
6480.35
5773.58
5256.2
4841.61
4504.17
4225.38
3991.78
3793.49
3623.79
3478.63
6972.37
6175.86
5595.82
5131.2
4753.01
4440.44
4178.39
3955.73
3764.62
3599.91
7351.26
6485.05
5857.4
5354.62
4945.16
4606.54
4322.47
4080.94
3873.21
3693.24
7603.85
6692.83
6034.97
5507.07
5076.56
4720.22
4421.09
4166.62
3947.47
3756.99
7731.47
6805.52
6121.42
5573.66
5128.59
4761.34
4453.78
4192.61
3967.91
3772.48
-2873.33
-1922.33
-1235.27
-684.27
-236.559
132.932
442.542
705.749
932.591
1130.52
-2796.61
-1821.33
-1156.29
-623.95
-190.11
169.011
470.622
727.453
948.977
1141.78
-2541.83
-1614.45
-978.85
-471.235
-58.4739
282.686
568.915
812.43
1022.15
1203.5
-2154.52
-1302.38
-715.806
-247.027
133.971
448.61
712.337
936.474
1129.08
1293.81
-1653.3
-895.399
-373.525
43.9936
383.385
663.541
898.162
1097.31
1267.89
1411.3
-1052.93
-405.525
38.832
394.601
683.855
922.539
1122.24
1291.47
1435.73
1553.8
-368.774
154.163
510.5
795.919
1027.99
1219.4
1379.38
1514.65
1629.07
1718.6
382.216
769.44
1029.51
1237.86
1407.26
1546.93
1663.53
1761.88
1843.97
1902.77
1181.6
1425.01
1582.89
1709.38
1812.23
1897.02
1967.84
2027.65
2076.7
2104.73
2009.9
2104.76
2156.96
2198.76
2232.7
2260.7
2284.26
2304.92
2322.77
2327.28
1300.35
1456.03
1596.06
1723.87
1841.89
1952.08
2056.09
2155.29
2250.88
2343.89
2435.25
2525.83
2616.42
2707.79
2800.69
2895.82
2993.86
3095.27
3199.85
3312.79
1306.34
1460.14
1596.95
1722.48
1838.74
1947.53
2050.38
2148.58
2243.25
2335.41
2425.94
2515.69
2605.43
2695.93
2787.93
2882.21
2979.6
3081.12
3188.17
3314.25
1355.14
1500.57
1627.01
1744.45
1854.25
1957.79
2056.27
2150.78
2242.27
2331.6
2419.6
2506.99
2594.51
2682.87
2772.8
2865.04
2960.44
3059.95
3164.7
3286.71
1427.5
1560.05
1671.84
1777.59
1877.96
1973.78
2065.84
2154.91
2241.7
2326.88
2411.11
2495.01
2579.22
2664.35
2751.06
2840.02
2931.97
3027.72
3128.09
3244.43
1523.13
1637.4
1730.79
1821.56
1909.8
1995.67
2079.45
2161.48
2242.19
2321.99
2401.35
2480.73
2560.62
2641.54
2724
2808.58
2895.89
2986.58
3081.27
3190.86
1641.18
1731.1
1803
1875.92
1949.67
2023.62
2097.44
2171.04
2244.45
2317.8
2391.33
2465.29
2540.01
2615.84
2693.18
2772.46
2854.14
2938.73
3026.67
3128.18
1780.11
1839.19
1887.27
1939.99
1997.26
2057.61
2120.07
2184.04
2249.12
2315.14
2382.03
2449.84
2518.68
2588.74
2660.25
2733.47
2808.72
2886.33
2966.57
3058.6
1937.58
1959.33
1981.97
2012.72
2051.96
2097.39
2147.37
2200.74
2256.69
2314.66
2374.29
2435.38
2497.81
2561.57
2626.71
2693.31
2761.49
2831.41
2903.16
2984.42
2112.22
2091.64
2087.71
2095.24
2115.16
2144.45
2180.84
2222.65
2268.61
2317.81
2369.55
2423.36
2478.89
2535.89
2594.21
2653.71
2714.32
2775.97
2838.55
2907.95
2307.41
2249.48
2214.37
2193.86
2189.79
2199.17
2219.18
2247.47
2282.18
2321.81
2365.23
2411.57
2460.14
2510.41
2561.94
2614.37
2667.33
2720.5
2773.5
2830.08
2455.01
2400.4
2336.02
2297.16
2276.73
2271.11
2277.35
2293.05
2316.24
2345.33
2379.01
2416.24
2456.16
2498.03
2541.24
2585.2
2629.38
2673.2
2716.05
2759.27
2486.49
2439.25
2378.77
2339.71
2317.09
2307.88
2309.56
2320.04
2337.53
2360.59
2388
2418.73
2451.92
2486.83
2522.76
2559.07
2595.12
2630.21
2663.55
2695.14
2544.9
2496.31
2435.68
2393.39
2365.97
2351.02
2346.4
2350.28
2361.05
2377.33
2397.94
2421.86
2448.19
2476.12
2504.89
2533.77
2562.01
2588.81
2613.27
2634.45
2579.33
2532.02
2474.1
2431.52
2401.94
2383.54
2374.61
2373.58
2379.06
2389.79
2404.67
2422.69
2442.98
2464.68
2487.01
2509.19
2530.4
2549.79
2566.39
2578.48
2596.2
2551.51
2497.73
2456.67
2426.74
2406.6
2394.91
2390.38
2391.82
2398.11
2408.24
2421.27
2436.33
2452.61
2469.29
2485.57
2500.63
2513.56
2523.38
2527.76
2598.93
2557.78
2509.02
2470.69
2441.74
2421.2
2408.04
2401.22
2399.72
2402.59
2408.9
2417.81
2428.48
2440.13
2451.96
2463.19
2472.97
2480.43
2484.58
2482.62
2590.38
2553.37
2510.13
2475.33
2448.33
2428.43
2414.84
2406.73
2403.27
2403.62
2406.98
2412.58
2419.66
2427.46
2435.25
2442.25
2447.65
2450.6
2450.15
2443.23
2572.89
2540.41
2502.92
2472.18
2447.82
2429.34
2416.15
2407.6
2402.99
2401.63
2402.82
2405.87
2410.1
2414.82
2419.32
2422.9
2424.78
2424.17
2420.17
2409.57
2548.39
2520.69
2489.02
2462.66
2441.42
2424.96
2412.84
2404.53
2399.48
2397.1
2396.81
2397.99
2400.06
2402.38
2404.32
2405.24
2404.41
2401.11
2394.53
2381.46
2518.45
2495.69
2469.81
2448.02
2430.24
2416.25
2405.7
2398.19
2393.28
2390.48
2389.31
2389.24
2389.75
2390.32
2390.36
2389.31
2386.52
2381.35
2373.06
2358.59
2484.33
2466.63
2446.47
2429.35
2415.28
2404.09
2395.52
2389.27
2384.97
2382.25
2380.7
2379.9
2379.41
2378.77
2377.5
2375.1
2371.03
2364.69
2355.48
2340.53
2447.08
2434.53
2420.01
2407.63
2397.45
2389.31
2383.04
2378.39
2375.09
2372.84
2371.34
2370.25
2369.2
2367.85
2365.78
2362.58
2357.79
2350.92
2341.45
2326.8
2407.55
2400.26
2391.32
2383.74
2377.56
2372.67
2368.92
2366.15
2364.15
2362.7
2361.58
2360.54
2359.32
2357.64
2355.19
2351.64
2346.62
2339.74
2330.57
2316.85
2366.46
2364.55
2361.17
2358.44
2356.37
2354.88
2353.84
2353.15
2352.65
2352.23
2351.73
2351.01
2349.9
2348.2
2345.7
2342.17
2337.32
2330.85
2322.43
2310.15
2324.45
2328.07
2330.28
2332.47
2334.62
2336.63
2338.43
2339.93
2341.09
2341.83
2342.12
2341.88
2341.06
2339.56
2337.26
2334.02
2329.64
2323.91
2316.59
2306.12
2282.06
2291.44
2299.34
2306.55
2313
2318.6
2323.3
2327.08
2329.93
2331.9
2333.02
2333.34
2332.9
2331.71
2329.76
2326.99
2323.31
2318.57
2312.61
2304.23
2239.85
2255.27
2269.03
2281.38
2292.23
2301.48
2309.1
2315.14
2319.66
2322.81
2324.72
2325.56
2325.48
2324.62
2323.08
2320.89
2318.04
2314.46
2310.03
2303.94
2198.37
2220.21
2240.05
2257.71
2273.05
2285.97
2296.49
2304.71
2310.78
2314.95
2317.49
2318.69
2318.85
2318.23
2317.05
2315.46
2313.52
2311.21
2308.41
2304.7
2158.23
2186.98
2213.21
2236.38
2256.29
2272.88
2286.19
2296.41
2303.8
2308.73
2311.6
2312.87
2312.99
2312.38
2311.43
2310.39
2309.41
2308.44
2307.33
2305.92
2118.31
2155.42
2188.97
2218.31
2243.22
2263.64
2279.69
2291.64
2299.91
2305.02
2307.57
2308.22
2307.65
2306.5
2305.35
2304.68
2304.74
2305.51
2306.58
2307.21
3602.94
3592.29
3540
3462.67
3361.02
3236.29
3090.38
2925.79
2744.38
2525.47
3449.75
3442.46
3400.5
3338.91
3259.09
3162.78
3052.12
2929.43
2795.59
2608.82
3312.2
3308.17
3275.94
3228.15
3165.71
3089.77
3001.82
2903.66
2796.27
2645.21
3187.34
3185.7
3161.2
3124.61
3076.53
3017.72
2949.2
2872.28
2787.35
2667.09
3072.78
3072.93
3054.57
3026.94
2990.39
2945.37
2892.57
2832.9
2766.31
2672.34
2966.61
2968.14
2954.73
2934.36
2907.17
2873.38
2833.39
2787.81
2736.31
2664.02
2867.23
2869.86
2860.51
2846.11
2826.62
2802.08
2772.64
2738.66
2699.65
2645.06
2773.31
2776.85
2770.88
2761.47
2748.42
2731.59
2710.95
2686.64
2658.05
2617.86
2683.73
2688.05
2684.96
2679.78
2672.2
2661.92
2648.73
2632.58
2612.8
2584.4
2597.51
2602.53
2601.93
2600.42
2597.58
2592.97
2586.2
2577.07
2564.86
2546.19
2513.78
2519.45
2521.07
2522.82
2524.18
2524.57
2523.48
2520.52
2514.93
2504.46
2431.76
2438.06
2441.69
2446.4
2451.59
2456.53
2460.58
2463.18
2463.53
2460.14
2350.74
2357.68
2363.17
2370.64
2379.4
2388.6
2397.43
2405.21
2411.04
2413.94
2270.04
2277.64
2284.89
2295.01
2307.2
2320.5
2333.95
2346.69
2357.77
2366.47
2189.03
2197.29
2206.23
2218.96
2234.57
2251.94
2269.97
2287.64
2303.91
2318.19
2107.09
2115.98
2126.57
2141.94
2161.04
2182.59
2205.32
2228.06
2249.64
2269.52
2023.66
2033.03
2045.23
2063.35
2086.13
2112.09
2139.8
2167.9
2195.11
2220.85
1938.34
1947.59
1961.41
1982.55
2009.34
2040.08
2073.18
2107.11
2140.45
2172.55
1851.3
1858.54
1874.22
1898.87
1930.17
1966.23
2005.29
2045.67
2085.83
2125.02
1758.45
1755.12
1774.15
1803.45
1840.23
1882.74
1929.24
1977.9
2026.95
2075.56
)
;

boundaryField
{
    left
    {
        type            symmetryPlane;
    }
    right
    {
        type            calculated;
        value           nonuniform List<scalar> 
30
(
3307.97
3307.07
3279.67
3237.75
3184.5
3122.12
3052.86
2979.04
2902.97
2825.91
2755.67
2692.07
2631.92
2576.43
2526.13
2481.38
2442.34
2408.98
2381.12
2358.44
2340.53
2326.91
2317.04
2310.37
2306.34
2304.43
2304.12
2304.89
2306.17
2307.43
)
;
    }
    down
    {
        type            symmetryPlane;
    }
    up
    {
        type            calculated;
        value           nonuniform List<scalar> 
30
(
1762.61
1761.23
1780.13
1809.13
1845.65
1887.92
1934.17
1982.56
2031.32
2079.38
2121.69
2158.42
2191.58
2220.57
2245.16
2265.3
2281.1
2292.83
2300.91
2305.86
2308.27
2308.8
2308.11
2306.85
2305.59
2304.8
2304.77
2305.51
2306.69
2307.62
)
;
    }
    hole
    {
        type            calculated;
        value           nonuniform List<scalar> 
20
(
2705.8
3489.78
4244.23
4951.01
5593.04
6154.66
6621.82
6982.04
7223.36
7343.72
-2733.82
-2653.27
-2409.23
-2041.6
-1566.13
-996.376
-346.939
365.984
1124.84
1911.12
)
;
    }
    frontAndBack
    {
        type            empty;
    }
}


// ************************************************************************* //
