/*--------------------------------*- C++ -*----------------------------------*\
  =========                 |
  \\      /  F ield         | OpenFOAM: The Open Source CFD Toolbox
   \\    /   O peration     | Website:  https://openfoam.org
    \\  /    A nd           | Version:  9
     \\/     M anipulation  |
\*---------------------------------------------------------------------------*/
FoamFile
{
    format      ascii;
    class       volScalarField;
    location    "160";
    object      sigmaxy;
}
// * * * * * * * * * * * * * * * * * * * * * * * * * * * * * * * * * * * * * //

dimensions      [1 -1 -2 0 0 0 0];

internalField   nonuniform List<scalar> 
1000
(
-5590.1
-4256.44
-3363.11
-2728.71
-2261.95
-1908.66
-1634.95
-1418.5
-1240.29
-1012.61
-6883.24
-4614.98
-3208.03
-2293.24
-1676.72
-1249
-944.508
-721.625
-549.779
-356.718
-7848.2
-4808.48
-2982.1
-1842.33
-1109.02
-626.369
-302.826
-82.2263
72.9887
230.461
-8373.95
-4803.53
-2694.96
-1409.48
-605.451
-94.5079
232.818
442.73
578.675
704.147
-8384.09
-4579.68
-2357
-1021.87
-202.111
306.26
621.064
813.248
929.011
1025.38
-7844.96
-4132.22
-1978.92
-698.064
78.6525
552.18
838.195
1006.26
1101.36
1172.28
-6769.95
-3473.88
-1571.63
-447.07
229.366
636.938
878.769
1016.89
1091.19
1140.91
-5219.8
-2635.75
-1147.45
-270.127
255.048
569.029
753.141
856.376
910.119
943.097
-3298.61
-1671.14
-728.658
-171.929
161.055
359.727
476.009
541.217
575.403
596.168
-1148.27
-684.988
-388.148
-204.077
-89.4934
-17.4285
28.1439
56.9924
75.5416
89.1606
431.203
162.98
-43.0423
-166.642
-233.479
-266.312
-279.305
-280.839
-276.088
-269.842
1056.22
-186.205
-843.942
-1179.56
-1336.31
-1391.58
-1389.51
-1355.8
-1305.73
-1255.87
1526.84
-449.049
-1471.58
-1980.34
-2210.63
-2285.12
-2271.98
-2210.51
-2123.98
-2039.12
1720.2
-742.802
-2010.68
-2631.84
-2904.46
-2983.9
-2955.59
-2868.25
-2750.67
-2639.14
1560.19
-1106.52
-2470.44
-3126.45
-3401.79
-3467.71
-3418.07
-3306.03
-3162.96
-3033.75
1015.89
-1551.06
-2846.35
-3450.14
-3683.84
-3715.85
-3638.34
-3503.17
-3340.84
-3203.6
101.729
-2068.58
-3133.09
-3598.08
-3745.79
-3723.65
-3612.02
-3455.68
-3280.84
-3145.34
-1124.61
-2636.3
-3327.35
-3577.3
-3600.01
-3506.02
-3354.9
-3179.39
-2998.67
-2874.2
-2567.69
-3219.63
-3428.53
-3406.08
-3275.02
-3096.62
-2902.49
-2709.2
-2527.21
-2422.15
-4103.29
-3775.51
-3438.87
-3111.93
-2812.37
-2544.65
-2307.97
-2099.27
-1915.6
-1824.88
-251.069
-222.8
-199.907
-179.508
-161.096
-144.375
-129.11
-115.079
-102.058
-89.8225
-78.1407
-66.7761
-55.4802
-43.985
-31.9955
-19.2123
-5.52935
8.05943
16.6163
6.65449
-1163.4
-1039.41
-938.036
-847.905
-767.552
-695.806
-631.556
-573.723
-521.27
-473.195
-428.53
-386.322
-345.618
-305.441
-264.785
-222.649
-178.132
-130.464
-78.068
-15.0015
-1891.79
-1700.24
-1542.15
-1399.99
-1272.04
-1156.94
-1053.28
-959.575
-874.311
-795.982
-723.097
-654.171
-587.703
-522.158
-455.948
-387.409
-314.693
-235.272
-144.159
-28.6144
-2454.61
-2222.15
-2029.02
-1852.91
-1692.24
-1545.97
-1412.87
-1291.49
-1180.24
-1077.4
-981.2
-889.814
-801.352
-713.83
-625.13
-532.907
-434.358
-325.55
-199.442
-39.5363
-2831.25
-2588.35
-2384.5
-2194.94
-2018.6
-1855.25
-1704.37
-1565.01
-1435.84
-1315.29
-1201.59
-1092.77
-986.741
-881.187
-773.548
-660.882
-539.591
-404.714
-247.774
-49.1895
-3003.04
-2782.72
-2593.99
-2413.04
-2239.56
-2074.66
-1918.98
-1772.48
-1634.52
-1503.99
-1379.38
-1258.86
-1140.31
-1021.24
-898.801
-769.605
-629.462
-472.65
-289.533
-57.7297
-2964.99
-2799.35
-2650.5
-2499.87
-2347.88
-2197.34
-2050.37
-1908.17
-1771.11
-1638.85
-1510.44
-1384.4
-1258.78
-1131.14
-998.484
-857.162
-702.58
-528.437
-324.145
-64.992
-2727.37
-2643.14
-2554.98
-2454.03
-2340.91
-2220.06
-2095.12
-1968.72
-1842.46
-1716.99
-1592.14
-1467.01
-1340.04
-1208.99
-1070.95
-922.169
-757.828
-571.212
-351.004
-70.7884
-2308.94
-2321.97
-2309.71
-2274.41
-2215.79
-2139.21
-2049.53
-1950.67
-1845.51
-1735.8
-1622.33
-1504.95
-1382.66
-1253.65
-1115.24
-963.837
-794.577
-600.531
-369.87
-75.0568
-1724.86
-1839.61
-1919.9
-1966.37
-1978.37
-1961.13
-1920.27
-1860.88
-1787.1
-1701.97
-1607.4
-1504.21
-1392.17
-1270.08
-1135.74
-985.881
-815.885
-618.884
-382.675
-78.3482
-1221.01
-1394.33
-1549.06
-1652.4
-1714.18
-1741.33
-1739.72
-1714.49
-1669.98
-1609.51
-1535.39
-1448.87
-1350.2
-1238.63
-1112.42
-968.76
-803.526
-610.425
-377.913
-77.9751
-862.516
-1056.42
-1238.08
-1373.94
-1466.97
-1523.55
-1549.46
-1549.58
-1527.95
-1487.74
-1431.26
-1359.88
-1274.08
-1173.45
-1056.66
-921.431
-764.288
-579.804
-357.877
-73.5231
-516.063
-719.039
-916.799
-1077.11
-1197.69
-1282.18
-1335.13
-1360.73
-1362.6
-1343.64
-1306.07
-1251.32
-1180.07
-1092.2
-986.815
-862.177
-715.515
-542.377
-334.154
-68.4809
-227.141
-425.151
-625.569
-798.05
-936.7
-1042.14
-1117.03
-1164.39
-1187.1
-1187.64
-1167.95
-1129.42
-1072.81
-998.259
-905.243
-792.549
-658.126
-498.522
-306.624
-62.7348
8.48159
-179.879
-374.713
-549.764
-697.513
-816.34
-907.022
-971.268
-1011.03
-1028.18
-1024.3
-1000.61
-957.886
-896.419
-816.01
-715.937
-594.834
-450.211
-276.412
-56.4585
196.467
20.5842
-163.947
-335.119
-485.035
-610.704
-711.438
-787.709
-840.532
-871.103
-880.574
-869.919
-839.847
-790.759
-722.72
-635.437
-528.176
-399.339
-244.655
-49.8721
342.723
181.243
9.79062
-153.368
-300.516
-427.918
-533.856
-617.801
-679.925
-720.775
-741.047
-741.437
-722.548
-684.833
-628.568
-553.837
-460.462
-347.652
-212.43
-43.1973
453.104
307.013
150.13
-2.47971
-143.517
-268.881
-376.183
-464.147
-532.254
-580.481
-609.094
-618.514
-609.216
-581.672
-536.326
-473.574
-393.725
-296.702
-180.701
-36.6343
533.019
402.441
260.651
119.976
-12.8106
-133.484
-239.241
-328.286
-399.572
-452.609
-487.296
-503.801
-502.474
-483.787
-448.312
-396.71
-329.698
-247.814
-150.294
-30.3542
587.128
471.524
344.628
216.438
93.1432
-21.062
-123.154
-210.995
-283.161
-338.808
-377.539
-399.314
-404.369
-393.172
-366.396
-324.916
-269.79
-202.068
-121.877
-24.4942
619.191
517.576
404.887
289.144
175.932
69.3095
-27.618
-112.516
-183.716
-240.118
-281.111
-306.492
-316.41
-311.328
-292.001
-259.477
-215.085
-160.291
-95.9601
-19.1586
632.009
543.162
443.707
339.999
237.026
138.637
47.9124
-32.7301
-101.482
-157.086
-198.785
-226.264
-239.612
-239.292
-226.126
-201.3
-166.35
-123.063
-72.8946
-14.4175
627.431
550.068
462.774
370.507
277.683
187.891
104.106
28.7365
-36.359
-89.8466
-130.885
-159.096
-174.532
-177.665
-169.371
-150.936
-124.05
-90.7326
-52.8856
-10.3119
606.386
539.309
463.158
381.729
298.895
217.944
141.685
72.4395
12.0382
-38.1749
-77.332
-105.027
-121.303
-126.64
-121.956
-108.604
-88.3755
-63.4378
-36.0066
-6.85264
568.895
511.129
445.308
374.271
301.365
229.55
161.403
99.095
44.3617
-1.50276
-37.6514
-63.6831
-79.6418
-86.017
-83.7462
-74.2183
-59.2679
-41.134
-22.2276
-4.0352
514.064
464.989
409.044
348.273
285.51
223.339
164.05
109.592
61.5456
21.1014
-10.9556
-34.2531
-48.842
-55.2052
-54.2708
-47.4158
-36.4642
-23.6524
-11.4551
-1.83672
439.954
399.462
353.478
303.371
251.437
199.825
150.466
105.021
64.851
30.9872
4.11587
-15.4386
-27.7286
-33.2027
-32.7272
-27.6014
-19.5617
-10.7472
-3.57476
-0.25955
343.112
311.849
276.712
238.457
198.772
159.286
121.487
86.6679
55.8965
29.987
9.48437
-5.35207
-14.5655
-18.5264
-17.9598
-13.9772
-8.09766
-2.23784
1.4007
0.681067
216.888
196.778
174.65
150.673
125.829
101.114
77.4637
55.6975
36.4944
20.375
7.68968
-1.39147
-6.89296
-9.05257
-8.34849
-5.53536
-1.69105
1.76946
3.18121
0.916344
45.3131
40.9423
36.283
31.2888
26.1233
20.9868
16.0743
11.5586
7.58206
4.25431
1.64931
-0.196254
-1.28652
-1.67025
-1.44819
-0.783401
0.0800075
0.798064
1.01042
0.502092
90.6841
576.819
916.324
1119.42
1169.41
1054.03
774.636
347.986
-196.325
-823.764
83.6027
529.694
850.907
1057.24
1134.8
1072.37
868.899
534.32
84.5557
-474.226
78.7145
492.524
798.362
1006.59
1105.17
1083.36
938.084
674.491
301.809
-174.104
73.77
457.551
747.286
954.06
1067.67
1078.13
981.279
779.133
476.302
77.6027
68.5284
424.13
697.094
899.308
1022.3
1057
998.776
847.787
605.801
277.664
63.0947
392.476
648.583
844.048
971.999
1024.36
996.454
887.375
697.236
431.197
57.6002
362.764
602.378
789.699
919.299
984.081
979.571
904.315
757.565
544.779
52.1255
334.99
558.721
737.073
865.885
938.984
952.219
903.911
792.956
624.99
46.6946
308.997
517.531
686.452
812.688
890.906
917.327
890.234
808.475
677.704
41.2847
284.51
478.491
637.712
760.034
840.866
876.807
866.204
808.019
707.776
35.8363
261.168
441.109
590.427
707.778
789.222
831.713
833.715
794.37
718.947
30.259
238.538
404.755
543.931
655.399
735.786
782.376
793.763
769.285
713.859
24.4333
216.119
368.679
497.354
602.052
679.9
728.49
746.551
733.591
694.108
18.2086
193.345
332.017
449.635
546.589
620.466
669.164
691.545
687.249
660.305
11.4005
169.582
293.795
399.509
487.535
555.931
602.914
627.487
629.38
612.113
3.81195
144.171
252.926
345.456
423.021
484.21
527.603
552.346
558.225
548.225
-4.60269
116.515
208.141
285.537
350.582
402.504
440.26
463.144
470.978
466.219
-12.9904
86.1279
157.625
216.914
266.682
306.809
336.593
355.46
363.277
362.035
-17.2521
51.9693
97.7484
134.486
165.266
190.368
209.34
221.752
227.524
228.184
-6.16476
9.94525
19.4343
26.6898
32.8552
38.0477
42.134
44.9726
46.5308
47.2381
)
;

boundaryField
{
    left
    {
        type            symmetryPlane;
    }
    right
    {
        type            calculated;
        value           nonuniform List<scalar> 
30
(
-0.000221062
-0.00107679
-0.00187656
-0.00262977
-0.0033433
-0.00400545
-0.00460035
-0.00516162
-0.00574548
-0.00636038
-0.00687201
-0.00725849
-0.00756846
-0.00782686
-0.00805767
-0.00828228
-0.00851314
-0.00876103
-0.00902922
-0.00932739
-0.00966053
-0.0100462
-0.0104957
-0.0109802
-0.0115123
-0.0115487
-0.01389
-0.0293667
-0.105766
-0.253687
)
;
    }
    down
    {
        type            symmetryPlane;
    }
    up
    {
        type            calculated;
        value           nonuniform List<scalar> 
30
(
0.000150055
0.000733544
0.00127752
0.00178408
0.00226458
0.00272197
0.00315086
0.00354697
0.00392093
0.00420521
0.00446378
0.00473122
0.00495703
0.00518615
0.0054105
0.00563418
0.00586301
0.00610677
0.00637543
0.00667898
0.00701763
0.00737881
0.00769755
0.00791227
0.0080393
0.00863955
0.0122468
0.0291198
0.0923074
0.256993
)
;
    }
    hole
    {
        type            calculated;
        value           nonuniform List<scalar> 
20
(
-5844.5
-7352.27
-8495.84
-9146.44
-9214.81
-8660.47
-7496.46
-5789.18
-3653.62
-1248.45
464.757
1342.04
1997.62
2311.26
2203.76
1641.57
640.924
-732.61
-2369.81
-4127.99
)
;
    }
    frontAndBack
    {
        type            empty;
    }
}


// ************************************************************************* //
