/*--------------------------------*- C++ -*----------------------------------*\
  =========                 |
  \\      /  F ield         | OpenFOAM: The Open Source CFD Toolbox
   \\    /   O peration     | Website:  https://openfoam.org
    \\  /    A nd           | Version:  9
     \\/     M anipulation  |
\*---------------------------------------------------------------------------*/
FoamFile
{
    format      ascii;
    class       volSymmTensorField;
    location    "160";
    object      sigma;
}
// * * * * * * * * * * * * * * * * * * * * * * * * * * * * * * * * * * * * * //

dimensions      [1 -1 -2 0 0 0 0];

internalField   nonuniform List<symmTensor> 
1000
(
(7760.24 -5590.1 -7.19864e-14 4577.15 6.0561e-14 2847.09)
(10956.6 -4256.44 -1.13566e-13 1142.45 8.15523e-14 2792.08)
(12582.1 -3363.11 1.41187e-13 -719.086 -2.36411e-14 2737.62)
(13411.8 -2728.71 2.26862e-14 -1738.33 -1.92198e-14 2693.87)
(13804.3 -2261.95 -1.31808e-13 -2285.74 -1.80823e-14 2658.14)
(13947.4 -1908.66 -1.03089e-15 -2557.51 7.08382e-15 2628.43)
(13944.6 -1634.95 -1.53806e-13 -2664.28 -8.5139e-14 2603.15)
(13856 -1418.5 9.22794e-14 -2672.74 5.867e-14 2580.76)
(13726.6 -1240.29 -9.27389e-14 -2626.36 -3.05272e-14 2561.6)
(13555.7 -1012.61 0 -2547.39 0 2540.38)
(10761.3 -6883.24 -1.17672e-13 5155.06 1.80674e-14 3673)
(13195.1 -4614.98 0 1842.83 0 3470.29)
(14323.9 -3208.03 1.32872e-13 22.3036 6.68373e-14 3310.67)
(14800.7 -2293.24 -2.28954e-13 -1009.38 -1.22586e-13 3182.61)
(14933.3 -1676.72 -9.89416e-14 -1594.07 -5.59014e-14 3078.28)
(14879 -1249 8.51165e-14 -1913.8 5.50877e-14 2991.98)
(14723.3 -944.508 7.78442e-14 -2072.02 4.44764e-14 2919.54)
(14515.4 -721.625 1.62763e-13 -2131.36 1.00922e-13 2857.85)
(14292 -549.779 0 -2129.44 0 2806.74)
(14046.7 -356.718 0 -2068.87 0 2764.11)
(14081.3 -7848.2 0 5279.2 0 4467.8)
(15491.3 -4808.48 0 2374.66 0 4122.91)
(15981.7 -2982.1 1.29112e-13 754.111 6.697e-14 3862.12)
(16030.6 -1842.33 -2.53533e-14 -201.092 1.19845e-14 3652.95)
(15865.5 -1109.02 -1.89461e-16 -773.959 1.06351e-16 3482.65)
(15597.9 -626.369 -8.2032e-14 -1116.05 -5.30354e-14 3341.97)
(15285.8 -302.826 7.18063e-14 -1314.25 4.36484e-14 3224.19)
(14960.8 -82.2263 -6.84315e-14 -1421.59 -3.9689e-14 3124.44)
(14647.2 72.9887 1.56552e-14 -1469.79 -4.12877e-15 3040.94)
(14335.9 230.461 -1.10684e-14 -1456.24 -1.51162e-14 2972.24)
(17575.4 -8373.95 -7.25436e-14 5011.54 6.89544e-15 5212.37)
(17767.8 -4803.53 6.10732e-14 2746.59 -1.57279e-14 4734.09)
(17517.4 -2694.96 -6.26578e-14 1455.89 -3.19288e-14 4378.46)
(17086.9 -1409.48 -2.37618e-14 650.681 7.37786e-15 4093.29)
(16600.7 -605.451 8.1605e-14 130.975 5.71245e-14 3861.17)
(16112.1 -94.5079 -8.2805e-14 -211.156 -4.7395e-14 3669.45)
(15644.2 232.818 -7.34452e-14 -438.557 -4.25221e-14 3508.99)
(15207 442.73 -1.64714e-13 -590.393 -9.54912e-14 3373.06)
(14808.8 578.675 -4.349e-14 -690.502 -1.2355e-14 3258.07)
(14434.8 704.147 4.55975e-14 -732.875 1.76508e-14 3161.97)
(21070.6 -8384.09 -4.41703e-14 4447.25 5.82929e-16 5888.72)
(19939.5 -4579.68 -1.59993e-15 2979.06 1.74727e-16 5288.89)
(18896.7 -2357 -1.91425e-13 2107.02 -8.5771e-14 4847.01)
(17965.4 -1021.87 1.11632e-14 1503.31 -1.66179e-15 4492.79)
(17152.4 -202.111 -1.28324e-14 1066.97 1.71245e-15 4204.47)
(16445 306.26 7.52143e-14 742.36 4.34852e-14 3966.32)
(15827.6 621.064 1.10886e-15 495.643 -1.12742e-15 3766.9)
(15286 813.248 5.96699e-14 304.437 3.71625e-14 3597.79)
(14811.7 929.011 -5.78079e-14 154.468 -1.78507e-15 3453.72)
(14383.4 1025.38 -4.41431e-14 53.988 -2.40723e-14 3331.72)
(24377.6 -7844.96 -1.38925e-13 3703.87 1.09606e-14 6480.35)
(21918.2 -4132.22 -1.41662e-15 3100.68 -7.68498e-17 5773.58)
(20089.8 -1978.92 8.61546e-16 2687.13 2.42217e-17 5256.2)
(18670.1 -698.064 9.93934e-15 2310.19 2.56592e-16 4841.61)
(17544 78.6525 -8.75515e-14 1974.08 -4.24279e-14 4504.17)
(16631.3 552.18 2.28185e-16 1678.65 1.05261e-16 4225.38)
(15876.9 838.195 6.75191e-14 1420.87 3.45321e-14 3991.78)
(15242.2 1006.26 1.5408e-13 1196.26 7.51489e-14 3793.49)
(14702.4 1101.36 2.72803e-14 1000.76 1.40553e-14 3623.79)
(14229.9 1172.28 -5.60647e-14 844.139 -2.16646e-14 3478.63)
(27305.4 -6769.95 1.70427e-13 2908.2 -1.47464e-14 6972.37)
(23618.5 -3473.88 3.82101e-14 3143.54 9.73238e-15 6175.86)
(21071.9 -1571.63 6.08963e-14 3176.62 2.04079e-14 5595.82)
(19210.8 -447.07 -9.09531e-15 3024.37 -2.15069e-15 5131.2)
(17805 229.366 7.45205e-14 2791.4 3.12599e-14 4753.01)
(16711.6 636.938 -6.96228e-14 2530.35 -2.78839e-14 4440.44)
(15838.7 878.769 -1.50018e-15 2267.66 8.86959e-15 4178.39)
(15125.5 1016.89 -5.80406e-14 2015.99 -2.53844e-14 3955.73)
(14532.2 1091.19 7.14184e-15 1781.16 -6.79962e-15 3764.62)
(14025.5 1140.91 -2.74309e-14 1574.13 -1.84403e-14 3599.91)
(29673.5 -5219.8 2.9816e-13 2181.93 -2.33157e-14 7351.26)
(24963.7 -2635.75 -1.50608e-13 3138.2 -2.92781e-14 6485.05)
(21824 -1147.45 8.17281e-16 3558.08 4.15794e-16 5857.4)
(19600 -270.127 1.30287e-14 3603.34 6.99327e-15 5354.62)
(17965.8 255.048 1.56704e-13 3463.28 4.63316e-14 4945.16)
(16726.2 569.029 -2.75381e-15 3235.44 -4.61281e-15 4606.54)
(15759.1 753.141 1.63254e-17 2971.56 -2.16465e-16 4322.47)
(14984.9 856.376 -5.41531e-14 2699.16 -2.2322e-14 4080.94)
(14351.2 910.119 -2.50285e-15 2432.74 3.60119e-15 3873.21)
(13819.8 943.097 2.30926e-15 2184.24 6.46525e-15 3693.24)
(31321.9 -3298.61 1.75528e-13 1628.09 -2.09663e-14 7603.85)
(25890.3 -1671.14 -1.60609e-13 3112.01 -2.85073e-14 6692.83)
(22330.7 -728.658 1.19349e-14 3820.82 1.26091e-14 6034.97)
(19848.9 -171.929 1.1941e-14 4015.1 1.33161e-14 5507.07)
(18053 161.055 -4.79567e-15 3945.42 -7.08238e-15 5076.56)
(16711.2 359.727 6.71718e-14 3743.12 8.38192e-15 4720.22)
(15679 476.009 -1.87149e-16 3479.09 5.90345e-15 4421.09)
(14863.5 541.217 1.08528e-13 3191.9 2.27611e-14 4166.62)
(14203.3 575.403 2.4541e-14 2902.4 5.21969e-15 3947.47)
(13656.9 596.168 1.8861e-14 2623.43 -1.2023e-14 3756.99)
(32168 -1148.27 1.89466e-13 1335.07 -2.93185e-14 7731.47)
(26379.2 -684.988 -5.77537e-15 3111.41 -2.10615e-14 6805.52)
(22564.1 -388.148 6.24543e-14 3962.08 1.65363e-14 6121.42)
(19927.2 -204.077 2.77392e-15 4225.33 1.00113e-14 5573.66)
(18038.3 -89.4934 -7.09179e-17 4185.64 -3.34497e-16 5128.59)
(16640 -17.4285 6.71461e-14 3992.45 -2.94902e-15 4761.34)
(15573.7 28.1439 -4.09493e-17 3726 6.5005e-15 4453.78)
(14738.2 56.9924 5.32774e-14 3429.82 2.37686e-15 4192.61)
(14067.2 75.5416 1.04612e-15 3127.05 -8.15298e-15 3967.91)
(13517.9 89.1606 -3.66927e-16 2829.48 -5.09564e-15 3772.48)
(-481.179 431.203 6.56398e-15 -11969.9 -6.71276e-14 -2873.33)
(-497.393 162.98 8.23394e-15 -7832.7 5.22761e-15 -1922.33)
(-107.511 -43.0423 -6.85153e-15 -5245.31 -1.62656e-14 -1235.27)
(604.17 -166.642 0 -3569.34 0 -684.27)
(1427.3 -233.479 -1.32063e-14 -2452.4 -1.7671e-15 -236.559)
(2259.69 -266.312 -4.33259e-15 -1683.65 -1.0372e-14 132.932)
(3054.45 -279.305 2.27776e-14 -1136.76 5.4877e-16 442.542)
(3792.38 -280.839 1.04332e-14 -734.129 -7.18057e-15 705.749)
(4468.13 -276.088 1.94757e-14 -426.898 3.2158e-15 932.591)
(5082.86 -269.842 5.94189e-15 -183.923 8.92638e-15 1130.52)
(-572.768 1056.22 -3.61802e-15 -11545.9 -6.18707e-14 -2796.61)
(-336.395 -186.205 1.82888e-14 -7556.03 3.19757e-14 -1821.33)
(175.079 -843.942 -1.70238e-14 -5185.68 -2.07087e-14 -1156.29)
(940.787 -1179.56 -3.98792e-15 -3644.57 -3.76884e-15 -623.95)
(1779.01 -1336.31 0 -2602.82 0 -190.11)
(2606.91 -1391.58 -2.03505e-14 -1874.53 -1.18903e-14 169.011)
(3387.4 -1389.51 2.31689e-14 -1348.03 1.63437e-15 470.622)
(4105.98 -1355.8 1.01001e-16 -953.689 1.96612e-18 727.453)
(4759.08 -1305.73 -7.04046e-14 -646.844 3.82735e-16 948.977)
(5345.83 -1255.87 9.05307e-15 -398.128 4.56967e-15 1141.78)
(-657.099 1526.84 -4.56615e-15 -10357.5 -3.64945e-14 -2541.83)
(28.244 -449.049 2.65403e-14 -7024.18 3.79604e-14 -1614.45)
(766.978 -1471.58 2.37605e-14 -5008.66 1.63101e-14 -978.85)
(1635.13 -1980.34 -2.99301e-15 -3677.15 -6.05634e-15 -471.235)
(2506.37 -2210.63 0 -2759.75 0 -58.4739)
(3328.67 -2285.12 -3.53046e-14 -2103.7 -1.46522e-14 282.686)
(4082.66 -2271.98 -4.7782e-14 -1617.36 -1.84494e-14 568.915)
(4763.85 -2210.51 4.18742e-14 -1243.32 1.11109e-14 812.43)
(5374 -2123.98 2.0425e-17 -944.688 -1.83336e-19 1022.15)
(5912.25 -2039.12 -4.24826e-14 -697.095 -8.08948e-15 1203.5)
(-688.822 1720.2 1.92974e-14 -8647.44 4.24467e-14 -2154.52)
(605.426 -742.802 1.80695e-15 -6249.08 -1.77952e-14 -1302.38)
(1640.54 -2010.68 3.26195e-14 -4742.37 1.78885e-14 -715.806)
(2633.6 -2631.84 0 -3704.05 0 -247.027)
(3539.86 -2904.46 -4.45602e-14 -2959.32 -1.12728e-14 133.971)
(4348.24 -2983.9 2.21467e-14 -2404.27 1.00046e-14 448.61)
(5061.9 -2955.59 -1.9817e-14 -1975.1 -3.2939e-15 712.337)
(5689.25 -2868.25 -3.91403e-14 -1631.19 -1.68288e-15 936.474)
(6239.03 -2750.67 1.71442e-14 -1346.36 6.11467e-15 1129.08)
(6709.7 -2639.14 3.25334e-14 -1103.2 1.10461e-14 1293.81)
(-585.957 1560.19 -3.94214e-14 -6578.35 -3.8392e-15 -1653.3)
(1399.1 -1106.52 -5.43126e-14 -5279.16 1.38538e-14 -895.399)
(2766.01 -2470.44 -4.04042e-14 -4384.62 -2.13936e-14 -373.525)
(3890.7 -3126.45 -2.22209e-16 -3700.06 2.03736e-14 43.9936)
(4824.91 -3401.79 8.78958e-17 -3163.57 1.88422e-16 383.385)
(5606.38 -3467.71 4.63259e-14 -2731.04 1.4746e-14 663.541)
(6264.39 -3418.07 2.5273e-14 -2372.36 9.53886e-15 898.162)
(6821.95 -3306.03 0 -2066.95 0 1097.31)
(7295.49 -3162.96 -5.36467e-14 -1801.31 -7.04251e-15 1267.89)
(7682.06 -3033.75 1.74422e-14 -1566.43 6.47801e-15 1411.3)
(-248.334 1015.89 -1.89597e-14 -4314.38 -1.2668e-13 -1052.93)
(2419.35 -1551.06 1.78889e-14 -4176.63 -4.55729e-14 -405.525)
(4106.72 -2846.35 -4.16926e-14 -3938.45 -3.98847e-14 38.832)
(5347.57 -3450.14 2.03339e-15 -3637.64 -1.08839e-14 394.601)
(6292.51 -3683.84 7.63244e-14 -3329.14 3.16085e-14 683.855)
(7029.97 -3715.85 -5.82415e-14 -3032.3 -1.88836e-14 922.539)
(7616.31 -3638.34 1.08212e-16 -2753.26 2.84043e-17 1122.24)
(8089.42 -3503.17 -6.66742e-14 -2493.04 -2.19975e-14 1291.47)
(8473.35 -3340.84 1.77445e-17 -2251.86 -5.87501e-19 1435.73)
(8763.38 -3203.6 -5.52513e-14 -2030.23 -2.11504e-14 1553.8)
(424.899 101.729 2.64687e-14 -2022.92 -4.86202e-14 -368.774)
(3676.09 -2068.58 5.39973e-16 -3008.06 -1.00421e-15 154.163)
(5623.05 -3133.09 4.68477e-16 -3410.89 -9.42047e-16 510.5)
(6939.5 -3598.08 -9.11443e-14 -3490.52 -5.63467e-14 795.919)
(7866.4 -3745.79 4.53934e-17 -3411.78 1.56815e-14 1027.99)
(8538.55 -3723.65 -7.61856e-14 -3254.46 -3.28383e-14 1219.4)
(9036.94 -3612.02 1.3686e-13 -3059.64 5.77315e-14 1379.38)
(9412.86 -3455.68 7.55979e-17 -2849.38 4.20329e-18 1514.65)
(9696.93 -3280.84 1.44167e-14 -2637.63 1.21423e-14 1629.07)
(9882.46 -3145.34 -4.16292e-14 -2435.2 -1.72618e-14 1718.6)
(1520.56 -1124.61 1.22274e-13 135.707 -3.19036e-14 382.216)
(5172.64 -2636.3 3.39434e-14 -1838.4 -4.87521e-14 769.44)
(7273.01 -3327.35 -1.20593e-14 -2811.82 1.8405e-14 1029.51)
(8601.04 -3577.3 5.83378e-15 -3236.99 -1.12342e-14 1237.86)
(9470.26 -3600.01 -1.38628e-16 -3372.13 7.12507e-16 1407.26)
(10052.1 -3506.02 7.63702e-14 -3348.72 2.81321e-14 1546.93)
(10446.6 -3354.9 -1.26004e-14 -3237.97 -4.46191e-15 1663.53)
(10715.1 -3179.39 1.83451e-14 -3080.33 9.13703e-16 1761.88)
(10892.7 -2998.67 1.30633e-14 -2902.18 -8.73767e-16 1843.97)
(10970.2 -2874.2 4.25359e-14 -2724.84 9.93832e-15 1902.77)
(3099.15 -2567.69 4.53562e-14 2021.12 8.13901e-14 1181.6)
(6901.48 -3219.63 3.29184e-15 -726.432 1.09525e-13 1425.01)
(9012.7 -3428.53 7.69633e-16 -2153.51 -9.22447e-16 1582.89)
(10269.7 -3406.08 1.17447e-13 -2862.42 4.22347e-14 1709.38)
(11033.2 -3275.02 9.63385e-14 -3180.2 4.8307e-14 1812.23)
(11497.2 -3096.62 8.57447e-14 -3276.78 4.20237e-14 1897.02)
(11773.2 -2902.49 1.14576e-14 -3245.85 4.4897e-15 1967.84)
(11928 -2709.2 -1.03883e-13 -3141.55 -5.02776e-14 2027.65)
(11999 -2527.21 3.94868e-14 -2999.96 3.21042e-14 2076.7)
(11972.3 -2422.15 2.81594e-14 -2851.77 1.35408e-14 2104.73)
(5185.09 -4103.29 -8.32246e-15 3524.49 8.42697e-15 2009.9)
(8841.52 -3775.51 -2.65399e-14 279.087 2.40866e-14 2104.76)
(10797.3 -3438.87 -6.22247e-14 -1450.43 -3.41917e-14 2156.96)
(11889.2 -3111.93 2.53097e-13 -2361.26 8.5574e-14 2198.76)
(12493.9 -2812.37 1.24126e-16 -2818.87 -2.02822e-16 2232.7)
(12811.6 -2544.65 -8.80229e-14 -3015.24 -4.6531e-14 2260.7)
(12955.6 -2307.97 -6.53004e-14 -3057.18 -3.54928e-14 2284.26)
(12994.2 -2099.27 -3.65891e-14 -3006.17 -1.83335e-14 2304.92)
(12968.2 -1915.6 -3.2102e-14 -2902.82 3.54981e-15 2322.77)
(12876.1 -1824.88 6.64392e-14 -2791.22 6.72322e-15 2327.28)
(5624.69 -251.069 4.87645e-14 10.1812 3.10339e-15 1300.35)
(6117.6 -222.8 3.7595e-15 191.841 5.65146e-15 1456.03)
(6561.13 -199.907 -7.83758e-14 355.126 2.44667e-15 1596.06)
(6963.02 -179.508 -2.80573e-14 507.087 -1.2517e-16 1723.87)
(7328.23 -161.096 -4.67557e-15 653.278 -8.09671e-15 1841.89)
(7660.85 -144.375 0 798.165 0 1952.08)
(7964.36 -129.11 0 945.356 0 2056.09)
(8241.73 -115.079 3.18197e-14 1097.87 2.51547e-16 2155.29)
(8495.44 -102.058 1.39137e-15 1258.37 2.30505e-15 2250.88)
(8727.51 -89.8225 6.59377e-14 1429.34 6.9064e-16 2343.89)
(8939.54 -78.1407 3.77093e-15 1613.22 5.79477e-15 2435.25)
(9132.7 -66.7761 -1.42733e-15 1812.57 -1.68962e-15 2525.83)
(9307.72 -55.4802 3.35461e-15 2030.12 4.18626e-15 2616.42)
(9464.85 -43.985 -1.03048e-13 2268.92 -1.80022e-15 2707.79)
(9603.89 -31.9955 3.3427e-14 2532.42 3.14762e-17 2800.69)
(9724.04 -19.2123 1.22975e-16 2824.51 2.77257e-18 2895.82)
(9823.97 -5.52935 -3.41679e-14 3149.41 -8.75431e-16 2993.86)
(9901.96 8.05943 3.37451e-14 3510.89 9.69603e-16 3095.27)
(9956.92 16.6163 -6.49139e-14 3909.07 -7.20108e-15 3199.85)
(10016.1 6.65449 -3.33941e-14 4339.35 2.55282e-15 3312.79)
(5846.67 -1163.4 7.90181e-14 -185.881 3.83412e-15 1306.34)
(6302.77 -1039.41 1.12337e-14 24.5272 6.40721e-15 1460.14)
(6711.52 -938.036 -2.23205e-14 208.602 2.68443e-15 1596.95)
(7086.09 -847.905 9.67862e-14 377.983 7.45524e-15 1722.48)
(7429.08 -767.552 -2.4062e-15 538.791 -2.8608e-15 1838.74)
(7743.39 -695.806 -9.6717e-14 695.93 -4.5875e-15 1947.53)
(8031.65 -631.556 9.39718e-15 853.328 5.5882e-15 2050.38)
(8296.23 -573.723 0 1014.26 0 2148.58)
(8539.15 -521.27 3.46894e-15 1181.6 2.47066e-15 2243.25)
(8762.09 -473.195 7.96744e-15 1358.01 4.67202e-15 2335.41)
(8966.37 -428.53 5.03818e-14 1546.05 1.16643e-14 2425.94)
(9152.95 -386.322 7.15927e-16 1748.38 4.76756e-17 2515.69)
(9322.43 -345.618 -2.89694e-14 1967.79 1.45531e-15 2605.43)
(9475.02 -305.441 3.41275e-14 2207.35 1.76966e-15 2695.93)
(9610.58 -264.785 3.46983e-14 2470.47 2.04596e-15 2787.93)
(9728.58 -222.649 -3.41058e-14 2761.01 -2.2759e-15 2882.21)
(9828.16 -178.132 -3.40589e-14 3083.46 -2.58359e-15 2979.6)
(9907.95 -130.464 -6.73114e-14 3443.58 -5.80951e-15 3081.12)
(9964.5 -78.068 -6.03428e-16 3850.92 -1.76391e-17 3188.17)
(10023.9 -15.0015 1.99053e-14 4337.83 1.46434e-14 3314.25)
(6342.01 -1891.79 2.68697e-14 -469.725 1.24927e-15 1355.14)
(6726.59 -1700.24 1.08079e-14 -224.128 3.97789e-15 1500.57)
(7063.24 -1542.15 -8.66853e-14 -12.8676 -2.8751e-15 1627.01)
(7378.25 -1399.99 1.80859e-14 181.029 -2.89345e-15 1744.45)
(7671.73 -1272.04 1.07322e-13 363.352 9.72485e-15 1854.25)
(7944.71 -1156.94 -1.00729e-13 539.027 -6.4125e-15 1957.79)
(8198.35 -1053.28 -3.4009e-14 712.162 -1.35251e-15 2056.27)
(8433.77 -959.575 6.48423e-14 886.265 2.67329e-15 2150.78)
(8652.05 -874.311 -5.15552e-14 1064.44 2.73411e-15 2242.27)
(8854.08 -795.982 -6.81147e-14 1249.54 -3.64675e-15 2331.6)
(9040.59 -723.097 6.54212e-14 1444.32 3.78593e-15 2419.6)
(9212.08 -654.171 1.00645e-13 1651.54 6.66854e-15 2506.99)
(9368.8 -587.703 7.37383e-16 1874.08 8.07773e-17 2594.51)
(9510.73 -522.158 -3.40692e-14 2115.05 -2.89291e-15 2682.87)
(9637.54 -455.948 3.34855e-14 2377.91 3.20879e-15 2772.8)
(9748.55 -387.409 1.17759e-16 2666.62 1.28455e-17 2865.04)
(9842.57 -314.693 -3.38217e-14 2986 -4.20113e-15 2960.44)
(9917.39 -235.272 2.92596e-14 3342.4 5.37935e-15 3059.95)
(9968.76 -144.159 1.41538e-14 3744.92 1.24357e-14 3164.7)
(10023.5 -28.6144 2.50315e-17 4218.93 -1.93441e-17 3286.71)
(7044.22 -2454.61 0 -858.399 0 1427.5)
(7330.33 -2222.15 1.35226e-14 -570.125 4.90845e-15 1560.05)
(7568.84 -2029.02 3.08583e-14 -324.182 1.79361e-15 1671.84)
(7801.17 -1852.91 3.51228e-14 -98.2933 2.07847e-15 1777.59)
(8024.97 -1692.24 0 112.839 0 1877.96)
(8239.18 -1545.97 -2.05456e-14 313.86 2.40571e-15 1973.78)
(8443.13 -1412.87 -5.20503e-14 508.863 -9.26377e-15 2065.84)
(8636.45 -1291.49 -6.54084e-14 701.502 -3.91932e-15 2154.91)
(8818.94 -1180.24 -1.20264e-14 895.086 -3.72963e-15 2241.7)
(8990.46 -1077.4 5.01508e-14 1092.68 -1.25447e-15 2326.88)
(9150.9 -981.2 1.76551e-14 1297.23 -2.89246e-15 2411.11)
(9300.09 -889.814 1.75057e-14 1511.63 5.41557e-15 2495.01)
(9437.74 -801.352 -1.09154e-14 1738.87 3.32832e-15 2579.22)
(9563.41 -713.83 2.62146e-14 1982.11 1.98431e-15 2664.35)
(9676.41 -625.13 2.72631e-14 2244.83 3.02888e-15 2751.06)
(9775.72 -532.907 -3.35134e-14 2531.02 -4.98804e-15 2840.02)
(9859.76 -434.358 -1.04876e-16 2845.43 -1.77928e-17 2931.97)
(9926.2 -325.55 9.36995e-14 3193.92 1.9637e-14 3027.72)
(9971.33 -199.442 -2.66134e-14 3583.71 -8.39633e-15 3128.09)
(10022.2 -39.5363 -3.57853e-14 4036.94 -2.0362e-14 3244.43)
(7905.48 -2831.25 3.69056e-14 -1305.26 -4.1398e-15 1523.13)
(8072.39 -2588.35 -1.88057e-14 -976.98 -6.48838e-15 1637.4)
(8195.29 -2384.5 -8.38189e-14 -695.198 -1.19742e-14 1730.79)
(8328.69 -2194.94 4.46248e-14 -435.273 7.58682e-15 1821.56)
(8468.24 -2018.6 1.13495e-13 -192.422 2.09825e-14 1909.8)
(8610.62 -1855.25 -3.46183e-14 37.298 -2.68328e-15 1995.67)
(8753.31 -1704.37 0 257.629 0 2079.45)
(8894.3 -1565.01 3.31103e-14 472.126 2.66054e-15 2161.48)
(9031.99 -1435.84 -3.37695e-14 684.148 -1.19427e-14 2242.19)
(9165.08 -1315.29 -4.5253e-14 896.878 -7.05103e-15 2321.99)
(9292.47 -1201.59 -4.39925e-14 1113.37 2.5536e-16 2401.35)
(9413.2 -1092.77 -5.90213e-14 1336.64 -4.99174e-15 2480.73)
(9526.32 -986.741 6.77022e-14 1569.72 3.90435e-15 2560.62)
(9630.88 -881.187 9.12137e-14 1815.77 1.21732e-14 2641.54)
(9725.76 -773.548 9.05336e-15 2078.22 2.01301e-15 2724)
(9809.62 -660.882 -2.44558e-14 2360.88 -4.63166e-15 2808.58)
(9880.75 -539.591 1.59824e-14 2668.09 1.74218e-15 2895.89)
(9936.96 -404.714 7.61729e-15 3004.89 2.06907e-16 2986.58)
(9975.02 -247.774 7.76044e-14 3377.14 1.68376e-14 3081.27)
(10021.2 -49.1895 2.98594e-14 3805.85 3.18018e-14 3190.86)
(8870.29 -3003.04 3.25406e-14 -1758.52 2.96505e-15 1641.18)
(8906 -2782.72 1.98469e-15 -1404.55 4.06572e-16 1731.1)
(8905.89 -2593.99 -5.47009e-14 -1092.89 -1.1673e-14 1803)
(8931.8 -2413.04 -1.40978e-13 -802.796 -2.51741e-14 1875.92)
(8978.62 -2239.56 4.74159e-14 -530.03 9.1247e-15 1949.67)
(9041 -2074.66 7.02697e-14 -271.977 7.17032e-15 2023.62)
(9114.69 -1918.98 -3.38658e-14 -25.7684 -3.3759e-15 2097.44)
(9196.17 -1772.48 1.72245e-14 211.662 -2.03353e-15 2171.04)
(9282.49 -1634.52 7.95155e-14 443.434 1.89432e-14 2244.45)
(9371.17 -1503.99 -9.79346e-14 672.639 -1.12233e-14 2317.8)
(9460.11 -1379.38 -3.60014e-14 902.309 -4.72966e-15 2391.33)
(9547.49 -1258.86 1.40679e-13 1135.44 1.52235e-14 2465.29)
(9631.7 -1140.31 -2.37572e-14 1375.01 -1.18907e-14 2540.01)
(9711.22 -1021.24 -9.81243e-14 1624.1 -1.68401e-14 2615.84)
(9784.54 -898.801 -2.22958e-14 1885.92 -3.79265e-15 2693.18)
(9850.06 -769.605 -8.62661e-14 2163.94 -1.84743e-14 2772.46)
(9906.01 -629.462 -1.28089e-15 2461.94 -2.60119e-16 2854.14)
(9950.35 -472.65 1.04531e-13 2784.16 2.79935e-14 2938.73)
(9980.21 -289.533 2.33524e-14 3135.36 1.05521e-14 3026.67)
(10020.2 -57.7297 5.16177e-15 3535.26 -2.30332e-15 3128.18)
(9877.81 -2964.99 -3.50145e-14 -2164 -4.57632e-15 1780.11)
(9780.48 -2799.35 3.5955e-14 -1810.65 6.64689e-15 1839.19)
(9660.65 -2650.5 2.5333e-14 -1482.5 9.4722e-15 1887.27)
(9578.84 -2499.87 -3.64969e-14 -1172.23 -5.39343e-15 1939.99)
(9531 -2347.88 -4.0565e-14 -876.229 -1.52964e-14 1997.26)
(9510.39 -2197.34 1.92402e-14 -594.09 7.13934e-15 2057.61)
(9511.5 -2050.37 7.44566e-14 -324.511 1.84548e-14 2120.07)
(9529.63 -1908.17 -1.22577e-13 -65.4617 -2.79623e-14 2184.04)
(9560.67 -1771.11 -7.55661e-14 185.531 -1.80046e-14 2249.12)
(9601.12 -1638.85 1.1641e-13 431.155 2.6111e-14 2315.14)
(9647.94 -1510.44 -2.99088e-14 674.184 -1.00812e-14 2382.03)
(9698.54 -1384.4 9.68252e-14 917.412 1.55088e-14 2449.84)
(9750.64 -1258.78 6.20581e-14 1163.63 1.47062e-14 2518.68)
(9802.2 -1131.14 -8.18804e-14 1415.67 -1.47791e-14 2588.74)
(9851.34 -998.484 2.37046e-14 1676.39 3.52484e-15 2660.25)
(9896.26 -857.162 2.68812e-15 1948.77 6.4102e-16 2733.47)
(9935.17 -702.58 -1.15988e-13 2235.94 -3.05212e-14 2808.72)
(9966.15 -528.437 3.10755e-14 2541.27 1.00159e-14 2886.33)
(9986.68 -324.145 4.09567e-14 2868.44 1.21128e-14 2966.57)
(10019.1 -64.992 3.1131e-15 3234.79 -5.51641e-16 3058.6)
(10866.8 -2727.37 2.96429e-15 -2470.67 9.08929e-16 1937.58)
(10645.1 -2643.14 -3.72762e-14 -2154.64 -8.52295e-15 1959.33)
(10418.7 -2554.98 -1.34618e-14 -1830.14 2.61795e-15 1981.97)
(10236.9 -2454.03 0 -1515.16 0 2012.72)
(10099 -2340.91 0 -1207.15 0 2051.96)
(9997.57 -2220.06 -9.44797e-14 -908.905 -2.024e-14 2097.39)
(9926.75 -2095.12 9.69857e-14 -621.486 1.43186e-14 2147.37)
(9881.09 -1968.72 1.95226e-13 -344.535 3.44744e-14 2200.74)
(9855.73 -1842.46 -1.53668e-13 -76.7385 -2.24746e-14 2256.69)
(9846.4 -1716.99 -1.22111e-13 183.794 -2.35435e-14 2314.66)
(9849.34 -1592.14 6.41684e-14 439.268 1.07737e-14 2374.29)
(9861.26 -1467.01 1.33629e-14 692.039 -3.25956e-16 2435.38)
(9879.33 -1340.04 4.87699e-14 944.517 1.57537e-14 2497.81)
(9901.04 -1208.99 1.09141e-13 1199.11 2.79364e-14 2561.57)
(9924.22 -1070.95 3.66343e-15 1458.19 9.71902e-16 2626.71)
(9946.91 -922.169 -2.27468e-14 1724.09 -7.29278e-15 2693.31)
(9967.32 -757.828 0 1999.13 0 2761.49)
(9983.77 -571.212 -2.50896e-14 2285.68 -4.42949e-15 2831.41)
(9994.13 -351.004 1.11588e-14 2586.23 1.25878e-15 2903.16)
(10017.9 -70.7884 1.05804e-14 2914.56 4.70244e-16 2984.42)
(11784.7 -2308.94 -3.46591e-15 -2631.75 -1.20712e-15 2112.22)
(11456.9 -2321.97 2.94232e-14 -2393.08 1.35432e-14 2091.64)
(11143.4 -2309.71 -3.1514e-14 -2096.62 -1.35857e-14 2087.71)
(10875.7 -2274.41 -3.02438e-14 -1796.36 -1.26226e-14 2095.24)
(10657.5 -2215.79 9.41839e-14 -1491.83 3.0855e-14 2115.16)
(10482.2 -2139.21 5.88429e-14 -1189.57 2.28249e-14 2144.45)
(10343.9 -2049.53 -8.19168e-14 -893.558 -2.51912e-14 2180.84)
(10237.1 -1950.67 -2.30087e-14 -605.648 5.51893e-15 2222.65)
(10156.9 -1845.51 1.94449e-14 -326.19 2.22235e-15 2268.61)
(10098.4 -1735.8 2.46901e-14 -54.519 -3.4269e-15 2317.81)
(10057.4 -1622.33 -6.58571e-14 210.655 -2.35062e-14 2369.55)
(10030.3 -1504.95 2.09268e-15 470.971 5.77802e-16 2423.36)
(10013.6 -1382.66 -7.27485e-14 728.216 -1.35112e-14 2478.89)
(10004.7 -1253.65 -3.25733e-15 984.194 -9.33583e-16 2535.89)
(10000.9 -1115.24 3.10745e-14 1240.61 9.61418e-15 2594.21)
(10000.4 -963.837 -2.3186e-15 1499.02 -6.69683e-16 2653.71)
(10001.3 -794.577 1.01558e-13 1760.71 3.51327e-14 2714.32)
(10002.4 -600.531 -1.27801e-14 2026.79 -2.71336e-15 2775.97)
(10002.1 -369.87 -1.2873e-13 2298.26 -5.29901e-14 2838.55)
(10016.6 -75.0568 -2.33678e-14 2584.53 -2.97834e-14 2907.95)
(12613.7 -1724.86 -4.93128e-15 -2614.9 -3.64316e-15 2307.41)
(12205.1 -1839.61 -3.29442e-14 -2457.34 -1.80099e-14 2249.48)
(11813 -1919.9 4.0507e-14 -2217.38 1.3498e-14 2214.37)
(11468.3 -1966.37 -1.12743e-13 -1961.54 -2.69598e-14 2193.86)
(11176.8 -1978.37 -1.09004e-13 -1687.67 -2.89828e-14 2189.79)
(10933.3 -1961.13 7.06904e-14 -1403.55 1.06627e-14 2199.17)
(10732.4 -1920.27 7.51297e-14 -1116 8.40834e-15 2219.18)
(10568.9 -1860.88 9.61802e-14 -829.84 2.02753e-14 2247.47)
(10437.4 -1787.1 -8.20562e-14 -547.958 -2.30819e-14 2282.18)
(10332.9 -1701.97 1.65166e-17 -271.752 -8.08867e-16 2321.81)
(10250.9 -1607.4 -1.94355e-15 -1.54546 1.54713e-15 2365.23)
(10187.1 -1504.21 -8.79766e-14 263.031 -1.96804e-14 2411.57)
(10137.9 -1392.17 0 522.72 0 2460.14)
(10100 -1270.08 -2.83156e-14 778.395 -1.2783e-14 2510.41)
(10070.9 -1135.74 -1.13444e-16 1030.84 8.09667e-17 2561.94)
(10048.4 -985.881 -5.12666e-14 1280.57 -1.59143e-14 2614.37)
(10030.8 -815.885 2.83635e-14 1527.67 9.92161e-15 2667.33)
(10017.2 -618.884 3.07134e-14 1771.63 7.5557e-15 2720.5)
(10007.2 -382.675 1.11389e-15 2011.33 7.89369e-17 2773.5)
(10013.9 -78.3482 -8.05093e-15 2249.78 -3.56151e-15 2830.08)
(13189.5 -1221.01 5.11003e-14 -2551.11 1.89017e-14 2455.01)
(12739.5 -1394.33 -3.47996e-14 -2337.8 -2.04534e-14 2400.4)
(12291.1 -1549.06 -2.28985e-14 -2168.32 -7.52361e-15 2336.02)
(11910.7 -1652.4 3.16396e-14 -1956.39 1.74989e-14 2297.16)
(11582.8 -1714.18 -4.8271e-14 -1716.96 -3.76344e-14 2276.73)
(11301.4 -1741.33 -3.45541e-14 -1459.96 -2.39738e-14 2271.11)
(11061.9 -1739.72 -5.75643e-14 -1193.39 -2.07793e-14 2277.35)
(10859.8 -1714.49 -4.03811e-15 -923.222 5.89831e-15 2293.05)
(10690.6 -1669.98 1.02111e-13 -653.565 4.10714e-14 2316.24)
(10550.1 -1609.51 -5.58124e-15 -386.978 -1.09888e-15 2345.33)
(10433.9 -1535.39 4.8682e-14 -124.885 2.03161e-14 2379.01)
(10338.3 -1448.87 -4.15885e-15 132.048 -8.7897e-16 2416.24)
(10259.7 -1350.2 0 383.591 0 2456.16)
(10195.1 -1238.63 -1.87776e-14 629.663 -7.18143e-15 2498.03)
(10141.9 -1112.42 1.78542e-14 870.093 6.40772e-15 2541.24)
(10098.2 -968.76 -1.52745e-15 1104.38 -5.13355e-16 2585.2)
(10062.5 -803.526 -9.64404e-15 1331.45 -4.75664e-15 2629.38)
(10034.5 -610.425 2.97237e-16 1549.4 2.75324e-16 2673.2)
(10014.5 -377.913 -2.96552e-16 1755.05 1.18638e-16 2716.05)
(10012 -77.9751 -2.91582e-16 1944.85 -7.55634e-17 2759.27)
(13105.1 -862.516 4.3002e-14 -2330.28 2.01158e-14 2486.49)
(12798 -1056.42 0 -2227.97 0 2439.25)
(12413.2 -1238.08 -3.48138e-14 -2105.16 -1.16443e-14 2378.77)
(12066.5 -1373.94 6.38045e-28 -1927.78 2.2679e-28 2339.71)
(11756.7 -1466.97 7.69568e-29 -1715.95 7.96462e-29 2317.09)
(11482.4 -1523.55 4.82058e-28 -1481.59 2.36458e-28 2307.88)
(11241.7 -1549.46 5.58936e-28 -1233.57 1.95575e-28 2309.56)
(11032.1 -1549.58 -3.0226e-14 -978.593 -7.57211e-15 2320.04)
(10850.8 -1527.95 0 -721.535 0 2337.53)
(10695 -1487.74 2.89158e-14 -465.78 7.17709e-15 2360.59)
(10561.6 -1431.26 -2.26238e-28 -213.58 -3.92401e-29 2388)
(10447.6 -1359.88 -2.78556e-14 33.5879 -7.35434e-15 2418.73)
(10350.3 -1274.08 2.7403e-14 274.699 7.64609e-15 2451.92)
(10267.4 -1173.45 2.97217e-28 508.889 1.02723e-28 2486.83)
(10196.8 -1056.66 -2.66246e-14 735.183 -8.64603e-15 2522.76)
(10137.1 -921.431 -1.82365e-28 952.235 -6.49974e-29 2559.07)
(10087.5 -764.288 2.59944e-14 1158.04 1.02679e-14 2595.12)
(10048 -579.804 2.57356e-14 1349.57 1.13643e-14 2630.21)
(10020 -357.877 -1.19634e-28 1522.11 -7.28697e-29 2663.55)
(10010.2 -73.5231 -3.97944e-29 1668.72 -8.65091e-29 2695.14)
(13051.9 -516.063 1.83655e-14 -2023.98 -1.3445e-15 2544.9)
(12808.5 -719.039 -1.84314e-14 -1991.15 -1.5569e-14 2496.31)
(12481.4 -916.799 -5.34542e-14 -1926.8 -2.73749e-14 2435.68)
(12169.9 -1077.11 0 -1798.52 0 2393.39)
(11879.9 -1197.69 1.45023e-14 -1627.34 -3.65956e-15 2365.97)
(11615 -1282.18 -4.5056e-15 -1427.25 -1.67907e-14 2351.02)
(11376.1 -1335.13 -4.94183e-14 -1208.33 -2.1159e-14 2346.4)
(11162.6 -1360.73 -6.62306e-14 -978.091 -3.14815e-14 2350.28)
(10973.4 -1362.6 2.98801e-14 -742.197 8.09857e-15 2361.05)
(10806.6 -1343.64 -3.45569e-14 -504.847 -1.99991e-14 2377.33)
(10660.2 -1306.07 -1.70123e-14 -269.141 -9.2533e-15 2397.94)
(10532.2 -1251.32 -3.3522e-14 -37.4119 -1.70647e-14 2421.86)
(10420.4 -1180.07 -3.30561e-14 188.466 -1.568e-14 2448.19)
(10323.1 -1092.2 -1.63145e-14 406.789 -7.17944e-15 2476.12)
(10238.8 -986.815 -3.22383e-14 615.744 -1.31086e-14 2504.89)
(10166.6 -862.177 -3.18782e-14 813.125 -1.19394e-14 2533.77)
(10106 -715.515 -2.61735e-14 996.021 -1.08045e-14 2562.01)
(10057.8 -542.377 -1.5603e-14 1160.4 -4.95579e-15 2588.81)
(10023.7 -334.154 -1.54312e-14 1300.46 -4.55472e-15 2613.27)
(10008.4 -68.4809 -5.081e-15 1407.52 -4.25676e-15 2634.45)
(12925.8 -227.141 1.60563e-13 -1748.69 7.65241e-14 2579.33)
(12730.9 -425.151 1.66259e-14 -1758.86 1.4887e-14 2532.02)
(12456.9 -625.569 -8.62804e-14 -1735.86 -3.99456e-14 2474.1)
(12185.9 -798.05 1.31989e-27 -1649.26 5.40989e-28 2431.52)
(11924.3 -936.7 4.87195e-14 -1515.83 8.1178e-15 2401.94)
(11677.8 -1042.14 0 -1349.08 0 2383.54)
(11449.4 -1117.03 1.73194e-14 -1159.41 1.22611e-14 2374.61)
(11240.4 -1164.39 -6.15258e-14 -954.855 -1.8277e-14 2373.58)
(11050.9 -1187.1 1.4773e-27 -741.597 5.14145e-28 2379.06)
(10880.2 -1187.64 5.89141e-14 -524.446 1.73807e-14 2389.79)
(10727.4 -1167.95 -1.67688e-14 -307.161 -9.40854e-15 2404.67)
(10591.1 -1129.42 -1.89156e-28 -92.7674 -5.73242e-29 2422.69)
(10470.1 -1072.81 -1.14791e-27 116.157 -3.70921e-28 2442.98)
(10363.1 -998.259 1.62871e-14 317.199 7.45057e-15 2464.68)
(10269.2 -905.243 -5.56445e-28 507.833 -2.03119e-28 2487.01)
(10188 -792.549 -5.32826e-14 685.135 -2.09851e-14 2509.19)
(10119.6 -658.126 4.59665e-28 845.463 1.90463e-28 2530.4)
(10065 -498.522 3.64456e-14 984.054 1.90532e-14 2549.79)
(10026.6 -306.624 -1.55461e-14 1094.43 -5.1069e-15 2566.39)
(10006.8 -62.7348 -5.12456e-15 1166.58 -4.89851e-15 2578.48)
(12746.7 8.48159 2.87691e-14 -1496.54 2.83991e-14 2596.2)
(12592.6 -179.879 4.98762e-14 -1536.04 2.79727e-14 2551.51)
(12365.3 -374.713 3.11371e-14 -1541.86 2.80302e-14 2497.73)
(12133.9 -549.764 1.68815e-28 -1488.32 3.39228e-29 2456.67)
(11903.8 -697.513 6.53659e-14 -1387.91 3.78724e-14 2426.74)
(11680.8 -816.34 -1.5754e-14 -1252.18 1.93621e-15 2406.6)
(11468.9 -907.022 -1.49596e-14 -1090.95 1.86563e-15 2394.91)
(11270.5 -971.268 3.312e-14 -912.186 2.29162e-14 2390.38)
(11086.9 -1011.03 3.0167e-14 -722.314 9.53562e-15 2391.82)
(10918.3 -1028.18 4.60683e-14 -526.508 1.95203e-14 2398.11)
(10764.7 -1024.3 3.28813e-14 -328.988 1.89933e-14 2408.24)
(10625.5 -1000.61 -1.21069e-14 -133.296 -5.5107e-16 2421.27)
(10500 -957.886 4.54963e-15 57.4376 6.89052e-15 2436.33)
(10387.7 -896.419 1.61621e-14 240.234 7.67572e-15 2452.61)
(10288.3 -816.01 5.92396e-14 411.999 2.46692e-14 2469.29)
(10201.6 -715.937 1.59452e-14 569.25 6.64859e-15 2485.57)
(10128.2 -594.834 5.8761e-30 707.808 2.59807e-30 2500.63)
(10069.7 -450.211 5.76203e-14 822.423 2.43131e-14 2513.56)
(10028.4 -276.412 3.11286e-14 906.217 1.12214e-14 2523.38)
(10005.4 -56.4585 1.0273e-14 948.201 1.09604e-14 2527.76)