/*--------------------------------*- C++ -*----------------------------------*\
  =========                 |
  \\      /  F ield         | OpenFOAM: The Open Source CFD Toolbox
   \\    /   O peration     | Website:  https://openfoam.org
    \\  /    A nd           | Version:  9
     \\/     M anipulation  |
\*---------------------------------------------------------------------------*/
FoamFile
{
    format      ascii;
    class       volScalarField;
    location    "160";
    object      sigmayz;
}
// * * * * * * * * * * * * * * * * * * * * * * * * * * * * * * * * * * * * * //

dimensions      [1 -1 -2 0 0 0 0];

internalField   nonuniform List<scalar> 
1000
(
6.0561e-14
8.15523e-14
-2.36411e-14
-1.92198e-14
-1.80823e-14
7.08382e-15
-8.5139e-14
5.867e-14
-3.05272e-14
0
1.80674e-14
0
6.68373e-14
-1.22586e-13
-5.59014e-14
5.50877e-14
4.44764e-14
1.00922e-13
0
0
0
0
6.697e-14
1.19845e-14
1.06351e-16
-5.30354e-14
4.36484e-14
-3.9689e-14
-4.12877e-15
-1.51162e-14
6.89544e-15
-1.57279e-14
-3.19288e-14
7.37786e-15
5.71245e-14
-4.7395e-14
-4.25221e-14
-9.54912e-14
-1.2355e-14
1.76508e-14
5.82929e-16
1.74727e-16
-8.5771e-14
-1.66179e-15
1.71245e-15
4.34852e-14
-1.12742e-15
3.71625e-14
-1.78507e-15
-2.40723e-14
1.09606e-14
-7.68498e-17
2.42217e-17
2.56592e-16
-4.24279e-14
1.05261e-16
3.45321e-14
7.51489e-14
1.40553e-14
-2.16646e-14
-1.47464e-14
9.73238e-15
2.04079e-14
-2.15069e-15
3.12599e-14
-2.78839e-14
8.86959e-15
-2.53844e-14
-6.79962e-15
-1.84403e-14
-2.33157e-14
-2.92781e-14
4.15794e-16
6.99327e-15
4.63316e-14
-4.61281e-15
-2.16465e-16
-2.2322e-14
3.60119e-15
6.46525e-15
-2.09663e-14
-2.85073e-14
1.26091e-14
1.33161e-14
-7.08238e-15
8.38192e-15
5.90345e-15
2.27611e-14
5.21969e-15
-1.2023e-14
-2.93185e-14
-2.10615e-14
1.65363e-14
1.00113e-14
-3.34497e-16
-2.94902e-15
6.5005e-15
2.37686e-15
-8.15298e-15
-5.09564e-15
-6.71276e-14
5.22761e-15
-1.62656e-14
0
-1.7671e-15
-1.0372e-14
5.4877e-16
-7.18057e-15
3.2158e-15
8.92638e-15
-6.18707e-14
3.19757e-14
-2.07087e-14
-3.76884e-15
0
-1.18903e-14
1.63437e-15
1.96612e-18
3.82735e-16
4.56967e-15
-3.64945e-14
3.79604e-14
1.63101e-14
-6.05634e-15
0
-1.46522e-14
-1.84494e-14
1.11109e-14
-1.83336e-19
-8.08948e-15
4.24467e-14
-1.77952e-14
1.78885e-14
0
-1.12728e-14
1.00046e-14
-3.2939e-15
-1.68288e-15
6.11467e-15
1.10461e-14
-3.8392e-15
1.38538e-14
-2.13936e-14
2.03736e-14
1.88422e-16
1.4746e-14
9.53886e-15
0
-7.04251e-15
6.47801e-15
-1.2668e-13
-4.55729e-14
-3.98847e-14
-1.08839e-14
3.16085e-14
-1.88836e-14
2.84043e-17
-2.19975e-14
-5.87501e-19
-2.11504e-14
-4.86202e-14
-1.00421e-15
-9.42047e-16
-5.63467e-14
1.56815e-14
-3.28383e-14
5.77315e-14
4.20329e-18
1.21423e-14
-1.72618e-14
-3.19036e-14
-4.87521e-14
1.8405e-14
-1.12342e-14
7.12507e-16
2.81321e-14
-4.46191e-15
9.13703e-16
-8.73767e-16
9.93832e-15
8.13901e-14
1.09525e-13
-9.22447e-16
4.22347e-14
4.8307e-14
4.20237e-14
4.4897e-15
-5.02776e-14
3.21042e-14
1.35408e-14
8.42697e-15
2.40866e-14
-3.41917e-14
8.5574e-14
-2.02822e-16
-4.6531e-14
-3.54928e-14
-1.83335e-14
3.54981e-15
6.72322e-15
3.10339e-15
5.65146e-15
2.44667e-15
-1.2517e-16
-8.09671e-15
0
0
2.51547e-16
2.30505e-15
6.9064e-16
5.79477e-15
-1.68962e-15
4.18626e-15
-1.80022e-15
3.14762e-17
2.77257e-18
-8.75431e-16
9.69603e-16
-7.20108e-15
2.55282e-15
3.83412e-15
6.40721e-15
2.68443e-15
7.45524e-15
-2.8608e-15
-4.5875e-15
5.5882e-15
0
2.47066e-15
4.67202e-15
1.16643e-14
4.76756e-17
1.45531e-15
1.76966e-15
2.04596e-15
-2.2759e-15
-2.58359e-15
-5.80951e-15
-1.76391e-17
1.46434e-14
1.24927e-15
3.97789e-15
-2.8751e-15
-2.89345e-15
9.72485e-15
-6.4125e-15
-1.35251e-15
2.67329e-15
2.73411e-15
-3.64675e-15
3.78593e-15
6.66854e-15
8.07773e-17
-2.89291e-15
3.20879e-15
1.28455e-17
-4.20113e-15
5.37935e-15
1.24357e-14
-1.93441e-17
0
4.90845e-15
1.79361e-15
2.07847e-15
0
2.40571e-15
-9.26377e-15
-3.91932e-15
-3.72963e-15
-1.25447e-15
-2.89246e-15
5.41557e-15
3.32832e-15
1.98431e-15
3.02888e-15
-4.98804e-15
-1.77928e-17
1.9637e-14
-8.39633e-15
-2.0362e-14
-4.1398e-15
-6.48838e-15
-1.19742e-14
7.58682e-15
2.09825e-14
-2.68328e-15
0
2.66054e-15
-1.19427e-14
-7.05103e-15
2.5536e-16
-4.99174e-15
3.90435e-15
1.21732e-14
2.01301e-15
-4.63166e-15
1.74218e-15
2.06907e-16
1.68376e-14
3.18018e-14
2.96505e-15
4.06572e-16
-1.1673e-14
-2.51741e-14
9.1247e-15
7.17032e-15
-3.3759e-15
-2.03353e-15
1.89432e-14
-1.12233e-14
-4.72966e-15
1.52235e-14
-1.18907e-14
-1.68401e-14
-3.79265e-15
-1.84743e-14
-2.60119e-16
2.79935e-14
1.05521e-14
-2.30332e-15
-4.57632e-15
6.64689e-15
9.4722e-15
-5.39343e-15
-1.52964e-14
7.13934e-15
1.84548e-14
-2.79623e-14
-1.80046e-14
2.6111e-14
-1.00812e-14
1.55088e-14
1.47062e-14
-1.47791e-14
3.52484e-15
6.4102e-16
-3.05212e-14
1.00159e-14
1.21128e-14
-5.51641e-16
9.08929e-16
-8.52295e-15
2.61795e-15
0
0
-2.024e-14
1.43186e-14
3.44744e-14
-2.24746e-14
-2.35435e-14
1.07737e-14
-3.25956e-16
1.57537e-14
2.79364e-14
9.71902e-16
-7.29278e-15
0
-4.42949e-15
1.25878e-15
4.70244e-16
-1.20712e-15
1.35432e-14
-1.35857e-14
-1.26226e-14
3.0855e-14
2.28249e-14
-2.51912e-14
5.51893e-15
2.22235e-15
-3.4269e-15
-2.35062e-14
5.77802e-16
-1.35112e-14
-9.33583e-16
9.61418e-15
-6.69683e-16
3.51327e-14
-2.71336e-15
-5.29901e-14
-2.97834e-14
-3.64316e-15
-1.80099e-14
1.3498e-14
-2.69598e-14
-2.89828e-14
1.06627e-14
8.40834e-15
2.02753e-14
-2.30819e-14
-8.08867e-16
1.54713e-15
-1.96804e-14
0
-1.2783e-14
8.09667e-17
-1.59143e-14
9.92161e-15
7.5557e-15
7.89369e-17
-3.56151e-15
1.89017e-14
-2.04534e-14
-7.52361e-15
1.74989e-14
-3.76344e-14
-2.39738e-14
-2.07793e-14
5.89831e-15
4.10714e-14
-1.09888e-15
2.03161e-14
-8.7897e-16
0
-7.18143e-15
6.40772e-15
-5.13355e-16
-4.75664e-15
2.75324e-16
1.18638e-16
-7.55634e-17
2.01158e-14
0
-1.16443e-14
2.2679e-28
7.96462e-29
2.36458e-28
1.95575e-28
-7.57211e-15
0
7.17709e-15
-3.92401e-29
-7.35434e-15
7.64609e-15
1.02723e-28
-8.64603e-15
-6.49974e-29
1.02679e-14
1.13643e-14
-7.28697e-29
-8.65091e-29
-1.3445e-15
-1.5569e-14
-2.73749e-14
0
-3.65956e-15
-1.67907e-14
-2.1159e-14
-3.14815e-14
8.09857e-15
-1.99991e-14
-9.2533e-15
-1.70647e-14
-1.568e-14
-7.17944e-15
-1.31086e-14
-1.19394e-14
-1.08045e-14
-4.95579e-15
-4.55472e-15
-4.25676e-15
7.65241e-14
1.4887e-14
-3.99456e-14
5.40989e-28
8.1178e-15
0
1.22611e-14
-1.8277e-14
5.14145e-28
1.73807e-14
-9.40854e-15
-5.73242e-29
-3.70921e-28
7.45057e-15
-2.03119e-28
-2.09851e-14
1.90463e-28
1.90532e-14
-5.1069e-15
-4.89851e-15
2.83991e-14
2.79727e-14
2.80302e-14
3.39228e-29
3.78724e-14
1.93621e-15
1.86563e-15
2.29162e-14
9.53562e-15
1.95203e-14
1.89933e-14
-5.5107e-16
6.89052e-15
7.67572e-15
2.46692e-14
6.64859e-15
2.59807e-30
2.43131e-14
1.12214e-14
1.09604e-14
-1.70087e-14
-1.34785e-14
-1.31643e-14
0
1.18481e-14
2.36472e-14
-2.26571e-14
-1.04282e-14
1.01584e-14
1.01176e-14
1.63321e-28
8.9444e-15
0
-7.85633e-15
0
6.92874e-15
-1.20631e-14
8.72188e-29
4.17288e-29
-1.03095e-29
1.72503e-14
1.27955e-14
-1.32804e-14
3.50651e-28
2.40593e-31
1.199e-14
1.15574e-14
-1.09614e-14
0
2.05945e-14
-3.1838e-28
-1.57567e-15
1.07045e-14
7.99528e-15
-1.13214e-14
7.16911e-15
1.23718e-14
1.30697e-14
-4.44653e-29
-1.47182e-28
1.19905e-14
1.21445e-14
1.21732e-14
0
1.18758e-14
0
1.1226e-14
0
0
0
9.43728e-15
0
0
8.09639e-15
0
0
0
6.8997e-15
6.80327e-15
6.83506e-15
-2.73559e-14
0
-1.15924e-14
0
-1.13958e-14
-1.11673e-14
0
0
0
-9.74927e-15
-9.3391e-15
-8.93097e-15
0
0
0
-7.53688e-15
0
-7.1528e-15
-7.09406e-15
-7.15729e-15
-4.429e-14
-1.09641e-14
7.35073e-30
1.15734e-29
1.28575e-14
-2.33476e-14
-2.28677e-14
0
1.198e-14
2.30233e-15
2.28274e-29
-2.07083e-14
-1.19359e-14
-8.20309e-15
1.23363e-14
-7.66965e-15
5.42818e-29
1.34503e-14
5.13032e-29
-4.8375e-29
1.32637e-14
5.34629e-29
-1.32842e-14
0
1.29749e-14
1.27808e-14
-1.25895e-14
-1.24182e-14
1.22806e-14
-2.95188e-28
-1.25625e-28
2.20685e-29
5.83184e-29
3.71904e-28
-3.18022e-29
6.16716e-29
-1.31493e-14
-5.18653e-29
-1.47419e-28
-5.24969e-29
-4.17432e-14
-1.48187e-28
-7.06443e-29
9.35656e-29
1.30568e-14
-1.29188e-14
-1.27739e-14
0
1.25274e-14
1.24505e-14
-6.04442e-29
-1.24304e-14
-1.24959e-14
8.6651e-29
1.27817e-14
-2.88585e-30
2.94266e-30
1.35422e-14
-1.48107e-28
-5.35814e-29
-9.615e-16
-9.51597e-15
-1.31674e-14
0
1.31098e-14
2.25814e-14
-2.23711e-14
-3.14447e-14
1.27249e-14
8.96582e-15
1.17936e-28
8.57213e-15
-1.67566e-14
-8.19714e-15
-1.6074e-14
7.90679e-15
-1.3329e-14
0
-9.48126e-29
0
1.34078e-14
9.11314e-15
-1.3102e-14
2.40798e-29
3.19277e-29
9.20775e-15
3.51735e-14
-1.29443e-14
-2.57552e-14
2.15986e-14
-1.77781e-28
2.12859e-14
1.28709e-14
8.17006e-15
-1.30721e-14
-1.84891e-14
1.33833e-14
1.35603e-14
4.71934e-29
-4.78261e-29
-4.32714e-29
8.74669e-15
1.22567e-28
0
-1.21504e-28
-8.88184e-15
8.83802e-15
1.75407e-14
0
-8.58225e-15
-1.19494e-28
-8.35719e-15
1.6488e-14
8.13782e-15
1.60895e-14
-7.97122e-15
0
1.09791e-28
2.98162e-28
1.65503e-29
-1.24749e-14
4.39483e-29
-4.69409e-29
2.83911e-29
1.31388e-14
-1.3149e-14
-1.31308e-14
0
1.30657e-14
1.30419e-14
-1.91711e-28
-1.30504e-14
-1.30902e-14
0
1.32387e-14
6.11184e-30
-1.06322e-28
1.3544e-14
3.78291e-29
7.45043e-30
8.01241e-15
0
8.04373e-29
0
-2.43669e-29
-3.29521e-29
0
0
0
-1.01865e-28
9.77562e-30
-5.6246e-29
0
0
0
-5.50423e-29
0
2.89086e-28
5.50523e-29
5.53954e-29
-2.37647e-14
4.7208e-15
1.61979e-29
-2.61205e-29
1.30735e-14
-2.12413e-14
-2.12819e-14
0
1.31267e-14
4.97921e-15
-9.92386e-30
-2.12486e-14
-1.31889e-14
-8.04499e-15
1.33149e-14
-8.001e-15
-3.62931e-29
1.35231e-14
-1.12887e-28
-1.78498e-30
4.60961e-15
-7.65377e-15
-4.98399e-15
0
2.09255e-14
1.30806e-14
-2.11143e-14
-1.31203e-14
1.31224e-14
-2.6814e-28
8.05329e-15
-2.92316e-30
-5.51963e-29
-8.02217e-15
-5.50277e-29
6.47636e-29
-1.3467e-14
7.99731e-15
8.00674e-15
8.02408e-15
-6.19022e-15
-4.12559e-15
-4.21249e-15
0
4.31596e-15
4.34163e-15
-4.3561e-15
-4.36365e-15
4.36803e-15
-5.05401e-29
3.01418e-29
8.20201e-30
1.83457e-29
4.8781e-29
1.83214e-29
4.90707e-29
-4.48919e-15
0
0
0
1.3438e-14
9.94717e-15
-6.78516e-15
2.22008e-15
-1.29721e-14
-3.55735e-15
4.27813e-14
-1.2552e-14
-1.76368e-14
0
6.28177e-15
2.93428e-14
3.02642e-14
4.18053e-14
-1.39175e-14
-2.60263e-14
-4.89508e-14
5.15098e-14
-1.94668e-14
1.90218e-14
-1.34723e-14
-2.23472e-14
-2.06611e-14
2.65853e-14
3.27331e-14
2.64235e-14
-5.59441e-15
-1.05969e-14
-1.91499e-15
1.93086e-14
-1.36722e-48
-4.21559e-15
-2.69948e-14
-3.88928e-14
2.25508e-14
-2.60741e-14
2.1105e-14
3.28534e-14
-2.86741e-15
3.90979e-14
8.08975e-16
1.91334e-14
0
-1.80106e-14
-9.19819e-15
1.31136e-14
-2.87064e-14
-3.02412e-14
-1.739e-14
-6.45753e-14
-1.53263e-15
1.20493e-14
2.37752e-14
-7.25911e-15
-1.99989e-14
2.49311e-14
1.30768e-14
-7.29615e-16
4.39534e-14
-1.72367e-14
-1.11979e-48
-2.60979e-14
1.42476e-14
6.42644e-15
-2.63628e-14
-8.26423e-15
2.27005e-14
-1.60926e-14
2.99603e-14
6.16674e-14
-8.00638e-15
-9.20605e-15
3.03072e-16
9.724e-15
-2.94952e-14
-1.32834e-14
-9.67436e-16
-3.956e-14
-6.21495e-14
1.74158e-14
1.79217e-14
2.4902e-14
-4.12102e-15
1.85616e-14
1.97583e-14
-3.82868e-14
4.6767e-14
1.64909e-15
-6.41864e-14
-8.13586e-14
2.77338e-14
3.31697e-14
2.3721e-15
-1.2176e-14
5.46108e-14
2.01475e-14
2.41868e-14
6.92023e-14
3.48769e-14
-1.85671e-14
-4.70227e-14
-2.14485e-14
-2.54609e-15
-6.39739e-15
-3.45068e-14
5.01782e-14
1.93038e-14
3.36031e-14
3.35398e-14
2.86108e-16
-2.04094e-14
-3.32136e-14
-3.84856e-15
-5.08588e-15
-4.50072e-14
-1.59189e-14
9.4588e-15
1.07703e-14
2.8553e-14
1.57137e-15
2.95981e-14
1.1735e-14
6.17017e-15
2.83919e-16
-2.3991e-14
-1.9288e-14
-4.27626e-15
-5.16958e-17
-5.39973e-17
1.62554e-14
-5.87956e-49
9.78698e-15
9.89701e-15
4.99438e-15
9.76845e-15
3.54898e-16
9.62269e-15
-1.00173e-14
-1.96952e-14
2.28761e-14
-5.14464e-49
0
-2.94445e-14
0
-3.23068e-14
2.08128e-14
3.58876e-14
2.06156e-14
-1.32089e-14
-4.59003e-14
-9.6263e-15
5.82422e-15
1.89106e-14
5.88769e-16
-1.28624e-14
-3.98498e-14
4.45057e-14
9.00094e-15
2.84703e-14
1.18518e-14
-4.6692e-16
-5.51832e-15
2.91229e-14
-2.01726e-14
2.89373e-14
-3.33545e-14
7.74603e-16
2.76336e-14
-9.01289e-15
-8.66482e-15
3.36064e-17
1.86359e-14
-3.76072e-14
-9.87084e-15
-1.62415e-14
0
-1.84738e-14
9.27853e-15
2.04963e-14
-1.31275e-14
1.6798e-14
-5.38593e-15
8.52092e-15
1.49134e-14
-1.43626e-14
-9.06458e-15
0
-8.80693e-15
8.55008e-15
-6.5267e-17
9.10098e-15
-7.65391e-15
7.82825e-15
4.29249e-15
-1.23927e-15
-5.05401e-15
6.43659e-17
-2.93826e-15
3.29602e-15
-2.36751e-15
)
;

boundaryField
{
    left
    {
        type            symmetryPlane;
    }
    right
    {
        type            calculated;
        value           nonuniform List<scalar> 
30
(
2.55282e-15
1.46434e-14
-1.93441e-17
-2.0362e-14
3.18018e-14
-2.30332e-15
-5.51641e-16
4.70244e-16
-2.97834e-14
-3.56151e-15
-7.55634e-17
-8.65091e-29
-4.25676e-15
-4.89851e-15
1.09604e-14
-1.03095e-29
-1.47182e-28
6.83506e-15
-7.15729e-15
-4.8375e-29
-5.24969e-29
-5.35814e-29
0
-4.78261e-29
1.65503e-29
7.45043e-30
5.53954e-29
-1.78498e-30
8.02408e-15
0
)
;
    }
    down
    {
        type            symmetryPlane;
    }
    up
    {
        type            calculated;
        value           nonuniform List<scalar> 
30
(
-7.60105e-20
8.49864e-20
-8.18664e-20
-1.5089e-20
3.43882e-20
6.84225e-21
4.03659e-22
1.80449e-20
2.42008e-20
5.48928e-20
-1.41397e-20
-3.28294e-20
-3.43963e-20
0
3.75429e-20
3.90949e-20
-4.06828e-20
-4.23742e-20
4.42384e-20
-6.87021e-34
3.35183e-34
-7.63116e-35
-1.46873e-34
2.08181e-34
-2.03777e-34
1.62234e-34
-8.49796e-20
0
0
0
)
;
    }
    hole
    {
        type            calculated;
        value           nonuniform List<scalar> 
20
(
6.3787e-14
6.41352e-14
0
2.72701e-14
1.68958e-14
3.88096e-14
-4.56106e-14
-5.79381e-14
-2.07781e-14
-7.47834e-15
-6.72816e-14
-6.05937e-14
-3.42318e-14
3.42778e-14
7.68942e-15
-9.72675e-14
-4.97235e-14
-7.85392e-14
2.81438e-14
8.69247e-15
)
;
    }
    frontAndBack
    {
        type            empty;
    }
}


// ************************************************************************* //
