/*--------------------------------*- C++ -*----------------------------------*\
  =========                 |
  \\      /  F ield         | OpenFOAM: The Open Source CFD Toolbox
   \\    /   O peration     | Website:  https://openfoam.org
    \\  /    A nd           | Version:  9
     \\/     M anipulation  |
\*---------------------------------------------------------------------------*/
FoamFile
{
    format      ascii;
    class       volScalarField;
    location    "100";
    object      sigmaxz;
}
// * * * * * * * * * * * * * * * * * * * * * * * * * * * * * * * * * * * * * //

dimensions      [1 -1 -2 0 0 0 0];

internalField   nonuniform List<scalar> 
1000
(
-7.19189e-14
-1.13457e-13
1.41062e-13
2.26527e-14
-1.31668e-13
-1.00852e-15
-1.53702e-13
9.22009e-14
-9.27215e-14
0
-1.1763e-13
0
1.32793e-13
-2.28818e-13
-9.88846e-14
8.50876e-14
7.77995e-14
1.62649e-13
0
0
0
0
1.2904e-13
-2.53189e-14
-1.89075e-16
-8.20068e-14
7.17469e-14
-6.83957e-14
1.56702e-14
-1.10495e-14
-7.2514e-14
6.10141e-14
-6.2625e-14
-2.37305e-14
8.15811e-14
-8.27634e-14
-7.34084e-14
-1.64633e-13
-4.34911e-14
4.55884e-14
-4.41686e-14
-1.59838e-15
-1.91327e-13
1.11488e-14
-1.28087e-14
7.51962e-14
1.11789e-15
5.96348e-14
-5.78334e-14
-4.41251e-14
-1.38876e-13
-1.41526e-15
8.60637e-16
9.92672e-15
-8.75137e-14
2.27304e-16
6.74916e-14
1.54028e-13
2.727e-14
-5.60537e-14
1.70308e-13
3.81737e-14
6.08686e-14
-9.0839e-15
7.45047e-14
-6.9609e-14
-1.52433e-15
-5.80215e-14
7.15296e-15
-2.74154e-14
2.98007e-13
-1.50538e-13
8.16434e-16
1.30125e-14
1.56657e-13
-2.74416e-15
1.66919e-17
-5.41325e-14
-2.50697e-15
2.30338e-15
1.75449e-13
-1.60531e-13
1.19226e-14
1.19263e-14
-4.78742e-15
6.71568e-14
-1.92677e-16
1.08501e-13
2.45354e-14
1.8867e-14
1.89375e-13
-5.77011e-15
6.24264e-14
2.77048e-15
-7.07965e-17
6.71287e-14
-4.29285e-17
5.32653e-14
1.04793e-15
-3.65768e-16
6.55628e-15
8.22714e-15
-6.8491e-15
0
-1.32113e-14
-4.32928e-15
2.27828e-14
1.04381e-14
1.94764e-14
5.93866e-15
-3.62396e-15
1.82759e-14
-1.70142e-14
-3.98989e-15
0
-2.0335e-14
2.31747e-14
1.01019e-16
-7.04133e-14
9.04627e-15
-4.57015e-15
2.65222e-14
2.37437e-14
-2.9959e-15
0
-3.52792e-14
-4.77476e-14
4.18561e-14
2.0428e-17
-4.24672e-14
1.93022e-14
1.80491e-15
3.25966e-14
0
-4.45132e-14
2.21598e-14
-1.98246e-14
-3.91506e-14
1.71313e-14
3.251e-14
-3.94125e-14
-5.4273e-14
-4.03765e-14
-2.09994e-16
8.80622e-17
4.62732e-14
2.52535e-14
0
-5.36386e-14
1.7429e-14
-1.89958e-14
1.78717e-14
-4.16691e-14
2.02571e-15
7.62707e-14
-5.81807e-14
1.08285e-16
-6.66399e-14
1.77499e-17
-5.52114e-14
2.64457e-14
5.39459e-16
4.67867e-16
-9.10905e-14
6.31064e-17
-7.61335e-14
1.36766e-13
7.56399e-17
1.43921e-14
-4.15996e-14
1.22233e-13
3.3911e-14
-1.20445e-14
5.82254e-15
-1.37691e-16
7.6297e-14
-1.26156e-14
1.83581e-14
1.30696e-14
4.2523e-14
4.53941e-14
3.31245e-15
7.68726e-16
1.17363e-13
9.62767e-14
8.56884e-14
1.14758e-14
-1.03816e-13
3.94329e-14
2.81409e-14
-8.31475e-15
-2.65144e-14
-6.21871e-14
2.52912e-13
1.23757e-16
-8.79692e-14
-6.52242e-14
-3.65686e-14
-3.21234e-14
6.64418e-14
4.87654e-14
3.75767e-15
-7.83776e-14
-2.80575e-14
-4.67336e-15
0
0
3.18199e-14
1.39079e-15
6.5939e-14
3.76933e-15
-1.42683e-15
3.35314e-15
-1.03056e-13
3.34307e-14
1.22989e-16
-3.41726e-14
3.37506e-14
-6.49282e-14
-3.33982e-14
7.90142e-14
1.1225e-14
-2.2324e-14
9.6777e-14
-2.40284e-15
-9.67122e-14
9.39095e-15
0
3.46614e-15
7.96202e-15
5.03695e-14
7.15924e-16
-2.89761e-14
3.41298e-14
3.47013e-14
-3.41095e-14
-3.40635e-14
-6.73222e-14
-6.03482e-16
1.99094e-14
2.68672e-14
1.08003e-14
-8.66787e-14
1.80907e-14
1.07305e-13
-1.00719e-13
-3.40075e-14
6.48405e-14
-5.15638e-14
-6.81142e-14
6.54219e-14
1.00647e-13
7.37333e-16
-3.40711e-14
3.34882e-14
1.17771e-16
-3.38259e-14
2.92686e-14
1.41794e-14
2.50249e-17
0
1.35125e-14
3.08538e-14
3.51179e-14
0
-2.05507e-14
-5.2033e-14
-6.54045e-14
-1.2019e-14
5.01619e-14
1.76673e-14
1.7493e-14
-1.09344e-14
2.62221e-14
2.72711e-14
-3.35164e-14
-1.04888e-16
9.37192e-14
-2.66248e-14
-3.5787e-14
3.69127e-14
-1.87924e-14
-8.37922e-14
4.46085e-14
1.13451e-13
-3.46133e-14
0
3.31072e-14
-3.37434e-14
-4.52424e-14
-4.4007e-14
-5.90277e-14
6.77272e-14
9.1224e-14
9.04568e-15
-2.44659e-14
1.59674e-14
7.60988e-15
7.76006e-14
2.98642e-14
3.25343e-14
1.98387e-15
-5.4677e-14
-1.40926e-13
4.73973e-14
7.02564e-14
-3.38605e-14
1.72317e-14
7.94783e-14
-9.79268e-14
-3.59985e-14
1.40692e-13
-2.37099e-14
-9.81253e-14
-2.23062e-14
-8.62509e-14
-1.28039e-15
1.04533e-13
2.33661e-14
5.15844e-15
-3.50062e-14
3.59424e-14
2.53155e-14
-3.64864e-14
-4.05354e-14
1.9226e-14
7.44212e-14
-1.22525e-13
-7.55327e-14
1.16364e-13
-2.9885e-14
9.68194e-14
6.20332e-14
-8.18914e-14
2.37403e-14
2.68694e-15
-1.15974e-13
3.10789e-14
4.09501e-14
3.11108e-15
2.96287e-15
-3.7262e-14
-1.3466e-14
0
0
-9.44443e-14
9.69645e-14
1.95175e-13
-1.53645e-13
-1.22081e-13
6.41614e-14
1.33747e-14
4.87294e-14
1.09099e-13
3.6617e-15
-2.28149e-14
0
-2.50637e-14
1.11464e-14
1.05734e-14
-3.46425e-15
2.94032e-14
-3.14929e-14
-3.02231e-14
9.41323e-14
5.88024e-14
-8.18727e-14
-2.30271e-14
1.94444e-14
2.47113e-14
-6.58064e-14
2.09173e-15
-7.27576e-14
-3.25571e-15
3.10454e-14
-2.31725e-15
1.0158e-13
-1.27662e-14
-1.28729e-13
-2.33666e-14
-4.92664e-15
-3.29199e-14
4.04884e-14
-1.12706e-13
-1.08961e-13
7.06783e-14
7.51246e-14
9.61541e-14
-8.20198e-14
1.91151e-17
-1.95068e-15
-8.79643e-14
0
-2.82628e-14
-1.15577e-16
-5.12135e-14
2.83629e-14
3.06777e-14
1.11176e-15
-8.04518e-15
5.10811e-14
-3.47737e-14
-2.28895e-14
3.1614e-14
-4.82086e-14
-3.45118e-14
-5.75315e-14
-4.05433e-15
1.02035e-13
-5.58067e-15
4.86379e-14
-4.15892e-15
0
-1.87572e-14
1.78341e-14
-1.52847e-15
-9.66483e-15
2.98587e-16
-2.95067e-16
-2.91283e-16
4.2981e-14
0
-3.48016e-14
6.37776e-28
7.68208e-29
4.81687e-28
5.5866e-28
-3.02184e-14
0
2.89102e-14
-2.26278e-28
-2.7852e-14
2.74004e-14
2.97054e-28
-2.66239e-14
-1.82365e-28
2.59956e-14
2.57377e-14
-1.19734e-28
-3.9814e-29
1.83723e-14
-1.84109e-14
-5.34215e-14
0
1.45145e-14
-4.46953e-15
-4.9387e-14
-6.61768e-14
2.98735e-14
-3.45104e-14
-1.69891e-14
-3.34757e-14
-3.301e-14
-1.62915e-14
-3.21926e-14
-3.18326e-14
-2.61747e-14
-1.55804e-14
-1.54087e-14
-5.07679e-15
1.60491e-13
1.6606e-14
-8.62379e-14
1.31932e-27
4.87224e-14
0
1.72964e-14
-6.15111e-14
1.47671e-27
5.89029e-14
-1.67451e-14
-1.89138e-28
-1.14779e-27
1.62635e-14
-5.56428e-28
-5.32829e-14
4.59519e-28
3.64729e-14
-1.55228e-14
-5.12021e-15
2.87326e-14
4.98464e-14
3.10965e-14
1.68825e-28
6.5313e-14
-1.57683e-14
-1.49751e-14
3.30728e-14
3.01607e-14
4.60387e-14
3.28328e-14
-1.21274e-14
4.50386e-15
1.61378e-14
5.91903e-14
1.59211e-14
5.87633e-30
5.75743e-14
3.10808e-14
1.02641e-14
-1.57971e-14
-1.36571e-14
-3.37005e-14
0
3.25715e-14
4.7455e-14
-4.70571e-14
-3.07273e-14
3.01325e-14
1.60179e-14
3.17256e-28
1.60222e-14
0
-1.59382e-14
0
1.57946e-14
-2.65741e-14
1.97843e-28
1.06546e-28
5.34708e-30
3.59909e-14
1.25067e-14
-3.30912e-14
7.07551e-28
-1.84188e-28
1.46643e-14
1.498e-14
-3.05533e-14
0
4.50239e-14
-8.05402e-28
-1.28323e-14
2.80576e-14
1.56862e-14
-2.72701e-14
1.56088e-14
2.66607e-14
2.64421e-14
-1.05695e-28
-9.50508e-29
1.07486e-14
1.15539e-14
1.22743e-14
0
1.34559e-14
0
1.43047e-14
0
0
0
1.52048e-14
0
0
1.54014e-14
0
0
0
1.52704e-14
1.51861e-14
5.03263e-15
-4.34787e-14
0
-1.15182e-14
0
-1.27629e-14
-1.32704e-14
0
0
0
-1.46087e-14
-1.47972e-14
-1.49388e-14
0
0
0
-1.51302e-14
0
-1.50551e-14
-1.4987e-14
-4.97217e-15
-9.58598e-14
-1.01796e-14
6.47745e-29
1.25849e-28
3.0594e-14
-4.30263e-14
-4.31683e-14
0
2.92793e-14
1.47227e-14
1.13785e-30
-4.2789e-14
-2.78664e-14
-1.47997e-14
2.7264e-14
-1.48686e-14
1.08026e-28
2.6643e-14
1.03319e-28
-2.92693e-29
3.03709e-14
-7.17611e-29
-3.03308e-14
0
3.00188e-14
2.97958e-14
-2.95394e-14
-2.92583e-14
2.89606e-14
-5.81231e-28
-1.96832e-28
9.19468e-29
9.89643e-29
7.7316e-28
-8.72357e-29
1.35666e-28
-2.68159e-14
-1.00441e-28
-2.82906e-28
-3.32995e-29
-8.99581e-14
-1.99187e-28
-7.30178e-29
2.10063e-28
2.94419e-14
-2.92802e-14
-2.90857e-14
0
2.86266e-14
2.83758e-14
-9.32184e-29
-2.78644e-14
-2.7616e-14
1.88097e-28
2.71648e-14
-5.98967e-30
5.95494e-30
2.67038e-14
-2.81701e-28
-3.2839e-29
-3.08478e-16
-9.25141e-15
-2.89672e-14
0
2.88739e-14
4.04594e-14
-4.07985e-14
-5.36389e-14
2.82882e-14
1.32552e-14
1.7982e-28
1.37193e-14
-2.77631e-14
-1.40021e-14
-2.81704e-14
1.41353e-14
-2.68121e-14
0
-1.83199e-28
0
2.81729e-14
9.21072e-15
-2.83189e-14
1.16809e-28
9.84486e-29
1.15503e-14
6.83911e-14
-2.80841e-14
-5.59111e-14
4.0873e-14
-2.74519e-28
4.10102e-14
2.73332e-14
1.3796e-14
-2.70317e-14
-3.98729e-14
2.67984e-14
2.67235e-14
9.16619e-29
-3.05471e-29
-9.42559e-29
9.2998e-15
1.37703e-28
0
-1.50631e-28
-1.1511e-14
1.19407e-14
2.46397e-14
0
-1.2931e-14
-2.86286e-28
-1.3359e-14
2.70221e-14
1.36261e-14
2.7416e-14
-1.37612e-14
0
1.91529e-28
5.58274e-28
2.73067e-30
-2.67804e-14
9.28286e-29
-1.8149e-29
1.08293e-28
2.73135e-14
-2.73631e-14
-2.73828e-14
0
2.73444e-14
2.72937e-14
-3.70558e-28
-2.71502e-14
-2.70662e-14
0
2.68966e-14
-4.5216e-30
-1.81576e-28
2.67157e-14
8.78276e-29
3.12691e-31
9.29022e-15
0
1.19685e-28
0
-4.86694e-29
-1.04533e-28
0
0
0
-1.8141e-28
-6.10803e-30
-9.0721e-29
0
0
0
-9.29748e-29
0
5.54906e-28
9.33183e-29
3.1167e-29
-4.89618e-14
1.54488e-14
3.35578e-29
-3.58859e-29
2.64897e-14
-3.86213e-14
-3.90078e-14
0
2.68686e-14
1.40132e-14
4.17025e-30
-4.00237e-14
-2.6852e-14
-1.33255e-14
2.67834e-14
-1.34271e-14
-8.85274e-29
2.6693e-14
-1.89901e-28
-9.99711e-31
1.44005e-14
-1.10986e-14
-1.418e-14
0
3.83003e-14
2.63724e-14
-3.90641e-14
-2.66322e-14
2.67086e-14
-5.46557e-28
1.30485e-14
-5.94647e-30
-9.07622e-29
-1.32792e-14
-9.16126e-29
1.37946e-28
-2.6701e-14
1.34114e-14
1.33978e-14
4.47756e-15
-3.44131e-14
-2.49738e-14
-2.53569e-14
0
2.5976e-14
2.62087e-14
-2.63914e-14
-2.65273e-14
2.6621e-14
-3.19478e-28
1.83837e-28
3.91788e-29
9.05644e-29
2.7471e-28
9.13748e-29
2.75415e-28
-2.66843e-14
0
0
0
4.5839e-14
-3.96082e-15
-4.22091e-14
7.03204e-15
-1.22019e-14
2.81472e-14
5.20031e-14
-1.76468e-14
-3.15422e-14
0
1.19096e-15
5.30559e-14
5.52071e-14
4.95563e-14
-1.2541e-14
-6.40196e-14
-4.72468e-14
7.75637e-14
-2.13909e-14
3.86878e-14
-2.10276e-15
-4.76946e-14
-4.73114e-14
6.77813e-14
5.54049e-14
6.59744e-14
-6.74682e-15
-4.8948e-14
-2.42734e-15
8.00438e-15
-5.41404e-47
1.74168e-14
-1.49715e-14
-4.20053e-14
3.23771e-14
-5.13514e-14
-2.43671e-14
5.8506e-14
-3.84985e-15
8.52209e-14
1.95302e-14
2.4907e-14
0
-2.78452e-14
-2.20646e-14
9.82489e-15
-2.30629e-14
-1.07705e-14
-1.64116e-14
-7.6476e-14
-3.85103e-14
2.26273e-14
6.3672e-14
-2.12504e-14
-2.89286e-14
1.76675e-14
2.57259e-14
1.44155e-14
3.79454e-14
-3.49599e-14
-5.10839e-47
-6.94825e-15
2.38543e-14
2.02856e-14
-6.62864e-14
-2.02509e-14
6.36591e-14
-4.5386e-14
1.08998e-14
1.0466e-13
1.80075e-14
-2.48613e-15
4.27887e-16
4.46108e-15
-3.36694e-14
7.76585e-15
-1.342e-15
-7.82758e-14
-4.83566e-14
4.67413e-14
1.45626e-15
-1.23374e-14
-1.90235e-14
6.08802e-14
9.78244e-15
-7.2392e-14
4.90424e-14
4.98184e-14
-5.22972e-14
-1.19069e-13
2.17896e-15
4.36944e-14
5.31628e-14
-4.05892e-14
3.24069e-14
1.10115e-14
5.15595e-14
1.29633e-13
2.72977e-14
-5.35004e-14
-3.63391e-15
4.85564e-14
3.30395e-14
-5.36776e-14
-5.17274e-14
6.4718e-14
4.45426e-14
2.50393e-14
2.63738e-14
2.35162e-16
-3.69797e-14
-4.2257e-14
-1.86045e-14
-1.88147e-14
-5.8557e-14
-4.13651e-14
3.86458e-14
3.86917e-14
7.15927e-14
1.22584e-14
1.97403e-14
1.9792e-14
-1.46568e-14
5.3703e-16
-4.67694e-14
-1.11587e-14
4.17102e-14
-4.0447e-17
-4.4535e-17
-3.41997e-15
-4.44806e-47
2.329e-15
3.77448e-15
1.86889e-14
5.49667e-15
7.84503e-16
6.73603e-15
-2.25097e-14
-1.69694e-14
3.70438e-14
-4.33709e-47
0
-1.17807e-14
0
-5.12295e-14
1.628e-14
7.11247e-14
5.995e-14
-2.76364e-14
-8.46593e-14
-8.68682e-16
5.01483e-14
7.30611e-15
1.32476e-15
-3.92981e-14
-7.12891e-14
7.83726e-14
7.82013e-15
2.84725e-14
2.46518e-14
-1.6007e-14
-4.8671e-14
1.38686e-14
1.62281e-14
2.16236e-14
-5.49676e-14
1.59644e-15
5.13343e-14
-9.60786e-15
-9.61087e-15
3.54113e-18
5.83021e-15
2.48988e-14
-7.48959e-15
-5.15787e-14
0
-1.92596e-14
2.11384e-14
4.43287e-14
-2.79691e-14
-4.29879e-14
2.76887e-14
4.57543e-14
-2.70817e-14
-2.50884e-14
-9.67609e-15
0
-1.10693e-14
1.12814e-14
-8.91563e-17
4.57516e-14
1.8546e-14
2.36504e-15
2.31128e-14
6.46688e-15
-2.76786e-14
4.55248e-16
-1.27414e-14
2.11577e-14
-6.23146e-15
)
;

boundaryField
{
    left
    {
        type            symmetryPlane;
    }
    right
    {
        type            calculated;
        value           nonuniform List<scalar> 
30
(
4.66265e-18
-4.66635e-18
7.81272e-21
1.86638e-18
-5.60649e-18
3.93776e-18
2.397e-18
8.33393e-18
-1.4901e-18
-6.86835e-18
-3.53563e-19
2.2857e-32
-4.97916e-18
-5.1414e-18
1.05651e-17
3.96671e-32
-3.35943e-32
5.73057e-18
-5.91574e-18
3.86051e-33
-4.37796e-32
-4.56355e-32
0
3.2474e-33
1.17919e-31
6.47646e-32
7.54564e-32
-3.46203e-33
2.73248e-17
0
)
;
    }
    down
    {
        type            symmetryPlane;
    }
    up
    {
        type            calculated;
        value           nonuniform List<scalar> 
30
(
4.57516e-14
1.8546e-14
2.36504e-15
2.31128e-14
6.46688e-15
-2.76786e-14
4.55248e-16
-1.27414e-14
2.11577e-14
-6.23146e-15
-3.44131e-14
-2.49738e-14
-2.53569e-14
0
2.5976e-14
2.62087e-14
-2.63914e-14
-2.65273e-14
2.6621e-14
-3.19478e-28
1.83837e-28
3.91788e-29
9.05644e-29
2.7471e-28
9.13748e-29
2.75415e-28
-2.66843e-14
0
0
0
)
;
    }
    hole
    {
        type            calculated;
        value           nonuniform List<scalar> 
20
(
-6.89373e-14
-8.13489e-14
0
-6.26665e-14
-3.66566e-14
-1.29713e-13
1.6161e-13
2.91127e-13
1.75472e-13
1.90232e-13
2.64412e-15
7.15716e-15
6.794e-15
-9.63568e-15
-5.16247e-15
4.47415e-14
2.72728e-14
5.25006e-14
-2.20828e-14
-8.0275e-15
)
;
    }
    frontAndBack
    {
        type            empty;
    }
}


// ************************************************************************* //
