/*--------------------------------*- C++ -*----------------------------------*\
  =========                 |
  \\      /  F ield         | OpenFOAM: The Open Source CFD Toolbox
   \\    /   O peration     | Website:  https://openfoam.org
    \\  /    A nd           | Version:  9
     \\/     M anipulation  |
\*---------------------------------------------------------------------------*/
FoamFile
{
    format      ascii;
    class       volScalarField;
    location    "100";
    object      sigmayz;
}
// * * * * * * * * * * * * * * * * * * * * * * * * * * * * * * * * * * * * * //

dimensions      [1 -1 -2 0 0 0 0];

internalField   nonuniform List<scalar> 
1000
(
6.0499e-14
8.1455e-14
-2.3604e-14
-1.91898e-14
-1.80935e-14
7.06293e-15
-8.50519e-14
5.86211e-14
-3.04672e-14
0
1.80703e-14
0
6.67605e-14
-1.22447e-13
-5.58382e-14
5.50131e-14
4.44268e-14
1.00825e-13
0
0
0
0
6.68925e-14
1.19606e-14
1.06062e-16
-5.29629e-14
4.36143e-14
-3.96437e-14
-4.14124e-15
-1.51076e-14
6.89546e-15
-1.57e-14
-3.18917e-14
7.35877e-15
5.70486e-14
-4.73416e-14
-4.24745e-14
-9.5383e-14
-1.23245e-14
1.76218e-14
5.93071e-16
1.74179e-16
-8.56734e-14
-1.65414e-15
1.69808e-15
4.34238e-14
-1.13362e-15
3.71275e-14
-1.74422e-15
-2.40443e-14
1.09641e-14
-7.71682e-17
2.45407e-17
2.624e-16
-4.23804e-14
1.05806e-16
3.44938e-14
7.50576e-14
1.40395e-14
-2.16326e-14
-1.47257e-14
9.73616e-15
2.03852e-14
-2.15525e-15
3.12122e-14
-2.78409e-14
8.88477e-15
-2.53557e-14
-6.8054e-15
-1.84267e-14
-2.33022e-14
-2.92444e-14
4.15925e-16
6.99904e-15
4.62689e-14
-4.619e-15
-2.16715e-16
-2.2304e-14
3.60346e-15
6.46499e-15
-2.09589e-14
-2.8485e-14
1.26094e-14
1.33214e-14
-7.08773e-15
8.36168e-15
5.90854e-15
2.27363e-14
5.21408e-15
-1.20307e-14
-2.93086e-14
-2.10543e-14
1.65331e-14
1.00138e-14
-3.3469e-16
-2.95672e-15
6.50526e-15
2.37419e-15
-8.15637e-15
-5.09695e-15
-6.7036e-14
5.22209e-15
-1.62409e-14
0
-1.76439e-15
-1.0354e-14
5.46917e-16
-7.1703e-15
3.21051e-15
8.91588e-15
-6.1784e-14
3.19333e-14
-2.06792e-14
-3.76404e-15
0
-1.18707e-14
1.62872e-15
1.94797e-18
3.93067e-16
4.56431e-15
-3.64457e-14
3.79119e-14
1.62858e-14
-6.04859e-15
0
-1.46296e-14
-1.84219e-14
1.10919e-14
-1.8831e-19
-8.07516e-15
4.23792e-14
-1.77766e-14
1.78628e-14
0
-1.12577e-14
9.98333e-15
-3.28232e-15
-1.66657e-15
6.10707e-15
1.10327e-14
-3.80904e-15
1.38474e-14
-2.13645e-14
2.03471e-14
1.88124e-16
1.47325e-14
9.52692e-15
0
-7.01952e-15
6.47057e-15
-1.2652e-13
-4.55247e-14
-3.98351e-14
-1.08695e-14
3.1568e-14
-1.88675e-14
2.83011e-17
-2.19641e-14
-5.96157e-19
-2.11255e-14
-4.85729e-14
-1.00314e-15
-9.40945e-16
-5.62757e-14
1.5656e-14
-3.27984e-14
5.76618e-14
4.14909e-18
1.21359e-14
-1.72417e-14
-3.19095e-14
-4.86995e-14
1.83831e-14
-1.12189e-14
7.11319e-16
2.81098e-14
-4.44455e-15
8.99189e-16
-8.8117e-16
9.91687e-15
8.12752e-14
1.09401e-13
-9.21325e-16
4.21887e-14
4.82512e-14
4.19761e-14
4.4708e-15
-5.02206e-14
3.20837e-14
1.35255e-14
8.41859e-15
2.40592e-14
-3.41518e-14
8.5486e-14
-2.0245e-16
-4.64778e-14
-3.54736e-14
-1.83119e-14
3.56978e-15
6.68982e-15
3.09821e-15
5.64705e-15
2.44823e-15
-1.24152e-16
-8.09515e-15
0
0
2.50526e-16
2.30687e-15
6.88482e-16
5.80434e-15
-1.69354e-15
4.2004e-15
-1.79645e-15
2.37146e-17
2.76761e-18
-8.73971e-16
9.68096e-16
-7.16602e-15
2.53251e-15
3.82066e-15
6.40191e-15
2.68566e-15
7.44294e-15
-2.86017e-15
-4.57819e-15
5.58874e-15
0
2.47226e-15
4.67651e-15
1.1676e-14
4.76471e-17
1.46801e-15
1.76593e-15
2.04207e-15
-2.2718e-15
-2.57926e-15
-5.80046e-15
-1.78054e-17
1.45972e-14
1.2429e-15
3.97412e-15
-2.85847e-15
-2.89594e-15
9.70666e-15
-6.39668e-15
-1.34717e-15
2.66309e-15
2.74664e-15
-3.63591e-15
3.77507e-15
6.65153e-15
8.07413e-17
-2.88677e-15
3.20237e-15
1.28222e-17
-4.19403e-15
5.36249e-15
1.23747e-14
-1.92205e-17
0
4.90366e-15
1.78565e-15
2.07006e-15
0
2.41078e-15
-9.25473e-15
-3.90518e-15
-3.7296e-15
-1.27179e-15
-2.90418e-15
5.42122e-15
3.34781e-15
1.9712e-15
3.01436e-15
-4.97887e-15
-1.77623e-17
1.95971e-14
-8.37459e-15
-2.03504e-14
-4.1522e-15
-6.48136e-15
-1.19472e-14
7.57344e-15
2.09512e-14
-2.67378e-15
0
2.65155e-15
-1.19416e-14
-7.04199e-15
2.76644e-16
-4.96971e-15
3.8649e-15
1.21376e-14
2.01835e-15
-4.61373e-15
1.75771e-15
2.15948e-16
1.68308e-14
3.17451e-14
2.95156e-15
4.05778e-16
-1.16525e-14
-2.51249e-14
9.10918e-15
7.14737e-15
-3.36494e-15
-2.0414e-15
1.89264e-14
-1.11906e-14
-4.71778e-15
1.51631e-14
-1.19151e-14
-1.68032e-14
-3.77505e-15
-1.84595e-14
-2.6026e-16
2.7957e-14
1.05259e-14
-2.27956e-15
-4.56029e-15
6.631e-15
9.46148e-15
-5.37892e-15
-1.52818e-14
7.13311e-15
1.84305e-14
-2.7924e-14
-1.79833e-14
2.60791e-14
-1.00796e-14
1.54697e-14
1.46953e-14
-1.47346e-14
3.48385e-15
6.40985e-16
-3.04867e-14
9.99885e-15
1.21048e-14
-5.39606e-16
9.0745e-16
-8.50505e-15
2.62393e-15
0
0
-2.02013e-14
1.4278e-14
3.43955e-14
-2.24087e-14
-2.34958e-14
1.07453e-14
-3.3901e-16
1.57546e-14
2.79111e-14
9.71441e-16
-7.21891e-15
0
-4.44565e-15
1.26836e-15
5.05793e-16
-1.2053e-15
1.35277e-14
-1.35697e-14
-1.26079e-14
3.08114e-14
2.27995e-14
-2.51567e-14
5.53435e-15
2.21233e-15
-3.4476e-15
-2.34923e-14
5.77128e-16
-1.34644e-14
-9.32834e-16
9.61889e-15
-6.69512e-16
3.50517e-14
-2.7206e-15
-5.29143e-14
-2.97493e-14
-3.64017e-15
-1.79913e-14
1.34767e-14
-2.69024e-14
-2.89281e-14
1.06271e-14
8.36937e-15
2.02278e-14
-2.30451e-14
-8.09738e-16
1.55123e-15
-1.96328e-14
0
-1.28003e-14
8.26449e-17
-1.59256e-14
9.90356e-15
7.57141e-15
8.05414e-17
-3.58265e-15
1.88742e-14
-2.04332e-14
-7.51125e-15
1.74815e-14
-3.76094e-14
-2.39577e-14
-2.07507e-14
5.9039e-15
4.10295e-14
-1.09557e-15
2.03031e-14
-8.7617e-16
0
-7.18202e-15
6.41015e-15
-5.11424e-16
-4.73087e-15
2.73776e-16
1.17269e-16
-7.67574e-17
2.00907e-14
0
-1.1625e-14
2.26434e-28
7.96075e-29
2.36208e-28
1.95276e-28
-7.55463e-15
0
7.15949e-15
-3.90642e-29
-7.33614e-15
7.62745e-15
1.02609e-28
-8.62623e-15
-6.48572e-29
1.02466e-14
1.13421e-14
-7.26689e-29
-8.62892e-29
-1.35306e-15
-1.55569e-14
-2.73434e-14
0
-3.66891e-15
-1.67919e-14
-2.11324e-14
-3.14496e-14
8.07967e-15
-1.99915e-14
-9.25099e-15
-1.70631e-14
-1.56816e-14
-7.18186e-15
-1.31167e-14
-1.19507e-14
-1.07816e-14
-4.96454e-15
-4.56485e-15
-4.2681e-15
7.64247e-14
1.48756e-14
-3.98935e-14
5.40197e-28
8.08692e-15
0
1.22536e-14
-1.82369e-14
5.13239e-28
1.73397e-14
-9.40611e-15
-5.71782e-29
-3.70021e-28
7.45275e-15
-2.02644e-28
-2.09377e-14
1.90186e-28
1.89945e-14
-5.11673e-15
-4.90946e-15
2.83777e-14
2.79408e-14
2.801e-14
3.38157e-29
3.78336e-14
1.94904e-15
1.87945e-15
2.29038e-14
9.51416e-15
1.94946e-14
1.89883e-14
-5.29384e-16
6.91468e-15
7.67767e-15
2.46516e-14
6.65378e-15
2.59233e-30
2.43031e-14
1.12406e-14
1.09817e-14
-1.69968e-14
-1.3469e-14
-1.31428e-14
0
1.18265e-14
2.36179e-14
-2.26283e-14
-1.0406e-14
1.01358e-14
1.01138e-14
1.63204e-28
8.94314e-15
0
-7.85804e-15
0
6.9337e-15
-1.20356e-14
8.71787e-29
4.1794e-29
-1.0135e-29
1.72269e-14
1.2787e-14
-1.32585e-14
3.50187e-28
3.89484e-31
1.19829e-14
1.1551e-14
-1.09383e-14
0
2.05666e-14
-3.17764e-28
-1.55153e-15
1.06781e-14
7.99673e-15
-1.12935e-14
7.17383e-15
1.23428e-14
1.30403e-14
-4.45303e-29
-1.47045e-28
1.1983e-14
1.21369e-14
1.21658e-14
0
1.18689e-14
0
1.122e-14
0
0
0
9.43452e-15
0
0
8.09753e-15
0
0
0
6.90766e-15
6.81277e-15
6.84586e-15
-2.73273e-14
0
-1.15859e-14
0
-1.13896e-14
-1.11614e-14
0
0
0
-9.74559e-15
-9.33626e-15
-8.92914e-15
0
0
0
-7.54105e-15
0
-7.16075e-15
-7.10375e-15
-7.16842e-15
-4.42256e-14
-1.09585e-14
7.29745e-30
1.14607e-29
1.28344e-14
-2.33187e-14
-2.28386e-14
0
1.19542e-14
2.27921e-15
2.29028e-29
-2.06772e-14
-1.19056e-14
-8.20338e-15
1.23033e-14
-7.67342e-15
5.43143e-29
1.34157e-14
5.1373e-29
-4.82557e-29
1.32428e-14
5.35462e-29
-1.32621e-14
0
1.29517e-14
1.27569e-14
-1.2565e-14
-1.23929e-14
1.22544e-14
-2.94769e-28
-1.25578e-28
2.18821e-29
5.83083e-29
3.71212e-28
-3.15544e-29
6.14126e-29
-1.31126e-14
-5.19204e-29
-1.4724e-28
-5.25819e-29
-4.16815e-14
-1.48078e-28
-7.0617e-29
9.34045e-29
1.30335e-14
-1.28948e-14
-1.27492e-14
0
1.2501e-14
1.24229e-14
-6.04241e-29
-1.23999e-14
-1.24635e-14
8.64143e-29
1.27452e-14
-2.87736e-30
2.93394e-30
1.35028e-14
-1.47915e-28
-5.36731e-29
-9.61841e-16
-9.5135e-15
-1.31455e-14
0
1.30865e-14
2.25547e-14
-2.23436e-14
-3.14135e-14
1.26984e-14
8.96296e-15
1.17904e-28
8.56941e-15
-1.67518e-14
-8.19534e-15
-1.60727e-14
7.90811e-15
-1.32867e-14
0
-9.45256e-29
0
1.33882e-14
9.11169e-15
-1.30802e-14
2.39415e-29
3.18229e-29
9.20587e-15
3.51223e-14
-1.29188e-14
-2.57025e-14
2.15687e-14
-1.7773e-28
2.12523e-14
1.28375e-14
8.16748e-15
-1.30324e-14
-1.84034e-14
1.33377e-14
1.35135e-14
4.70362e-29
-4.76819e-29
-4.32025e-29
8.74625e-15
1.22559e-28
0
-1.21493e-28
-8.88094e-15
8.83701e-15
1.75384e-14
0
-8.58066e-15
-1.19112e-28
-8.35488e-15
1.64825e-14
8.1347e-15
1.60832e-14
-7.96905e-15
0
1.09867e-28
2.97628e-28
1.71378e-29
-1.2455e-14
4.38769e-29
-4.70147e-29
2.82405e-29
1.31158e-14
-1.31253e-14
-1.31064e-14
0
1.30398e-14
1.30149e-14
-1.91413e-28
-1.30203e-14
-1.30577e-14
0
1.31981e-14
6.25418e-30
-1.06298e-28
1.34852e-14
3.73352e-29
7.79213e-30
8.01404e-15
0
8.04103e-29
0
-2.43278e-29
-3.27829e-29
0
0
0
-1.01777e-28
9.87258e-30
-5.6244e-29
0
0
0
-5.50065e-29
0
2.87926e-28
5.51139e-29
5.56003e-29
-2.3728e-14
4.6979e-15
1.61693e-29
-2.61304e-29
1.30507e-14
-2.12198e-14
-2.12597e-14
0
1.31012e-14
4.95103e-15
-1.00289e-29
-2.1221e-14
-1.31582e-14
-8.04496e-15
1.32774e-14
-7.99697e-15
-3.59643e-29
1.34495e-14
-1.12922e-28
-1.79329e-30
4.58678e-15
-7.65691e-15
-4.95975e-15
0
2.09056e-14
1.30572e-14
-2.1093e-14
-1.30955e-14
1.30968e-14
-2.67601e-28
8.05615e-15
-2.91679e-30
-5.52158e-29
-8.02482e-15
-5.50415e-29
6.4482e-29
-1.34151e-14
7.98916e-15
8.00281e-15
8.06676e-15
-6.1876e-15
-4.12177e-15
-4.20851e-15
0
4.31168e-15
4.33721e-15
-4.35155e-15
-4.35896e-15
4.36319e-15
-5.04693e-29
3.0106e-29
8.20607e-30
1.83519e-29
4.87458e-29
1.83292e-29
4.90292e-29
-4.48009e-15
0
0
0
1.34376e-14
9.94925e-15
-6.76961e-15
2.21677e-15
-1.29638e-14
-3.56999e-15
4.27431e-14
-1.25395e-14
-1.76164e-14
0
6.28236e-15
2.93328e-14
3.02445e-14
4.17795e-14
-1.39089e-14
-2.59897e-14
-4.89125e-14
5.14559e-14
-1.94503e-14
1.89983e-14
-1.34732e-14
-2.23382e-14
-2.06453e-14
2.65555e-14
3.27024e-14
2.63866e-14
-5.58952e-15
-1.05704e-14
-1.91321e-15
1.92989e-14
-1.36715e-48
-4.21899e-15
-2.69891e-14
-3.88724e-14
2.25328e-14
-2.60445e-14
2.11103e-14
3.28152e-14
-2.86465e-15
3.90447e-14
8.08234e-16
1.91292e-14
0
-1.79986e-14
-9.18745e-15
1.31064e-14
-2.86883e-14
-3.02278e-14
-1.7377e-14
-6.45192e-14
-1.53124e-15
1.20456e-14
2.37569e-14
-7.25091e-15
-1.99844e-14
2.49189e-14
1.30615e-14
-7.36922e-16
4.39235e-14
-1.72141e-14
-1.11983e-48
-2.60975e-14
1.42411e-14
6.4189e-15
-2.63326e-14
-8.25368e-15
2.26646e-14
-1.60655e-14
2.99493e-14
6.15977e-14
-8.00745e-15
-9.20609e-15
3.02965e-16
9.72246e-15
-2.948e-14
-1.32866e-14
-9.66652e-16
-3.95121e-14
-6.21152e-14
1.73858e-14
1.79231e-14
2.49059e-14
-4.11613e-15
1.85403e-14
1.97548e-14
-3.82507e-14
4.674e-14
1.61894e-15
-6.41532e-14
-8.12809e-14
2.77367e-14
3.31662e-14
2.35779e-15
-1.21622e-14
5.46017e-14
2.01438e-14
2.41586e-14
6.9126e-14
3.4862e-14
-1.85314e-14
-4.70292e-14
-2.14597e-14
-2.55568e-15
-6.37792e-15
-3.44883e-14
5.01515e-14
1.92795e-14
3.35931e-14
3.3528e-14
2.85996e-16
-2.04119e-14
-3.3213e-14
-3.84407e-15
-5.07962e-15
-4.49897e-14
-1.5899e-14
9.43568e-15
1.07452e-14
2.85062e-14
1.56161e-15
2.96042e-14
1.17345e-14
6.17617e-15
2.83786e-16
-2.39749e-14
-1.92888e-14
-4.30862e-15
-5.1689e-17
-5.39877e-17
1.62683e-14
-5.88154e-49
9.78959e-15
9.89926e-15
4.98825e-15
9.76987e-15
3.54555e-16
9.62324e-15
-1.00041e-14
-1.96935e-14
2.2856e-14
-5.14669e-49
0
-2.94532e-14
0
-3.2295e-14
2.08151e-14
3.58543e-14
2.05747e-14
-1.31918e-14
-4.585e-14
-9.63045e-15
5.81709e-15
1.8918e-14
5.88478e-16
-1.28464e-14
-3.98269e-14
4.44755e-14
9.00294e-15
2.84731e-14
1.18352e-14
-4.6647e-16
-5.51126e-15
2.91364e-14
-2.01965e-14
2.89483e-14
-3.33418e-14
7.73876e-16
2.76103e-14
-9.01499e-15
-8.66672e-15
3.36277e-17
1.86472e-14
-3.76464e-14
-9.87565e-15
-1.6219e-14
0
-1.84812e-14
9.26529e-15
2.04666e-14
-1.31069e-14
1.6813e-14
-5.39712e-15
8.5088e-15
1.49487e-14
-1.43607e-14
-9.06965e-15
0
-8.81117e-15
8.55399e-15
-6.52963e-17
9.10517e-15
-7.6592e-15
7.83326e-15
4.29273e-15
-1.24193e-15
-5.05339e-15
6.43155e-17
-2.93916e-15
3.29316e-15
-2.37183e-15
)
;

boundaryField
{
    left
    {
        type            symmetryPlane;
    }
    right
    {
        type            calculated;
        value           nonuniform List<scalar> 
30
(
2.53251e-15
1.45972e-14
-1.92205e-17
-2.03504e-14
3.17451e-14
-2.27956e-15
-5.39606e-16
5.05793e-16
-2.97493e-14
-3.58265e-15
-7.67574e-17
-8.62892e-29
-4.2681e-15
-4.90946e-15
1.09817e-14
-1.0135e-29
-1.47045e-28
6.84586e-15
-7.16842e-15
-4.82557e-29
-5.25819e-29
-5.36731e-29
0
-4.76819e-29
1.71378e-29
7.79213e-30
5.56003e-29
-1.79329e-30
8.06676e-15
0
)
;
    }
    down
    {
        type            symmetryPlane;
    }
    up
    {
        type            calculated;
        value           nonuniform List<scalar> 
30
(
-4.71541e-18
5.97391e-18
-5.67344e-18
-2.44944e-19
3.03447e-18
-7.45136e-19
5.83845e-20
1.0226e-18
3.32938e-18
4.99403e-18
-3.05937e-18
-4.42495e-18
-4.6107e-18
0
4.95903e-18
5.12027e-18
-5.27761e-18
-5.43791e-18
5.61044e-18
-8.18957e-32
4.15698e-32
-4.29738e-33
-6.22115e-33
4.22799e-32
-7.48278e-33
5.02888e-32
-1.01818e-17
0
0
0
)
;
    }
    hole
    {
        type            calculated;
        value           nonuniform List<scalar> 
20
(
6.37245e-14
6.40932e-14
0
2.72486e-14
1.68878e-14
3.87818e-14
-4.55655e-14
-5.78918e-14
-2.07668e-14
-7.48125e-15
-6.71898e-14
-6.0508e-14
-3.41852e-14
3.42178e-14
7.70968e-15
-9.71362e-14
-4.96758e-14
-7.85034e-14
2.80806e-14
8.68412e-15
)
;
    }
    frontAndBack
    {
        type            empty;
    }
}


// ************************************************************************* //
