/*--------------------------------*- C++ -*----------------------------------*\
  =========                 |
  \\      /  F ield         | OpenFOAM: The Open Source CFD Toolbox
   \\    /   O peration     | Website:  https://openfoam.org
    \\  /    A nd           | Version:  9
     \\/     M anipulation  |
\*---------------------------------------------------------------------------*/
FoamFile
{
    format      ascii;
    class       volSymmTensorField;
    location    "100";
    object      sigma;
}
// * * * * * * * * * * * * * * * * * * * * * * * * * * * * * * * * * * * * * //

dimensions      [1 -1 -2 0 0 0 0];

internalField   nonuniform List<symmTensor> 
1000
(
(7760.24 -5589.36 -7.19189e-14 4575.77 6.0499e-14 2846.77)
(10953.7 -4256.07 -1.13457e-13 1144.12 8.1455e-14 2791.81)
(12577.9 -3362.97 1.41062e-13 -715.841 -2.3604e-14 2737.39)
(13406.8 -2728.73 2.26527e-14 -1734.3 -1.91898e-14 2693.67)
(13799.1 -2262.08 -1.31668e-13 -2281.32 -1.80935e-14 2657.95)
(13942 -1908.87 -1.00852e-15 -2552.96 7.06293e-15 2628.25)
(13939.3 -1635.21 -1.53702e-13 -2659.74 -8.50519e-14 2602.98)
(13850.9 -1418.79 9.22009e-14 -2668.31 5.86211e-14 2580.59)
(13721.6 -1240.6 -9.27215e-14 -2622.11 -3.04672e-14 2561.43)
(13550.9 -1012.9 0 -2543.29 0 2540.23)
(10759.5 -6881.19 -1.1763e-13 5152.78 1.80703e-14 3672.06)
(13190.9 -4614.2 0 1843.6 0 3469.49)
(14318.6 -3207.99 1.32793e-13 24.6511 6.67605e-14 3309.99)
(14795 -2293.61 -2.28818e-13 -1006.18 -1.22447e-13 3182.03)
(14927.4 -1677.36 -9.88846e-14 -1590.42 -5.58382e-14 3077.77)
(14873.2 -1249.79 8.50876e-14 -1909.94 5.50131e-14 2991.53)
(14717.7 -945.385 7.77995e-14 -2068.11 4.44268e-14 2919.13)
(14509.9 -722.542 1.62649e-13 -2127.48 1.00825e-13 2857.47)
(14286.7 -550.686 0 -2125.65 0 2806.39)
(14041.7 -357.549 0 -2065.1 0 2763.82)
(14077.3 -7845.04 0 5276.41 0 4466.24)
(15485.7 -4807.4 0 2374.65 0 4121.61)
(15975.5 -2982.16 1.2904e-13 755.568 6.68925e-14 3861.02)
(16024.2 -1843.04 -2.53189e-14 -198.81 1.19606e-14 3652.01)
(15859.2 -1110.1 -1.89075e-16 -771.2 1.06062e-16 3481.84)
(15591.8 -627.657 -8.20068e-14 -1113.02 -5.29629e-14 3341.26)
(15279.9 -304.214 7.17469e-14 -1311.09 4.36143e-14 3223.57)
(14955.2 -83.6388 -6.83957e-14 -1418.39 -3.96437e-14 3123.89)
(14641.9 71.6147 1.56702e-14 -1466.59 -4.14124e-15 3040.45)
(14331 229.177 -1.10495e-14 -1452.99 -1.51076e-14 2971.84)
(17569.1 -8369.96 -7.2514e-14 5008.63 6.89546e-15 5210.24)
(17760.8 -4802.24 6.10141e-14 2745.94 -1.57e-14 4732.32)
(17510.3 -2695.13 -6.2625e-14 1456.45 -3.18917e-14 4376.95)
(17080.1 -1410.45 -2.37305e-14 651.983 7.35877e-15 4092.01)
(16594.2 -606.863 8.15811e-14 132.75 5.70486e-14 3860.07)
(16105.9 -96.1538 -8.27634e-14 -209.071 -4.73416e-14 3668.51)
(15638.3 231.07 -7.34084e-14 -436.284 -4.24745e-14 3508.16)
(15201.5 440.972 -1.64633e-13 -588.004 -9.5383e-14 3372.34)
(14803.7 576.97 -4.34911e-14 -688.04 -1.23245e-14 3257.46)
(14430 702.531 4.55884e-14 -730.305 1.76218e-14 3161.47)
(21061.7 -8379.67 -4.41686e-14 4444.52 5.93071e-16 5886.06)
(19931.1 -4578.28 -1.59838e-15 2977.88 1.74179e-16 5286.68)
(18888.9 -2357.22 -1.91327e-13 2106.73 -8.56734e-14 4845.15)
(17958.2 -1022.97 1.11488e-14 1503.62 -1.65414e-15 4491.2)
(17145.8 -203.697 -1.28087e-14 1067.72 1.69808e-15 4203.11)
(16438.9 304.429 7.51962e-14 743.442 4.34238e-14 3965.16)
(15821.9 619.134 1.11789e-15 496.964 -1.13362e-15 3765.9)
(15280.8 811.315 5.96348e-14 305.934 3.71275e-14 3596.93)
(14806.9 927.136 -5.78334e-14 156.098 -1.74422e-15 3453)
(14379.1 1023.59 -4.41251e-14 55.7702 -2.40443e-14 3331.12)
(24366.4 -7840.54 -1.38876e-13 3701.56 1.09641e-14 6477.23)
(21908.6 -4130.84 -1.41526e-15 3099.12 -7.71682e-17 5771)
(20081.4 -1979.16 8.60637e-16 2686.07 2.45407e-17 5254.02)
(18662.7 -699.178 9.92672e-15 2309.58 2.624e-16 4839.76)
(17537.4 77.0659 -8.75137e-14 1973.85 -4.23804e-14 4502.59)
(16625.4 550.357 2.27304e-16 1678.75 1.05806e-16 4224.03)
(15871.5 836.278 6.74916e-14 1421.25 3.44938e-14 3990.63)
(15237.3 1004.34 1.54028e-13 1196.86 7.50576e-14 3792.51)
(14698 1099.5 2.727e-14 1001.54 1.40395e-14 3622.97)
(14226 1170.49 -5.60537e-14 845.109 -2.16326e-14 3477.95)
(27292.1 -6766 1.70308e-13 2906.41 -1.47257e-14 6968.89)
(23607.9 -3472.64 3.81737e-14 3141.72 9.73616e-15 6172.99)
(21063.1 -1571.83 6.08686e-14 3174.93 2.03852e-14 5593.39)
(19203.3 -448.061 -9.0839e-15 3022.95 -2.15525e-15 5129.14)
(17798.5 227.952 7.45047e-14 2790.3 3.12122e-14 4751.26)
(16705.9 635.311 -6.9609e-14 2529.57 -2.78409e-14 4438.95)
(15833.6 877.058 -1.52433e-15 2267.17 8.88477e-15 4177.11)
(15121.1 1015.17 -5.80215e-14 2015.75 -2.53557e-14 3954.65)
(14528.3 1089.52 7.15296e-15 1781.16 -6.8054e-15 3763.71)
(14022 1139.3 -2.74154e-14 1574.34 -1.84267e-14 3599.17)
(29658.7 -5216.69 2.98007e-13 2180.65 -2.33022e-14 7347.53)
(24952.3 -2634.74 -1.50538e-13 3136.25 -2.92444e-14 6481.98)
(21814.9 -1147.58 8.16434e-16 3555.92 4.15925e-16 5854.79)
(19592.5 -270.879 1.30125e-14 3601.29 6.99904e-15 5352.41)
(17959.4 253.957 1.56657e-13 3461.48 4.62689e-14 4943.28)
(16720.8 567.767 -2.74416e-15 3233.94 -4.619e-15 4604.94)
(15754.4 751.81 1.66919e-17 2970.36 -2.16715e-16 4321.1)
(14980.8 855.038 -5.41325e-14 2698.24 -2.2304e-14 4079.79)
(14347.6 908.81 -2.50697e-15 2432.08 3.60346e-15 3872.24)
(13816.8 941.827 2.30338e-15 2183.82 6.46499e-15 3692.44)
(31306 -3296.63 1.75449e-13 1627.23 -2.09589e-14 7599.99)
(25878.4 -1670.43 -1.60531e-13 3110.03 -2.8485e-14 6689.64)
(22321.4 -728.672 1.19226e-14 3818.38 1.26094e-14 6032.26)
(19841.3 -172.347 1.19263e-14 4012.64 1.33214e-14 5504.76)
(18046.8 160.415 -4.78742e-15 3943.14 -7.08773e-15 5074.59)
(16705.9 358.973 6.71568e-14 3741.12 8.36168e-15 4718.54)
(15674.5 475.207 -1.92677e-16 3477.38 5.90854e-15 4419.66)
(14859.6 540.407 1.08501e-13 3190.5 2.27363e-14 4165.41)
(14200 574.608 2.45354e-14 2901.28 5.21408e-15 3946.46)
(13654.1 595.391 1.8867e-14 2622.57 -1.20307e-14 3756.16)
(32151.7 -1147.58 1.89375e-13 1334.46 -2.93086e-14 7727.58)
(26367.1 -684.597 -5.77011e-15 3109.44 -2.10543e-14 6802.28)
(22554.7 -387.977 6.24264e-14 3959.52 1.65331e-14 6118.67)
(19919.7 -204.042 2.77048e-15 4222.68 1.00138e-14 5571.33)
(18032.1 -89.5383 -7.07965e-17 4183.14 -3.3469e-16 5126.6)
(16634.9 -17.5181 6.71287e-14 3990.21 -2.95672e-15 4759.64)
(15569.4 28.0315 -4.29285e-17 3724.07 6.50526e-15 4452.35)
(14734.6 56.87 5.32653e-14 3428.2 2.37419e-15 4191.41)
(14064.2 75.4172 1.04793e-15 3125.72 -8.15637e-15 3966.91)
(13515.4 89.0357 -3.65768e-16 2828.42 -5.09695e-15 3771.66)
(-480.541 430.527 6.55628e-15 -11954.1 -6.7036e-14 -2869.53)
(-495.406 162.613 8.22714e-15 -7820.99 5.22209e-15 -1919.17)
(-104.956 -43.1929 -6.8491e-15 -5236.34 -1.62409e-14 -1232.61)
(606.818 -166.658 0 -3562.23 0 -682.019)
(1429.8 -233.417 -1.32113e-14 -2446.62 -1.76439e-15 -234.651)
(2261.92 -266.208 -4.32928e-15 -1678.88 -1.0354e-14 134.548)
(3056.37 -279.179 2.27828e-14 -1132.78 5.46917e-16 443.906)
(3793.99 -280.703 1.04381e-14 -730.789 -7.1703e-15 706.893)
(4469.44 -275.951 1.94764e-14 -424.11 3.21051e-15 933.539)
(5083.9 -269.706 5.93866e-15 -181.622 8.91588e-15 1131.29)
(-571.915 1054.3 -3.62396e-15 -11530.5 -6.1784e-14 -2792.86)
(-334.452 -186.819 1.82759e-14 -7544.61 3.19333e-14 -1818.25)
(177.476 -843.849 -1.70142e-14 -5176.77 -2.06792e-14 -1153.68)
(943.21 -1179.08 -3.98989e-15 -3637.4 -3.76404e-15 -621.737)
(1781.25 -1335.62 0 -2596.91 0 -188.229)
(2608.89 -1390.78 -2.0335e-14 -1869.58 -1.18707e-14 170.609)
(3389.07 -1388.67 2.31747e-14 -1343.85 1.62872e-15 471.975)
(4107.36 -1354.95 1.01019e-16 -950.137 1.94797e-18 728.59)
(4760.17 -1304.9 -7.04133e-14 -643.838 3.93067e-16 949.922)
(5346.66 -1255.07 9.04627e-15 -395.61 4.56431e-15 1142.55)
(-655.864 1523.86 -4.57015e-15 -10343.3 -3.64457e-14 -2538.26)
(30.0932 -449.948 2.65222e-14 -7013.32 3.79119e-14 -1611.51)
(769.026 -1471.37 2.37437e-14 -4999.98 1.62858e-14 -976.375)
(1637.09 -1979.53 -2.9959e-15 -3670.01 -6.04859e-15 -469.135)
(2508.1 -2209.49 0 -2753.75 0 -56.69)
(3330.12 -2283.82 -3.52792e-14 -2098.58 -1.46296e-14 284.201)
(4083.81 -2270.61 -4.77476e-14 -1612.96 -1.84219e-14 570.198)
(4764.73 -2209.13 4.18561e-14 -1239.52 1.10919e-14 813.509)
(5374.61 -2122.63 2.0428e-17 -941.412 -1.8831e-19 1023.05)
(5912.6 -2037.82 -4.24672e-14 -694.297 -8.07516e-15 1204.22)
(-687.133 1716.44 1.93022e-14 -8634.94 4.23792e-14 -2151.25)
(607.086 -743.934 1.80491e-15 -6239.05 -1.77766e-14 -1299.68)
(1642.1 -2010.41 3.25966e-14 -4734.04 1.78628e-14 -713.525)
(2634.91 -2630.81 0 -3696.99 0 -245.095)
(3540.87 -2903.01 -4.45132e-14 -2953.22 -1.12577e-14 135.612)
(4348.96 -2982.25 2.21598e-14 -2398.95 9.98333e-15 450.004)
(5062.33 -2953.85 -1.98246e-14 -1970.42 -3.28232e-15 713.519)
(5689.42 -2866.5 -3.91506e-14 -1627.06 -1.66657e-15 937.468)
(6238.97 -2748.96 1.71313e-14 -1342.72 6.10707e-15 1129.9)
(6709.41 -2637.49 3.251e-14 -1100.02 1.10327e-14 1294.48)
(-583.79 1556.05 -3.94125e-14 -6567.92 -3.80904e-15 -1650.39)
(1400.5 -1107.79 -5.4273e-14 -5270.18 1.38474e-14 -893.003)
(2766.93 -2470.17 -4.03765e-14 -4376.78 -2.13645e-14 -371.505)
(3891.21 -3125.31 -2.09994e-16 -3693.15 2.03471e-14 45.7073)
(4825.06 -3400.19 8.80622e-17 -3157.42 1.88124e-16 384.841)
(5606.22 -3465.87 4.62732e-14 -2725.51 1.47325e-14 664.78)
(6263.97 -3416.13 2.52535e-14 -2367.38 9.52692e-15 899.213)
(6821.3 -3304.08 0 -2062.46 0 1098.19)
(7294.64 -3161.06 -5.36386e-14 -1797.27 -7.01952e-15 1268.62)
(7681.02 -3031.92 1.7429e-14 -1562.82 6.47057e-15 1411.89)
(-245.808 1011.78 -1.89958e-14 -4306.31 -1.2652e-13 -1050.49)
(2420.41 -1552.36 1.78717e-14 -4168.91 -4.55247e-14 -403.5)
(4106.93 -2846.08 -4.16691e-14 -3931.24 -3.98351e-14 40.5435)
(5347.21 -3449.01 2.02571e-15 -3630.98 -1.08695e-14 396.053)
(6291.71 -3682.23 7.62707e-14 -3322.99 3.1568e-14 685.09)
(7028.85 -3713.99 -5.81807e-14 -3026.62 -1.88675e-14 923.592)
(7614.95 -3636.38 1.08285e-16 -2748.03 2.83011e-17 1123.14)
(8087.88 -3501.2 -6.66399e-14 -2488.22 -2.19641e-14 1292.23)
(8471.66 -3338.92 1.77499e-17 -2247.43 -5.96157e-19 1436.36)
(8761.52 -3201.76 -5.52114e-14 -2026.19 -2.11255e-14 1554.31)
(427.625 98.0525 2.64457e-14 -2017.17 -4.85729e-14 -366.818)
(3676.73 -2069.74 5.39459e-16 -3001.68 -1.00314e-15 155.78)
(5622.51 -3132.86 4.67867e-16 -3404.43 -9.40945e-16 511.863)
(6938.22 -3597.05 -9.10905e-14 -3484.22 -5.62757e-14 797.077)
(7864.64 -3744.31 6.31064e-17 -3405.75 1.5656e-14 1028.98)
(8536.47 -3721.94 -7.61335e-14 -3248.73 -3.27984e-14 1220.25)
(9034.65 -3610.22 1.36766e-13 -3054.23 5.76618e-14 1380.1)
(9410.43 -3453.86 7.56399e-17 -2844.3 4.14909e-18 1515.26)
(9694.4 -3279.06 1.43921e-14 -2632.88 1.21359e-14 1629.58)
(9879.81 -3143.65 -4.15996e-14 -2430.8 -1.72417e-14 1719)
(1523.22 -1127.52 1.22233e-13 139.27 -3.19095e-14 383.652)
(5172.72 -2637.2 3.3911e-14 -1833.38 -4.86995e-14 770.617)
(7271.65 -3327.12 -1.20445e-14 -2806.15 1.83831e-14 1030.5)
(8598.84 -3576.44 5.82254e-15 -3231.13 -1.12189e-14 1238.7)
(9467.55 -3598.8 -1.37691e-16 -3366.31 7.11319e-16 1407.98)
(10049.1 -3504.62 7.6297e-14 -3343.05 2.81098e-14 1547.54)
(10443.4 -3353.41 -1.26156e-14 -3232.52 -4.44455e-15 1664.05)
(10711.9 -3177.88 1.83581e-14 -3075.12 8.99189e-16 1762.33)
(10889.5 -2997.2 1.30696e-14 -2897.23 -8.8117e-16 1844.36)
(10966.8 -2872.82 4.2523e-14 -2720.19 9.91687e-15 1903.07)
(3101.34 -2569.53 4.53941e-14 2022.69 8.12752e-14 1182.47)
(6900.78 -3220.13 3.31245e-15 -722.643 1.09401e-13 1425.72)
(9010.44 -3428.3 7.68726e-16 -2148.64 -9.21325e-16 1583.49)
(10266.6 -3405.45 1.17363e-13 -2857.08 4.21887e-14 1709.89)
(11029.6 -3274.17 9.62767e-14 -3174.72 4.82512e-14 1812.66)
(11493.3 -3095.66 8.56884e-14 -3271.33 4.19761e-14 1897.38)
(11769.2 -2901.47 1.14758e-14 -3240.52 4.4708e-15 1968.16)
(11924.1 -2708.15 -1.03816e-13 -3136.39 -5.02206e-14 2027.93)
(11995.1 -2526.18 3.94329e-14 -2995.02 3.20837e-14 2076.93)
(11968.3 -2421.19 2.81409e-14 -2847.07 1.35255e-14 2104.91)
(5186.43 -4103.89 -8.31475e-15 3524.43 8.41859e-15 2010.2)
(8839.87 -3775.58 -2.65144e-14 281.753 2.40592e-14 2104.99)
(10794.1 -3438.68 -6.21871e-14 -1446.36 -3.41518e-14 2157.16)
(11885.2 -3111.61 2.52912e-13 -2356.52 8.5486e-14 2198.92)
(12489.4 -2811.98 1.23757e-16 -2813.84 -2.0245e-16 2232.83)
(12806.9 -2544.24 -8.79692e-14 -3010.16 -4.64778e-14 2260.8)
(12951 -2307.55 -6.52242e-14 -3052.16 -3.54736e-14 2284.34)
(12989.6 -2098.86 -3.65686e-14 -3001.29 -1.83119e-14 2304.99)
(12963.7 -1915.17 -3.21234e-14 -2898.08 3.56978e-15 2322.84)
(12871.8 -1824.44 6.64418e-14 -2786.7 6.68982e-15 2327.33)
(5625.48 -250.945 4.87654e-14 12.0404 3.09821e-15 1300.97)
(6118.18 -222.694 3.75767e-15 193.277 5.64705e-15 1456.49)
(6561.52 -199.814 -7.83776e-14 356.17 2.44823e-15 1596.39)
(6963.26 -179.426 -2.80575e-14 507.76 -1.24152e-16 1724.08)
(7328.33 -161.027 -4.67336e-15 653.594 -8.09515e-15 1841.98)
(7660.84 -144.317 0 798.128 0 1952.07)
(7964.26 -129.063 0 944.967 0 2055.98)
(8241.55 -115.042 3.18199e-14 1097.13 2.50526e-16 2155.08)
(8495.2 -102.032 1.39079e-15 1257.26 2.30687e-15 2250.57)
(8727.23 -89.8059 6.5939e-14 1427.85 6.88482e-16 2343.48)
(8939.24 -78.1333 3.76933e-15 1611.35 5.80434e-15 2434.75)
(9132.39 -66.7776 -1.42683e-15 1810.29 -1.69354e-15 2525.23)
(9307.4 -55.4907 3.35314e-15 2027.42 4.2004e-15 2615.73)
(9464.56 -44.0046 -1.03056e-13 2265.79 -1.79645e-15 2707)
(9603.62 -32.0251 3.34307e-14 2528.83 2.37146e-17 2799.8)
(9723.82 -19.2523 1.22989e-16 2820.43 2.76761e-18 2894.83)
(9823.82 -5.58088 -3.41726e-14 3144.82 -8.73971e-16 2992.76)
(9901.89 7.99827 3.37506e-14 3505.75 9.68096e-16 3094.07)
(9956.93 16.5555 -6.49282e-14 3903.36 -7.16602e-15 3198.53)
(10016.2 6.6216 -3.33982e-14 4333.06 2.53251e-15 3311.36)
(5847.27 -1162.66 7.90142e-14 -183.824 3.82066e-15 1306.95)
(6303.18 -1038.75 1.1225e-14 26.1362 6.40191e-15 1460.61)
(6711.79 -937.442 -2.2324e-14 209.802 2.68566e-15 1597.29)
(7086.22 -847.369 9.6777e-14 378.798 7.44294e-15 1722.7)
(7429.1 -767.071 -2.40284e-15 539.236 -2.86017e-15 1838.85)
(7743.31 -695.376 -9.67122e-14 696.011 -4.57819e-15 1947.54)
(8031.49 -631.174 9.39095e-15 853.046 5.58874e-15 2050.28)
(8296.01 -573.385 0 1013.61 0 2148.38)
(8538.88 -520.972 3.46614e-15 1180.58 2.47226e-15 2242.95)
(8761.79 -472.934 7.96202e-15 1356.6 4.67651e-15 2335.01)
(8966.04 -428.304 5.03695e-14 1544.25 1.1676e-14 2425.45)
(9152.62 -386.129 7.15924e-16 1746.17 4.76471e-17 2515.1)
(9322.1 -345.457 -2.89761e-14 1965.15 1.46801e-15 2604.75)
(9474.72 -305.311 3.41298e-14 2204.27 1.76593e-15 2695.15)
(9610.31 -264.689 3.47013e-14 2466.93 2.04207e-15 2787.06)
(9728.36 -222.588 -3.41095e-14 2756.99 -2.2718e-15 2881.23)
(9828 -178.107 -3.40635e-14 3078.92 -2.57926e-15 2978.52)
(9907.86 -130.475 -6.73222e-14 3438.5 -5.80046e-15 3079.93)
(9964.49 -78.1148 -6.03482e-16 3845.24 -1.78054e-17 3186.86)
(10024 -15.0903 1.99094e-14 4331.5 1.45972e-14 3312.81)
(6342.18 -1890.58 2.68672e-14 -467.403 1.2429e-15 1355.72)
(6726.62 -1699.16 1.08003e-14 -222.282 3.97412e-15 1501)
(7063.19 -1541.17 -8.66787e-14 -11.4461 -2.85847e-15 1627.33)
(7378.12 -1399.1 1.80907e-14 182.049 -2.89594e-15 1744.65)
(7671.53 -1271.23 1.07305e-13 363.985 9.70666e-15 1854.35)
(7944.46 -1156.22 -1.00719e-13 539.279 -6.39668e-15 1957.79)
(8198.04 -1052.63 -3.40075e-14 712.035 -1.34717e-15 2056.17)
(8433.43 -958.998 6.48405e-14 885.758 2.66309e-15 2150.58)
(8651.68 -873.798 -5.15638e-14 1063.55 2.74664e-15 2241.98)
(8853.7 -795.53 -6.81142e-14 1248.25 -3.63591e-15 2331.22)
(9040.2 -722.702 6.54219e-14 1442.63 3.77507e-15 2419.12)
(9211.7 -653.829 1.00647e-13 1649.43 6.65153e-15 2506.42)
(9368.43 -587.413 7.37333e-16 1871.54 8.07413e-17 2593.84)
(9510.39 -521.92 -3.40711e-14 2112.07 -2.88677e-15 2682.11)
(9637.24 -455.763 3.34882e-14 2374.46 3.20237e-15 2771.93)
(9748.31 -387.28 1.17771e-16 2662.68 1.28222e-17 2864.07)
(9842.39 -314.624 -3.38259e-14 2981.54 -4.19403e-15 2959.37)
(9917.29 -235.264 2.92686e-14 3337.4 5.36249e-15 3058.77)
(9968.74 -144.218 1.41794e-14 3739.32 1.23747e-14 3163.4)
(10023.5 -28.7633 2.50249e-17 4212.67 -1.92205e-17 3285.28)
(7043.78 -2453.09 0 -855.714 0 1428.02)
(7329.83 -2220.77 1.35125e-14 -567.946 4.90366e-15 1560.43)
(7568.34 -2027.75 3.08538e-14 -322.447 1.78565e-15 1672.13)
(7800.67 -1851.75 3.51179e-14 -96.9795 2.07006e-15 1777.77)
(8024.47 -1691.18 0 113.743 0 1878.05)
(8238.66 -1545.01 -2.05507e-14 314.361 2.41078e-15 1973.78)
(8442.61 -1412 -5.2033e-14 508.965 -9.25473e-15 2065.75)
(8635.94 -1290.72 -6.54045e-14 701.204 -3.90518e-15 2154.72)
(8818.43 -1179.55 -1.2019e-14 894.385 -3.7296e-15 2241.42)
(8989.96 -1076.79 5.01619e-14 1091.58 -1.27179e-15 2326.51)
(9150.42 -980.662 1.76673e-14 1295.71 -2.90418e-15 2410.64)
(9299.63 -889.346 1.7493e-14 1509.68 5.42122e-15 2494.46)
(9437.31 -800.953 -1.09344e-14 1736.48 3.34781e-15 2578.57)
(9563.02 -713.5 2.62221e-14 1979.26 1.9712e-15 2663.6)
(9676.08 -624.872 2.72711e-14 2241.51 3.01436e-15 2750.21)
(9775.44 -532.725 -3.35164e-14 2527.21 -4.97887e-15 2839.07)
(9859.56 -434.257 -1.04888e-16 2841.1 -1.77623e-17 2930.92)
(9926.08 -325.534 9.37192e-14 3189.03 1.95971e-14 3026.56)
(9971.3 -199.521 -2.66248e-14 3578.23 -8.37459e-15 3126.81)
(10022.3 -39.7445 -3.5787e-14 4030.81 -2.03504e-14 3243.03)
(7904.32 -2829.56 3.69127e-14 -1302.16 -4.1522e-15 1523.57)
(8071.25 -2586.8 -1.87924e-14 -974.408 -6.48136e-15 1637.73)
(8194.26 -2383.05 -8.37922e-14 -693.082 -1.19472e-14 1731.04)
(8327.74 -2193.6 4.46085e-14 -433.598 7.57344e-15 1821.72)
(8467.35 -2017.36 1.13451e-13 -191.179 2.09512e-14 1909.89)
(8609.79 -1854.12 -3.46133e-14 38.1144 -2.67378e-15 1995.67)
(8752.53 -1703.34 0 258.022 0 2079.36)
(8893.56 -1564.08 3.31072e-14 472.097 2.65155e-15 2161.31)
(9031.3 -1435.01 -3.37434e-14 683.695 -1.19416e-14 2241.92)
(9164.43 -1314.55 -4.52424e-14 895.997 -7.04199e-15 2321.64)
(9291.87 -1200.93 -4.4007e-14 1112.06 2.76644e-16 2400.91)
(9412.64 -1092.2 -5.90277e-14 1334.89 -4.96971e-15 2480.2)
(9525.82 -986.252 6.77272e-14 1567.51 3.8649e-15 2560)
(9630.43 -880.781 9.1224e-14 1813.1 1.21376e-14 2640.81)
(9725.38 -773.23 9.04568e-15 2075.07 2.01835e-15 2723.18)
(9809.32 -660.656 -2.44659e-14 2357.22 -4.61373e-15 2807.66)
(9880.53 -539.466 1.59674e-14 2663.9 1.75771e-15 2894.87)
(9936.83 -404.696 7.60988e-15 3000.16 2.15948e-16 2985.46)
(9974.99 -247.877 7.76006e-14 3371.81 1.68308e-14 3080.03)
(10021.2 -49.4549 2.98642e-14 3799.89 3.17451e-14 3189.49)
(8868.35 -3001.34 3.25343e-14 -1754.99 2.95156e-15 1641.54)
(8904.17 -2781.14 1.98387e-15 -1401.57 4.05778e-16 1731.37)
(8904.25 -2592.48 -5.4677e-14 -1090.36 -1.16525e-14 1803.21)
(8930.34 -2411.62 -1.40926e-13 -800.715 -2.51249e-14 1876.07)
(8977.3 -2238.22 4.73973e-14 -528.4 9.10918e-15 1949.75)
(9039.8 -2073.42 7.02564e-14 -270.797 7.14737e-15 2023.62)
(9113.61 -1917.84 -3.38605e-14 -25.0357 -3.36494e-15 2097.36)
(9195.19 -1771.44 1.72317e-14 211.948 -2.0414e-15 2170.88)
(9281.59 -1633.58 7.94783e-14 443.274 1.89264e-14 2244.2)
(9370.35 -1503.15 -9.79268e-14 672.03 -1.11906e-14 2317.47)
(9459.36 -1378.63 -3.59985e-14 901.248 -4.71778e-15 2390.91)
(9546.82 -1258.21 1.40692e-13 1133.92 1.51631e-14 2464.79)
(9631.11 -1139.75 -2.37099e-14 1373.02 -1.19151e-14 2539.41)
(9710.7 -1020.77 -9.81253e-14 1621.64 -1.68032e-14 2615.16)
(9784.11 -898.436 -2.23062e-14 1882.96 -3.77505e-15 2692.4)
(9849.72 -769.348 -8.62509e-14 2160.47 -1.84595e-14 2771.58)
(9905.77 -629.323 -1.28039e-15 2457.94 -2.6026e-16 2853.16)
(9950.21 -472.638 1.04533e-13 2779.6 2.7957e-14 2937.65)
(9980.18 -289.663 2.33661e-14 3130.22 1.05259e-14 3025.47)
(10020.3 -58.0501 5.15844e-15 3529.49 -2.27956e-15 3126.86)
(9875.11 -2963.44 -3.50062e-14 -2160.1 -4.56029e-15 1780.39)
(9777.95 -2797.87 3.59424e-14 -1807.27 6.631e-15 1839.39)
(9658.41 -2649.04 2.53155e-14 -1479.55 9.46148e-15 1887.43)
(9576.86 -2498.46 -3.64864e-14 -1169.73 -5.37892e-15 1940.11)
(9529.24 -2346.53 -4.05354e-14 -874.192 -1.52818e-14 1997.32)
(9508.81 -2196.07 1.9226e-14 -592.518 7.13311e-15 2057.61)
(9510.09 -2049.18 7.44212e-14 -323.409 1.84305e-14 2120)
(9528.37 -1907.07 -1.22525e-13 -64.8268 -2.7924e-14 2183.89)
(9559.54 -1770.11 -7.55327e-14 185.696 -1.79833e-14 2248.9)
(9600.1 -1637.95 1.16364e-13 430.851 2.60791e-14 2314.84)
(9647.04 -1509.63 -2.9885e-14 673.406 -1.00796e-14 2381.64)
(9697.74 -1383.69 9.68194e-14 916.156 1.54697e-14 2449.36)
(9749.94 -1258.18 6.20332e-14 1161.89 1.46953e-14 2518.12)
(9801.6 -1130.64 -8.18914e-14 1413.44 -1.47346e-14 2588.09)
(9850.85 -998.092 2.37403e-14 1673.65 3.48385e-15 2659.5)
(9895.88 -856.89 2.68694e-15 1945.51 6.40985e-16 2732.63)
(9934.89 -702.441 -1.15974e-13 2232.14 -3.04867e-14 2807.78)
(9965.99 -528.442 3.10789e-14 2536.91 9.99885e-15 2885.28)
(9986.62 -324.31 4.09501e-14 2863.5 1.21048e-14 2965.41)
(10019.2 -65.365 3.11108e-15 3229.25 -5.39606e-16 3057.33)
(10863.5 -2726.12 2.96287e-15 -2466.49 9.0745e-16 1937.76)
(10641.9 -2641.89 -3.7262e-14 -2150.92 -8.50505e-15 1959.46)
(10415.9 -2553.69 -1.3466e-14 -1826.81 2.62393e-15 1982.09)
(10234.5 -2452.73 0 -1512.26 0 2012.81)
(10096.8 -2339.63 0 -1204.71 0 2052.01)
(9995.62 -2218.82 -9.44443e-14 -906.94 -2.02013e-14 2097.39)
(9925.01 -2093.94 9.69645e-14 -619.997 1.4278e-14 2147.31)
(9879.54 -1967.62 1.95175e-13 -343.536 3.43955e-14 2200.62)
(9854.36 -1841.45 -1.53645e-13 -76.2228 -2.24087e-14 2256.49)
(9845.18 -1716.07 -1.22081e-13 183.814 -2.34958e-14 2314.38)
(9848.26 -1591.31 6.41614e-14 438.8 1.07453e-14 2373.94)
(9860.32 -1466.29 1.33747e-14 691.068 -3.3901e-16 2434.94)
(9878.52 -1339.42 4.87294e-14 943.047 1.57546e-14 2497.28)
(9900.36 -1208.48 1.09099e-13 1197.12 2.79111e-14 2560.96)
(9923.66 -1070.55 3.6617e-15 1455.68 9.71441e-16 2626)
(9946.47 -921.897 -2.28149e-14 1721.05 -7.21891e-15 2692.5)
(9967.01 -757.7 0 1995.56 0 2760.59)
(9983.57 -571.241 -2.50637e-14 2281.55 -4.44565e-15 2830.41)
(9994.05 -351.207 1.11464e-14 2581.53 1.26836e-15 2902.06)
(10018 -71.2098 1.05734e-14 2909.26 5.05793e-16 2983.21)
(11780.8 -2308.08 -3.46425e-15 -2627.45 -1.2053e-15 2112.31)
(11453.2 -2321.03 2.94032e-14 -2389.1 1.35277e-14 2091.72)
(11140.1 -2308.67 -3.14929e-14 -2092.96 -1.35697e-14 2087.8)
(10872.8 -2273.29 -3.02231e-14 -1793.1 -1.26079e-14 2095.32)
(10654.9 -2214.63 9.41323e-14 -1489.01 3.08114e-14 2115.21)
(10479.9 -2138.05 5.88024e-14 -1187.21 2.27995e-14 2144.46)
(10341.8 -2048.4 -8.18727e-14 -891.682 -2.51567e-14 2180.8)
(10235.3 -1949.6 -2.30271e-14 -604.264 5.53435e-15 2222.55)
(10155.2 -1844.5 1.94444e-14 -325.313 2.21233e-15 2268.44)
(10096.9 -1734.87 2.47113e-14 -54.1466 -3.4476e-15 2317.57)
(10056.2 -1621.49 -6.58064e-14 210.511 -2.34923e-14 2369.23)
(10029.2 -1504.21 2.09173e-15 470.311 5.77128e-16 2422.96)
(10012.7 -1382.02 -7.27576e-14 727.027 -1.34644e-14 2478.4)
(10003.9 -1253.12 -3.25571e-15 982.477 -9.32834e-16 2535.32)
(10000.3 -1114.84 3.10454e-14 1238.36 9.61889e-15 2593.54)
(9999.9 -963.561 -2.31725e-15 1496.22 -6.69512e-16 2652.95)
(10001 -794.449 1.0158e-13 1757.36 3.50517e-14 2713.46)
(10002.2 -600.566 -1.27662e-14 2022.91 -2.7206e-15 2775.02)
(10002.1 -370.094 -1.28729e-13 2293.8 -5.29143e-14 2837.5)
(10016.6 -75.5287 -2.33666e-14 2579.45 -2.97493e-14 2906.78)
(12609.4 -1724.48 -4.92664e-15 -2610.72 -3.64017e-15 2307.39)
(12201.1 -1839.03 -3.29199e-14 -2453.33 -1.79913e-14 2249.48)
(11809.4 -1919.15 4.04884e-14 -2213.6 1.34767e-14 2214.41)
(11465 -1965.49 -1.12706e-13 -1958.08 -2.69024e-14 2193.91)
(11173.9 -1977.39 -1.08961e-13 -1684.59 -2.89281e-14 2189.83)
(10930.7 -1960.09 7.06783e-14 -1400.89 1.06271e-14 2199.18)
(10730.1 -1919.22 7.51246e-14 -1113.81 8.36937e-15 2219.15)
(10566.8 -1859.85 9.61541e-14 -828.133 2.02278e-14 2247.39)
(10435.6 -1786.11 -8.20198e-14 -546.761 -2.30451e-14 2282.03)
(10331.3 -1701.05 1.91151e-17 -271.073 -8.09738e-16 2321.59)
(10249.5 -1606.56 -1.95068e-15 -1.39975 1.55123e-15 2364.94)
(10185.9 -1503.45 -8.79643e-14 262.64 -1.96328e-14 2411.2)
(10136.8 -1391.51 0 521.781 0 2459.68)
(10099.2 -1269.53 -2.82628e-14 776.905 -1.28003e-14 2509.87)
(10070.2 -1135.31 -1.15577e-16 1028.79 8.26449e-17 2561.31)
(10047.8 -985.586 -5.12135e-14 1277.97 -1.59256e-14 2613.64)
(10030.4 -815.733 2.83629e-14 1524.51 9.90356e-15 2666.51)
(10016.9 -618.901 3.06777e-14 1767.94 7.57141e-15 2719.59)
(10007.1 -382.903 1.11176e-15 2007.08 8.05414e-17 2772.5)
(10013.9 -78.8619 -8.04518e-15 2244.92 -3.58265e-15 2828.96)
(13185.3 -1220.88 5.10811e-14 -2547.07 1.88742e-14 2454.98)
(12735.6 -1393.99 -3.47737e-14 -2333.96 -2.04332e-14 2400.37)
(12287.4 -1548.54 -2.28895e-14 -2164.68 -7.51125e-15 2336.01)
(11907.3 -1651.73 3.1614e-14 -1953.01 1.74815e-14 2297.15)
(11579.7 -1713.4 -4.82086e-14 -1713.91 -3.76094e-14 2276.72)
(11298.6 -1740.47 -3.45118e-14 -1457.3 -2.39577e-14 2271.07)
(11059.4 -1738.82 -5.75315e-14 -1191.15 -2.07507e-14 2277.28)
(10857.5 -1713.58 -4.05433e-15 -921.455 5.9039e-15 2292.94)
(10688.6 -1669.09 1.02035e-13 -652.281 4.10295e-14 2316.07)
(10548.3 -1608.67 -5.58067e-15 -386.205 -1.09557e-15 2345.09)
(10432.4 -1534.61 4.86379e-14 -124.63 2.03031e-14 2378.71)
(10337 -1448.17 -4.15892e-15 131.763 -8.7617e-16 2415.86)
(10258.6 -1349.59 0 382.764 0 2455.7)
(10194.2 -1238.12 -1.87572e-14 628.278 -7.18202e-15 2497.49)
(10141.2 -1112.03 1.78341e-14 868.154 6.41015e-15 2540.61)
(10097.6 -968.487 -1.52847e-15 1101.88 -5.11424e-16 2584.49)
(10062.1 -803.39 -9.66483e-15 1328.41 -4.73087e-15 2628.58)
(10034.2 -610.448 2.98587e-16 1545.83 2.73776e-16 2672.31)
(10014.4 -378.153 -2.95067e-16 1750.96 1.17269e-16 2715.08)
(10012 -78.5314 -2.91283e-16 1940.21 -7.67574e-17 2758.21)
(13101.1 -862.569 4.2981e-14 -2326.41 2.00907e-14 2486.47)
(12794.3 -1056.26 0 -2224.3 0 2439.23)
(12409.6 -1237.75 -3.48016e-14 -2101.68 -1.1625e-14 2378.76)
(12063.2 -1373.46 6.37776e-28 -1924.53 2.26434e-28 2339.7)
(11753.6 -1466.36 7.68208e-29 -1712.99 7.96075e-29 2317.07)
(11479.6 -1522.86 4.81687e-28 -1478.99 2.36208e-28 2307.83)
(11239.1 -1548.72 5.5866e-28 -1231.36 1.95276e-28 2309.49)
(11029.8 -1548.81 -3.02184e-14 -976.815 -7.55463e-15 2319.91)
(10848.8 -1527.18 0 -720.221 0 2337.36)
(10693.2 -1487.01 2.89102e-14 -464.954 7.15949e-15 2360.36)
(10559.9 -1430.58 -2.26278e-28 -213.264 -3.90642e-29 2387.69)
(10446.2 -1359.27 -2.7852e-14 33.3777 -7.33614e-15 2418.35)
(10349.1 -1273.56 2.74004e-14 273.949 7.62745e-15 2451.47)
(10266.4 -1173.02 2.97054e-28 507.59 1.02609e-28 2486.3)
(10196 -1056.34 -2.66239e-14 733.329 -8.62623e-15 2522.15)
(10136.5 -921.23 -1.82365e-28 949.827 -6.48572e-29 2558.38)
(10087.1 -764.21 2.59956e-14 1155.09 1.02466e-14 2594.34)
(10047.7 -579.878 2.57377e-14 1346.11 1.13421e-14 2629.35)
(10019.9 -358.162 -1.19734e-28 1518.15 -7.26689e-29 2662.62)
(10010.2 -74.117 -3.9814e-29 1664.29 -8.62892e-29 2694.12)
(13048.1 -516.283 1.83723e-14 -2020.34 -1.35306e-15 2544.87)
(12805 -719.046 -1.84109e-14 -1987.67 -1.55569e-14 2496.3)
(12478.1 -916.631 -5.34215e-14 -1923.49 -2.73434e-14 2435.67)
(12166.7 -1076.79 0 -1795.42 0 2393.37)
(11876.9 -1197.25 1.45145e-14 -1624.5 -3.66891e-15 2365.94)
(11612.3 -1281.65 -4.46953e-15 -1424.73 -1.67919e-14 2350.97)
(11373.6 -1334.54 -4.9387e-14 -1206.16 -2.11324e-14 2346.32)
(11160.4 -1360.11 -6.61768e-14 -976.329 -3.14496e-14 2350.16)
(10971.3 -1361.97 2.98735e-14 -740.87 8.07967e-15 2360.88)
(10804.7 -1343.04 -3.45104e-14 -503.984 -1.99915e-14 2377.1)
(10658.6 -1305.52 -1.69891e-14 -268.768 -9.25099e-15 2397.65)
(10530.7 -1250.84 -3.34757e-14 -37.5509 -1.70631e-14 2421.5)
(10419.1 -1179.66 -3.301e-14 187.798 -1.56816e-14 2447.76)
(10322.1 -1091.89 -1.62915e-14 405.578 -7.18186e-15 2475.61)
(10238 -986.61 -3.21926e-14 613.983 -1.31167e-14 2504.3)
(10165.9 -862.081 -3.18326e-14 810.815 -1.19507e-14 2533.1)
(10105.6 -715.533 -2.61747e-14 993.175 -1.07816e-14 2561.25)
(10057.5 -542.53 -1.55804e-14 1157.04 -4.96454e-15 2587.97)
(10023.6 -334.502 -1.54087e-14 1296.64 -4.56485e-15 2612.36)
(10008.5 -69.1133 -5.07679e-15 1403.28 -4.2681e-15 2633.48)
(12922.3 -227.514 1.60491e-13 -1745.32 7.64247e-14 2579.3)
(12727.6 -425.312 1.6606e-14 -1755.6 1.48756e-14 2532.01)
(12453.8 -625.553 -8.62379e-14 -1732.74 -3.98935e-14 2474.09)
(12182.9 -797.889 1.31932e-27 -1646.32 5.40197e-28 2431.52)
(11921.5 -936.419 4.87224e-14 -1513.13 8.08692e-15 2401.92)
(11675.2 -1041.77 0 -1346.66 0 2383.5)
(11447 -1116.59 1.72964e-14 -1157.32 1.22536e-14 2374.54)
(11238.2 -1163.91 -6.15111e-14 -953.125 -1.82369e-14 2373.47)
(11048.8 -1186.62 1.47671e-27 -740.272 5.13239e-28 2378.9)
(10878.4 -1187.17 5.89029e-14 -523.558 1.73397e-14 2389.57)
(10725.7 -1167.53 -1.67451e-14 -306.741 -9.40611e-15 2404.38)
(10589.7 -1129.06 -1.89138e-28 -92.8416 -5.71782e-29 2422.34)
(10468.8 -1072.54 -1.14779e-27 115.566 -3.70021e-28 2442.55)
(10362.1 -998.083 1.62635e-14 316.073 7.45275e-15 2464.18)
(10268.4 -905.172 -5.56428e-28 506.162 -2.02644e-28 2486.44)
(10187.4 -792.582 -5.32829e-14 682.917 -2.09377e-14 2508.54)
(10119.2 -658.262 4.59519e-28 842.71 1.90186e-28 2529.67)
(10064.8 -498.778 3.64729e-14 980.8 1.89945e-14 2548.98)
(10026.5 -307.049 -1.55228e-14 1090.72 -5.11673e-15 2565.52)
(10006.9 -63.4012 -5.12021e-15 1162.49 -4.90946e-15 2577.55)
(12743.6 7.98112 2.87326e-14 -1493.47 2.83777e-14 2596.18)
(12589.5 -180.172 4.98464e-14 -1533.02 2.79408e-14 2551.51)
(12362.5 -374.83 3.10965e-14 -1538.94 2.801e-14 2497.74)
(12131.1 -549.735 1.68825e-28 -1485.56 3.38157e-29 2456.67)
(11901.2 -697.364 6.5313e-14 -1385.35 3.78336e-14 2426.73)
(11678.3 -816.096 -1.57683e-14 -1249.87 1.94904e-15 2406.57)
(11466.6 -906.712 -1.49751e-14 -1088.93 1.87945e-15 2394.85)
(11268.4 -970.92 3.30728e-14 -910.499 2.29038e-14 2390.28)
(11084.9 -1010.68 3.01607e-14 -720.999 9.51416e-15 2391.67)
(10916.5 -1027.84 4.60387e-14 -525.602 1.94946e-14 2397.91)
(10763.1 -1024.01 3.28328e-14 -328.524 1.89883e-14 2407.97)
(10624 -1000.39 -1.21274e-14 -133.307 -5.29384e-16 2420.94)
(10498.8 -957.752 4.50386e-15 56.9243 6.91468e-15 2435.93)
(10386.7 -896.384 1.61378e-14 239.194 7.67767e-15 2452.13)
(10287.4 -816.082 5.91903e-14 410.416 2.46516e-14 2468.74)
(10201 -716.111 1.59211e-14 567.12 6.65378e-15 2484.94)
(10127.8 -595.102 5.87633e-30 705.141 2.59233e-30 2499.92)
(10069.4 -450.578 5.75743e-14 819.249 2.43031e-14 2512.77)
(10028.4 -276.92 3.10808e-14 902.594 1.12406e-14 2522.53)
(10005.4 -57.1605 1.02641e-14 944.208 1.09817e-14 2526.84)