/*--------------------------------*- C++ -*----------------------------------*\
  =========                 |
  \\      /  F ield         | OpenFOAM: The Open Source CFD Toolbox
   \\    /   O peration     | Website:  https://openfoam.org
    \\  /    A nd           | Version:  9
     \\/     M anipulation  |
\*---------------------------------------------------------------------------*/
FoamFile
{
    format      ascii;
    class       volScalarField;
    location    "480";
    object      sigmayy;
}
// * * * * * * * * * * * * * * * * * * * * * * * * * * * * * * * * * * * * * //

dimensions      [1 -1 -2 0 0 0 0];

internalField   nonuniform List<scalar> 
1000
(
4577.14
1142.44
-719.104
-1738.35
-2285.76
-2557.52
-2664.3
-2672.76
-2626.37
-2547.4
5155.06
1842.82
22.2891
-1009.4
-1594.08
-1913.82
-2072.04
-2131.38
-2129.46
-2068.88
5279.21
2374.65
754.099
-201.104
-773.974
-1116.06
-1314.26
-1421.61
-1469.81
-1456.26
5011.54
2746.59
1455.88
650.671
130.964
-211.167
-438.57
-590.406
-690.515
-732.888
4447.25
2979.06
2107.01
1503.3
1066.96
742.351
495.634
304.427
154.457
53.9774
3703.87
3100.68
2687.13
2310.19
1974.08
1678.64
1420.87
1196.26
1000.75
844.131
2908.21
3143.54
3176.62
3024.37
2791.4
2530.35
2267.66
2015.98
1781.16
1574.13
2181.93
3138.2
3558.08
3603.34
3463.28
3235.44
2971.56
2699.16
2432.73
2184.24
1628.09
3112.01
3820.82
4015.1
3945.43
3743.12
3479.09
3191.9
2902.4
2623.43
1335.07
3111.41
3962.08
4225.33
4185.64
3992.45
3726.01
3429.82
3127.05
2829.48
-11970
-7832.74
-5245.35
-3569.37
-2452.42
-1683.66
-1136.78
-734.143
-426.911
-183.934
-11545.9
-7556.06
-5185.71
-3644.6
-2602.84
-1874.55
-1348.05
-953.703
-646.857
-398.139
-10357.6
-7024.22
-5008.69
-3677.17
-2759.78
-2103.72
-1617.38
-1243.34
-944.702
-697.108
-8647.49
-6249.12
-4742.4
-3704.08
-2959.34
-2404.29
-1975.12
-1631.21
-1346.37
-1103.21
-6578.39
-5279.19
-4384.65
-3700.09
-3163.6
-2731.06
-2372.38
-2066.97
-1801.33
-1566.45
-4314.41
-4176.66
-3938.48
-3637.66
-3329.16
-3032.32
-2753.28
-2493.06
-2251.88
-2030.25
-2022.94
-3008.08
-3410.91
-3490.55
-3411.81
-3254.49
-3059.66
-2849.4
-2637.65
-2435.22
135.691
-1838.42
-2811.84
-3237.01
-3372.15
-3348.74
-3237.99
-3080.35
-2902.2
-2724.86
2021.1
-726.449
-2153.53
-2862.44
-3180.23
-3276.8
-3245.87
-3141.57
-2999.98
-2851.79
3524.49
279.073
-1450.45
-2361.28
-2818.89
-3015.27
-3057.2
-3006.19
-2902.83
-2791.24
10.172
191.833
355.119
507.082
653.274
798.162
945.355
1097.87
1258.37
1429.34
1613.23
1812.57
2030.13
2268.93
2532.43
2824.52
3149.43
3510.91
3909.09
4339.37
-185.891
24.5188
208.595
377.977
538.787
695.927
853.326
1014.26
1181.61
1358.01
1546.05
1748.38
1967.79
2207.35
2470.48
2761.02
3083.47
3443.6
3850.94
4337.85
-469.736
-224.138
-12.8752
181.023
363.348
539.024
712.16
886.265
1064.44
1249.54
1444.32
1651.54
1874.09
2115.06
2377.92
2666.63
2986.01
3342.42
3744.94
4218.95
-858.411
-570.135
-324.191
-98.2999
112.834
313.856
508.861
701.501
895.087
1092.69
1297.24
1511.64
1738.88
1982.12
2244.84
2531.04
2845.45
3193.94
3583.73
4036.96
-1305.28
-976.991
-695.207
-435.281
-192.428
37.2941
257.627
472.125
684.149
896.88
1113.38
1336.65
1569.72
1815.78
2078.23
2360.89
2668.1
3004.91
3377.16
3805.87
-1758.53
-1404.57
-1092.9
-802.804
-530.036
-271.982
-25.7713
211.66
443.434
672.641
902.313
1135.44
1375.02
1624.11
1885.93
2163.95
2461.96
2784.18
3135.38
3535.27
-2164.02
-1810.67
-1482.51
-1172.24
-876.236
-594.095
-324.515
-65.464
185.53
431.156
674.187
917.416
1163.64
1415.68
1676.4
1948.78
2235.95
2541.28
2868.46
3234.81
-2470.68
-2154.66
-1830.15
-1515.17
-1207.16
-908.912
-621.491
-344.539
-76.7407
183.793
439.269
692.042
944.522
1199.11
1458.19
1724.1
1999.14
2285.69
2586.24
2914.58
-2631.77
-2393.1
-2096.63
-1796.37
-1491.84
-1189.58
-893.566
-605.654
-326.195
-54.5214
210.655
470.972
728.22
984.2
1240.62
1499.03
1760.72
2026.81
2298.27
2584.55
-2614.91
-2457.35
-2217.39
-1961.56
-1687.69
-1403.56
-1116.01
-829.847
-547.963
-271.756
-1.54717
263.031
522.723
778.399
1030.85
1280.58
1527.68
1771.65
2011.35
2249.8
-2551.13
-2337.82
-2168.33
-1956.4
-1716.97
-1459.97
-1193.4
-923.23
-653.571
-386.982
-124.886
132.049
383.593
629.668
870.1
1104.39
1331.46
1549.42
1755.06
1944.87
-2330.3
-2227.98
-2105.17
-1927.79
-1715.96
-1481.6
-1233.58
-978.601
-721.54
-465.783
-213.582
33.5885
274.702
508.895
735.191
952.245
1158.05
1349.59
1522.12
1668.74
-2024
-1991.16
-1926.81
-1798.54
-1627.35
-1427.26
-1208.34
-978.099
-742.203
-504.851
-269.143
-37.4117
188.469
406.794
615.751
813.135
996.033
1160.41
1300.47
1407.54
-1748.7
-1758.88
-1735.87
-1649.27
-1515.85
-1349.09
-1159.42
-954.863
-741.603
-524.45
-307.164
-92.7676
116.159
317.203
507.839
685.144
845.475
984.067
1094.44
1166.6
-1496.56
-1536.06
-1541.87
-1488.33
-1387.92
-1252.19
-1090.96
-912.193
-722.32
-526.513
-328.991
-133.297
57.4391
240.237
412.005
569.259
707.819
822.437
906.233
948.217
-1268.03
-1327.16
-1352.71
-1324.35
-1251.33
-1143.08
-1008.27
-854.387
-687.74
-513.618
-336.492
-160.24
11.6201
175.699
328.493
466.124
584.066
676.799
737.268
753.913
-1063.6
-1134.7
-1173.09
-1163.31
-1112.24
-1027.46
-916.368
-785.689
-641.368
-488.579
-331.842
-175.194
-22.3727
122.981
257.107
375.9
474.661
547.785
588.259
584.379
-883.13
-959.998
-1005.79
-1009.14
-975.162
-909.898
-819.519
-709.919
-586.507
-454.164
-317.289
-179.914
-45.8392
81.1909
197.312
298.343
379.57
435.475
459.275
439.514
-725.702
-803.407
-852.271
-864.292
-843.217
-793.809
-721.163
-630.325
-526.094
-412.941
-295.01
-176.186
-60.1988
49.2452
148.313
232.883
298.366
339.474
349.823
318.53
-589.753
-664.496
-713.073
-730.163
-718.451
-681.665
-623.949
-549.553
-462.642
-367.205
-267.034
-165.757
-66.9161
25.9366
109.118
178.685
230.29
258.997
258.939
220.067
-473.307
-542.28
-588.049
-607.365
-602.112
-575.168
-529.862
-469.708
-398.247
-318.953
-235.2
-150.279
-67.4489
9.98935
78.601
134.717
174.326
192.931
185.278
142.326
-374.191
-435.446
-476.607
-495.987
-494.871
-475.45
-440.353
-392.434
-334.635
-269.902
-201.155
-131.291
-63.2147
0.100114
55.5447
99.8002
129.26
139.928
127.212
83.1881
-290.223
-342.54
-377.916
-395.795
-397.026
-383.248
-356.495
-319.028
-273.229
-221.527
-166.367
-110.214
-55.5716
-5.02986
38.6862
72.6616
93.741
98.4654
82.9194
40.345
-219.359
-262.138
-291.086
-306.422
-308.688
-299.076
-279.118
-250.552
-215.241
-175.117
-132.15
-88.3553
-45.8053
-6.66779
26.7543
51.9845
66.3429
66.9221
50.4749
11.3988
-159.817
-192.995
-215.332
-227.542
-229.948
-223.386
-208.96
-187.953
-161.757
-131.836
-99.7025
-66.92
-35.1177
-6.02128
18.5113
36.4593
45.6283
43.6467
27.9146
-6.03193
-110.188
-134.183
-150.14
-159.046
-161.062
-156.734
-146.812
-132.184
-113.83
-92.7875
-70.1393
-47.0155
-24.6082
-4.19916
12.8067
24.8495
30.2104
27.0266
13.3136
-14.2725
-69.5663
-85.2479
-95.4496
-101.233
-102.631
-99.956
-93.6727
-84.3431
-72.5929
-59.0889
-44.5307
-29.6537
-15.242
-2.15258
8.65142
16.0696
18.841
15.5721
4.82705
-15.5603
-37.7141
-46.4295
-51.8959
-55.0597
-55.8443
-54.3929
-50.9551
-45.8391
-39.3876
-31.9645
-23.9525
-15.7547
-7.80547
-0.587149
5.3423
9.31833
10.5251
7.99856
0.747703
-12.1888
-15.4031
-19.0714
-21.2284
-22.5362
-22.8618
-22.2537
-20.8205
-18.6935
-16.0147
-12.9329
-9.60352
-6.19053
-2.87121
0.152802
2.64407
4.30126
4.71779
3.31637
-0.506907
-6.67415
-11.2623
-10.0029
-8.70131
-7.54472
-6.48529
-5.53031
-4.68819
-3.95874
-3.33358
-2.79838
-2.33435
-1.92028
-1.53456
-1.1594
-0.783689
-0.416408
-0.109719
-0.00403431
-0.379609
-1.29608
2553.53
2376.66
1986.78
1440.94
783.101
64.3225
-660.26
-1336.71
-1920.29
-2429.11
2297.39
2149.64
1815.31
1344.7
775.721
151.316
-482.467
-1080.64
-1606.42
-2101.83
2061.59
1940.36
1660.05
1261.49
774.867
234.141
-323.936
-862.433
-1348.53
-1805.31
1842.59
1742.57
1507.76
1171.3
757.178
292.381
-193.741
-671.135
-1112.05
-1527.86
1638.91
1556.3
1359.82
1076.49
725.268
327.588
-93.0862
-512.34
-907.101
-1279.67
1449.54
1381.45
1217.37
979.522
682.873
344.41
-17.1221
-381.974
-731.187
-1060.59
1273.57
1217.67
1081.05
882.139
632.745
346.316
37.7929
-276.908
-582.298
-869.96
1110.08
1064.48
951.207
785.648
577.131
336.275
74.9553
-194.045
-458.119
-706.351
958.252
921.392
828.017
691.067
517.906
316.891
97.4177
-130.292
-356.017
-567.647
817.374
787.959
711.579
599.21
456.653
290.444
107.963
-82.6679
-273.209
-451.292
686.894
663.831
601.986
510.764
394.723
258.92
109.088
-48.388
-206.924
-354.545
566.45
548.798
499.372
426.353
333.302
224.065
103.012
-24.9119
-154.522
-274.671
455.907
442.827
403.964
346.596
273.478
187.44
91.7149
-9.95558
-113.565
-209.083
355.396
346.086
316.111
272.162
216.305
150.482
76.9711
-1.48408
-81.8665
-155.44
265.365
258.967
236.327
203.841
162.881
114.576
60.4042
2.30401
-57.5213
-111.716
186.634
182.081
165.345
142.632
114.436
81.1187
43.532
2.99636
-38.9266
-76.267
120.423
116.252
104.262
89.8991
72.4244
51.5806
27.8119
1.99043
-24.8048
-47.9054
68.1778
62.6684
54.9092
47.5729
38.618
27.5643
14.687
0.526919
-14.2151
-25.9918
30.7354
24.0849
20.6586
18.5217
15.4316
11.1515
5.89664
-0.0744665
-6.41472
-10.561
-13.8624
-20.368
-19.9429
-18.9063
-18.0458
-17.2569
-16.4277
-15.5372
-14.5773
-12.7291
)
;

boundaryField
{
    left
    {
        type            symmetryPlane;
    }
    right
    {
        type            calculated;
        value           nonuniform List<scalar> 
30
(
4334.54
4330.67
4211.91
4030.29
3799.52
3529.21
3229.07
2909.2
2579.57
2245.63
1941.27
1665.67
1405.01
1164.55
946.594
752.68
583.49
438.921
318.183
219.919
142.33
83.3016
40.5283
11.6173
-5.81014
-14.0682
-15.3851
-12.0051
-6.43574
-1.08185
)
;
    }
    down
    {
        type            symmetryPlane;
    }
    up
    {
        type            calculated;
        value           nonuniform List<scalar> 
30
(
8.41283e-12
1.25056e-11
2.70575e-11
1.20508e-11
-1.50067e-11
-1.7053e-11
2.11458e-11
8.41283e-12
9.09495e-12
-9.54969e-12
-2.00089e-11
2.00089e-11
-9.09495e-13
-1.40972e-11
-1.50067e-11
-6.36646e-12
-4.54747e-12
4.54747e-13
-7.7307e-12
-1.04592e-11
4.54747e-13
4.54747e-12
-8.6402e-12
4.09273e-12
-1.36424e-12
-6.36646e-12
-1.13687e-11
9.09495e-12
-5.00222e-12
-4.54747e-12
)
;
    }
    hole
    {
        type            calculated;
        value           nonuniform List<scalar> 
20
(
5402.59
5796.07
5676.75
5122.26
4248.1
3195.03
2114.23
1151.55
432.441
49.0545
-11828.3
-11338.7
-10042.7
-8195.13
-5973.6
-3560.89
-1144.5
1096.39
3006.05
4465.6
)
;
    }
    frontAndBack
    {
        type            empty;
    }
}


// ************************************************************************* //
