/*--------------------------------*- C++ -*----------------------------------*\
  =========                 |
  \\      /  F ield         | OpenFOAM: The Open Source CFD Toolbox
   \\    /   O peration     | Website:  https://openfoam.org
    \\  /    A nd           | Version:  9
     \\/     M anipulation  |
\*---------------------------------------------------------------------------*/
FoamFile
{
    format      ascii;
    class       volVectorField;
    location    "82";
    object      ddtCorrDdt0(hU);
}
// * * * * * * * * * * * * * * * * * * * * * * * * * * * * * * * * * * * * * //

dimensions      [0 2 -2 0 0 0 0];

internalField   nonuniform List<vector> 
400
(
(-9.83186e-10 -3.83185e-10 0)
(-1.44179e-09 6.80085e-10 0)
(-7.38094e-10 -9.23839e-11 0)
(1.67704e-09 8.68041e-10 0)
(3.17078e-09 1.10445e-09 0)
(3.51618e-09 1.31399e-10 0)
(9.88896e-10 -1.54241e-09 0)
(-2.89213e-10 -1.5751e-09 0)
(-1.92887e-09 -9.65828e-10 0)
(-3.53353e-09 1.41852e-09 0)
(-2.98336e-09 3.13152e-09 0)
(-1.13392e-09 1.16776e-09 0)
(-1.01296e-09 2.02834e-09 0)
(-1.24182e-09 2.07758e-09 0)
(5.42679e-10 3.06563e-09 0)
(2.42671e-09 2.23152e-09 0)
(3.43666e-09 -1.08784e-10 0)
(3.78067e-09 -2.10027e-09 0)
(1.79293e-09 -2.13726e-09 0)
(-4.11099e-10 -1.02573e-09 0)
(5.4799e-10 -1.32208e-09 0)
(-5.00092e-10 4.59844e-10 0)
(-2.82818e-10 9.70977e-11 0)
(8.94519e-10 2.54246e-09 0)
(1.92241e-09 2.47971e-09 0)
(8.44866e-10 -9.10485e-10 0)
(2.42212e-10 -3.82255e-09 0)
(-3.38885e-10 -3.88962e-09 0)
(-9.80531e-10 1.09225e-09 0)
(5.00011e-10 2.57664e-09 0)
(-4.66394e-09 7.40666e-09 0)
(-7.01956e-10 3.96834e-09 0)
(-7.95171e-10 4.2149e-09 0)
(-2.4343e-09 7.14271e-09 0)
(-1.91222e-09 8.53531e-09 0)
(-1.96313e-09 7.07479e-09 0)
(-7.85259e-10 2.29302e-09 0)
(6.4331e-10 -3.02539e-09 0)
(1.52582e-09 -4.30621e-09 0)
(1.91346e-09 -1.69986e-09 0)
(1.19877e-09 -1.51804e-09 0)
(1.40475e-09 -5.16856e-10 0)
(1.12715e-09 9.5157e-10 0)
(5.84597e-10 2.6101e-09 0)
(-8.05069e-10 6.70222e-10 0)
(-1.75044e-09 -3.60762e-09 0)
(-1.36363e-09 -4.0232e-09 0)
(2.0435e-09 -1.15305e-09 0)
(-9.63202e-10 4.96976e-09 0)
(1.92677e-09 4.33282e-09 0)
(-6.71681e-11 3.16537e-09 0)
(-3.8842e-09 8.61761e-09 0)
(4.77835e-09 -3.63389e-10 0)
(-3.9827e-10 5.47972e-09 0)
(-5.06806e-09 1.03652e-08 0)
(-6.11865e-09 1.01666e-08 0)
(-6.66278e-09 6.55394e-09 0)
(-4.33648e-09 1.61073e-09 0)
(1.03005e-09 -7.47229e-10 0)
(4.04995e-09 -3.61846e-10 0)
(1.855e-09 3.93342e-11 0)
(2.53326e-09 2.40955e-12 0)
(1.71376e-09 1.1221e-09 0)
(-1.08864e-09 1.85382e-10 0)
(-3.06596e-09 -3.62713e-09 0)
(-3.19674e-09 -4.13176e-09 0)
(1.45474e-09 -1.2044e-09 0)
(7.74061e-10 7.42593e-09 0)
(5.68091e-09 -3.55866e-09 0)
(-7.74979e-09 8.22705e-09 0)
(1.27208e-08 -4.77289e-09 0)
(-3.69962e-09 5.2915e-10 0)
(-2.02158e-10 -3.79243e-10 0)
(1.36889e-08 -8.27813e-09 0)
(1.47134e-09 -2.32766e-10 0)
(-6.97564e-09 6.80886e-09 0)
(-9.2816e-09 7.55692e-09 0)
(-7.8327e-09 6.05139e-09 0)
(-3.12357e-09 4.39442e-09 0)
(9.71311e-10 1.73811e-09 0)
(1.35585e-09 2.03189e-09 0)
(2.70023e-09 9.45462e-10 0)
(6.32243e-10 -2.83391e-10 0)
(-2.92664e-09 -3.33168e-09 0)
(-3.75727e-09 -4.8202e-09 0)
(-4.68253e-10 -1.42485e-09 0)
(4.5948e-09 6.79807e-09 0)
(-1.58606e-09 1.52662e-10 0)
(4.57151e-09 -4.5929e-09 0)
(3.39118e-09 -8.88994e-09 0)
(-1.48792e-08 3.39325e-09 0)
(1.76797e-08 -1.66762e-08 0)
(-7.08234e-09 -2.43695e-09 0)
(3.81788e-09 -8.03592e-09 0)
(1.85069e-08 -1.31397e-08 0)
(5.60917e-09 -5.42133e-09 0)
(-6.56189e-09 2.54721e-09 0)
(-9.11119e-09 6.71546e-09 0)
(-7.17829e-09 7.00797e-09 0)
(-4.55158e-09 3.39146e-09 0)
(-3.01501e-10 2.22387e-09 0)
(1.57618e-09 5.06333e-10 0)
(-1.16674e-09 -2.4307e-09 0)
(-3.54264e-09 -4.22798e-09 0)
(-1.75524e-09 -1.60252e-09 0)
(4.81866e-09 4.64712e-09 0)
(-1.44964e-10 5.07793e-09 0)
(4.05477e-09 -8.22712e-09 0)
(-1.42171e-08 -2.01367e-09 0)
(1.91867e-08 -1.45929e-08 0)
(-9.75967e-09 -2.87347e-09 0)
(-1.17488e-08 1.16574e-08 0)
(1.67939e-08 -1.2165e-08 0)
(-3.84451e-09 -5.17899e-09 0)
(5.28135e-09 -9.7826e-09 0)
(1.49477e-08 -1.19274e-08 0)
(6.82746e-09 -5.37822e-09 0)
(-1.97763e-09 1.18691e-09 0)
(-7.03803e-09 3.99596e-09 0)
(-9.39995e-09 2.44331e-09 0)
(-1.89928e-09 3.28552e-10 0)
(7.58845e-11 -1.76963e-09 0)
(-2.16633e-09 -3.72356e-09 0)
(-2.19612e-09 -1.5198e-09 0)
(2.22494e-09 4.07719e-09 0)
(3.84766e-09 5.47354e-09 0)
(1.63931e-09 -2.47918e-09 0)
(-6.65134e-09 -3.06229e-09 0)
(5.31154e-09 -9.07149e-09 0)
(-2.94905e-08 2.72547e-08 0)
(6.46469e-08 -1.34133e-07 0)
(-2.25912e-08 2.0281e-08 0)
(-3.20962e-08 8.97649e-09 0)
(5.47818e-09 -3.6439e-09 0)
(4.08581e-09 -2.2054e-09 0)
(8.88002e-09 -7.0023e-09 0)
(1.06093e-08 -8.20788e-09 0)
(5.36407e-09 -6.38163e-09 0)
(-1.44791e-09 -3.45397e-09 0)
(-7.73086e-09 -6.15166e-10 0)
(-2.2066e-09 -1.83055e-09 0)
(-1.18309e-09 -3.89708e-09 0)
(-1.35123e-09 -3.39544e-09 0)
(6.74958e-10 1.7455e-09 0)
(2.65643e-09 6.66554e-09 0)
(2.94181e-09 1.32666e-09 0)
(-1.76951e-09 -6.33711e-09 0)
(-4.56696e-09 7.98376e-10 0)
(1.43517e-08 8.03805e-09 0)
(-1.32198e-07 -1.90863e-08 0)
(4.80403e-07 1.35766e-07 0)
(1.7932e-07 -2.47081e-08 0)
(-2.87941e-08 -9.08968e-10 0)
(-2.07377e-08 9.13078e-09 0)
(-2.22582e-09 7.57257e-09 0)
(3.07044e-09 1.97453e-09 0)
(7.36483e-09 -6.33155e-09 0)
(6.87644e-09 -9.88651e-09 0)
(3.31506e-09 -8.04913e-09 0)
(-2.39486e-09 -2.95627e-09 0)
(-1.41641e-09 -2.65106e-09 0)
(-1.52143e-09 -3.67698e-09 0)
(2.44982e-10 -1.63721e-09 0)
(2.8267e-09 2.93747e-09 0)
(1.8848e-09 4.61962e-09 0)
(-1.31036e-09 -1.00874e-09 0)
(-2.30195e-10 -6.11364e-09 0)
(2.78219e-09 7.20981e-10 0)
(-1.73405e-08 1.07128e-08 0)
(1.3365e-07 -1.16471e-08 0)
(-4.74458e-07 1.28343e-07 0)
(-1.87494e-07 -2.08055e-08 0)
(2.23952e-08 4.38872e-09 0)
(1.43554e-08 1.46675e-08 0)
(-4.25415e-09 1.21675e-08 0)
(-1.02577e-08 6.68765e-09 0)
(-2.00002e-09 -1.6993e-09 0)
(3.65497e-09 -6.8239e-09 0)
(6.2027e-09 -6.97658e-09 0)
(5.72924e-11 -2.84973e-09 0)
(-1.58458e-10 -1.75549e-09 0)
(-1.263e-09 -1.36629e-09 0)
(1.53871e-09 7.07307e-10 0)
(3.44052e-09 1.34801e-09 0)
(5.77889e-10 1.14302e-09 0)
(-2.9952e-09 -2.22112e-10 0)
(-1.24946e-09 -2.28727e-09 0)
(3.98006e-09 -1.50215e-09 0)
(-1.04961e-09 -3.32518e-09 0)
(2.19922e-08 3.48678e-08 0)
(-5.91191e-08 -1.18512e-07 0)
(3.45169e-08 1.82675e-08 0)
(2.68196e-08 1.86521e-08 0)
(-8.83426e-09 7.75068e-09 0)
(-9.04745e-09 5.51648e-09 0)
(-1.28073e-08 1.77145e-09 0)
(-1.29367e-08 7.66227e-10 0)
(-2.8939e-10 6.26057e-11 0)
(6.07314e-09 -7.01881e-10 0)
(9.45652e-09 -3.99377e-10 0)
(4.65003e-10 3.93759e-11 0)
(-5.83416e-10 1.23473e-09 0)
(1.3458e-09 2.05123e-09 0)
(3.06867e-09 -4.77124e-10 0)
(8.23629e-10 -2.57747e-09 0)
(-3.5672e-09 1.68464e-09 0)
(-4.44562e-10 2.65326e-09 0)
(-4.79426e-10 -5.28418e-09 0)
(1.2871e-08 4.24647e-09 0)
(-1.75177e-09 -2.17598e-08 0)
(-2.23968e-08 9.38671e-08 0)
(3.06348e-08 1.00996e-08 0)
(-2.88592e-09 -1.33839e-08 0)
(-3.70827e-09 -3.36329e-09 0)
(-1.49996e-08 -5.12833e-09 0)
(-1.67999e-08 -4.49639e-09 0)
(-6.64755e-09 1.17437e-09 0)
(2.73499e-09 4.95791e-09 0)
(5.09761e-09 4.74471e-09 0)
(3.88453e-09 1.75838e-09 0)
(4.24434e-10 1.5658e-09 0)
(-1.90513e-10 2.65207e-09 0)
(6.62061e-10 2.46303e-09 0)
(1.63989e-09 -1.40312e-09 0)
(1.73608e-09 -3.59257e-09 0)
(-1.44629e-09 -6.39041e-11 0)
(-2.9791e-09 6.32335e-09 0)
(4.54892e-09 -6.91607e-10 0)
(-8.94717e-09 -9.5671e-09 0)
(1.04508e-07 -3.78105e-09 0)
(-4.2159e-07 -1.07755e-07 0)
(-1.45072e-07 -9.85048e-09 0)
(1.79609e-08 -9.03032e-09 0)
(1.06586e-09 -1.6783e-08 0)
(-1.53427e-08 -1.48852e-08 0)
(-6.98661e-09 -4.63972e-09 0)
(2.90552e-09 3.70873e-09 0)
(5.25244e-09 6.97057e-09 0)
(2.6874e-09 5.88286e-09 0)
(-2.02065e-11 2.11975e-09 0)
(-8.60515e-11 1.60809e-09 0)
(6.8362e-11 2.71492e-09 0)
(-2.86913e-10 2.36262e-09 0)
(3.70072e-10 -9.80079e-10 0)
(1.11197e-09 -3.26126e-09 0)
(1.12406e-09 -7.65093e-10 0)
(-2.70352e-09 2.82911e-09 0)
(-3.7167e-09 6.79147e-09 0)
(8.30215e-09 -1.02536e-08 0)
(-1.09778e-07 3.32694e-09 0)
(4.26251e-07 -9.85823e-08 0)
(1.46994e-07 -2.18141e-09 0)
(-1.54632e-08 -1.00397e-08 0)
(-1.52236e-08 -1.60239e-08 0)
(4.89376e-10 -7.56981e-09 0)
(7.11942e-09 7.45739e-10 0)
(8.60392e-09 4.787e-09 0)
(5.91183e-09 5.77892e-09 0)
(5.49084e-10 4.27055e-09 0)
(-3.12503e-09 1.17571e-09 0)
(-1.90462e-10 6.66055e-11 0)
(8.57384e-10 1.94184e-09 0)
(-5.83505e-10 2.40443e-09 0)
(-1.05815e-09 6.05027e-10 0)
(3.63626e-10 -2.54843e-09 0)
(7.25185e-10 -9.34404e-10 0)
(-1.1355e-09 9.95747e-10 0)
(-2.63147e-09 4.16948e-09 0)
(-4.37032e-09 7.73591e-09 0)
(3.47381e-10 -1.23893e-08 0)
(3.97402e-08 1.06761e-07 0)
(-3.66635e-08 -2.93589e-09 0)
(-1.18742e-08 -7.42103e-09 0)
(4.49248e-09 7.91454e-10 0)
(8.04777e-09 4.51485e-09 0)
(9.7501e-09 4.3276e-09 0)
(8.99167e-09 3.91017e-09 0)
(4.52449e-09 3.40731e-09 0)
(-1.93896e-09 1.62351e-09 0)
(-4.92562e-09 -1.19301e-10 0)
(5.67327e-10 -1.49781e-09 0)
(2.36684e-09 7.57534e-10 0)
(2.64031e-11 2.511e-09 0)
(-2.10839e-09 2.5518e-09 0)
(-1.05206e-09 -1.12073e-09 0)
(1.52647e-10 -2.58137e-09 0)
(-1.49001e-10 4.86793e-10 0)
(-2.43608e-09 1.73081e-09 0)
(-1.9747e-10 6.77533e-09 0)
(3.28296e-09 1.31485e-08 0)
(-6.51603e-09 -5.80339e-09 0)
(1.96491e-09 8.95145e-11 0)
(1.74671e-09 9.58099e-09 0)
(5.65809e-09 9.6723e-09 0)
(7.60541e-09 7.85178e-09 0)
(7.81283e-09 5.47924e-09 0)
(6.84143e-09 2.83111e-09 0)
(1.5246e-09 5.51804e-10 0)
(-4.6276e-09 -1.06405e-09 0)
(-5.44118e-09 -1.06905e-09 0)
(2.03359e-09 -1.50236e-09 0)
(3.64154e-09 -5.4408e-10 0)
(1.14142e-09 1.56072e-09 0)
(-2.89398e-09 3.52108e-09 0)
(-2.8284e-09 1.11378e-09 0)
(-4.94877e-10 -3.81611e-09 0)
(2.94847e-10 -1.84485e-09 0)
(3.93841e-10 7.90625e-10 0)
(1.67841e-09 4.6047e-09 0)
(1.66624e-09 6.01451e-09 0)
(-3.42002e-10 8.92053e-09 0)
(-1.79066e-09 9.79124e-09 0)
(3.29832e-09 1.07878e-08 0)
(4.82096e-09 1.02295e-08 0)
(4.19019e-09 7.21921e-09 0)
(5.0737e-09 5.42415e-09 0)
(1.95845e-09 1.74794e-09 0)
(-4.11708e-09 -2.50661e-09 0)
(-7.54214e-09 -3.57859e-09 0)
(-5.1359e-09 -1.69376e-09 0)
(3.13884e-09 7.32773e-10 0)
(2.97438e-09 -1.24136e-09 0)
(1.75875e-09 -1.16398e-09 0)
(-2.65711e-09 1.35198e-09 0)
(-4.01563e-09 2.9957e-09 0)
(-1.29984e-09 -1.45546e-09 0)
(1.35861e-09 -3.12382e-09 0)
(1.8586e-09 -1.18689e-10 0)
(9.66e-10 -3.69185e-10 0)
(2.38105e-09 -1.64164e-11 0)
(1.17363e-09 -1.58991e-09 0)
(6.51233e-10 3.01641e-09 0)
(2.38631e-09 6.75326e-09 0)
(2.10558e-09 5.21189e-09 0)
(3.28459e-09 3.22268e-09 0)
(1.78407e-09 1.5834e-09 0)
(-4.87117e-09 -1.45005e-09 0)
(-9.75073e-09 -4.48415e-09 0)
(-8.26962e-09 -4.47263e-09 0)
(-2.71318e-09 -1.80687e-09 0)
(1.97568e-09 3.48841e-09 0)
(-3.65032e-11 -3.36281e-10 0)
(9.31287e-10 -4.30193e-09 0)
(-8.93652e-10 -3.17748e-09 0)
(-2.77421e-09 1.88688e-09 0)
(-1.13923e-09 3.77726e-09 0)
(1.55392e-09 1.1438e-09 0)
(1.92918e-09 4.67511e-10 0)
(1.95268e-10 -1.69305e-09 0)
(-1.48973e-09 -4.81766e-09 0)
(-9.77601e-10 -6.55861e-09 0)
(1.67167e-09 -3.35617e-09 0)
(1.60167e-09 -9.44019e-10 0)
(1.12276e-09 -1.62498e-09 0)
(9.6229e-10 -4.34125e-09 0)
(-2.64421e-09 -6.63769e-09 0)
(-9.04835e-09 -6.12788e-09 0)
(-1.03747e-08 -3.7245e-09 0)
(-4.70036e-09 -2.29025e-09 0)
(1.78228e-09 -9.87452e-10 0)
(-1.31843e-09 3.9563e-09 0)
(-3.52286e-09 1.11432e-09 0)
(-9.3755e-10 -4.51681e-09 0)
(1.16517e-09 -5.60422e-09 0)
(1.09702e-09 -6.94551e-10 0)
(1.14466e-09 5.60958e-09 0)
(1.79866e-09 5.70097e-09 0)
(1.37454e-09 3.42307e-09 0)
(-1.21459e-09 -1.6258e-10 0)
(-2.67691e-09 -3.5442e-09 0)
(-2.09089e-09 -4.92635e-09 0)
(1.77276e-10 -4.50786e-09 0)
(8.1353e-11 -4.07306e-09 0)
(-1.28786e-09 -5.59882e-09 0)
(-2.24589e-09 -8.77788e-09 0)
(-3.97409e-09 -1.07359e-08 0)
(-5.17263e-09 -7.07258e-09 0)
(-3.27053e-09 -5.32239e-10 0)
(2.36287e-09 1.50758e-09 0)
(6.36039e-09 3.44133e-10 0)
(-3.91467e-09 1.67295e-09 0)
(-5.43868e-09 8.23934e-10 0)
(-2.64351e-09 -1.76665e-09 0)
(2.12458e-09 -2.73432e-09 0)
(4.06763e-09 -9.23472e-10 0)
(3.51191e-09 2.37746e-09 0)
(2.40018e-09 3.14719e-09 0)
(1.02034e-09 2.25513e-09 0)
(-1.72229e-09 5.19322e-10 0)
(-2.93448e-09 -7.74046e-10 0)
(-1.34749e-09 -1.85183e-09 0)
(7.03388e-10 -1.74842e-09 0)
(-7.28893e-10 -1.94305e-09 0)
(-2.64688e-09 -2.87195e-09 0)
(-3.12461e-09 -4.2583e-09 0)
(-1.96332e-09 -4.93208e-09 0)
(1.35032e-09 -2.783e-09 0)
(3.99464e-09 7.46107e-10 0)
(6.85685e-09 1.70502e-09 0)
(7.65356e-09 5.01338e-10 0)
)
;

boundaryField
{
    sides
    {
        type            calculated;
        value           nonuniform List<vector> 
40
(
(-3.91467e-09 0 0)
(-5.43868e-09 0 0)
(-2.64351e-09 0 0)
(2.12458e-09 0 0)
(4.06763e-09 0 0)
(3.51191e-09 0 0)
(2.40018e-09 0 0)
(1.02034e-09 0 0)
(-1.72229e-09 0 0)
(-2.93448e-09 0 0)
(-1.34749e-09 0 0)
(7.03388e-10 0 0)
(-7.28893e-10 0 0)
(-2.64688e-09 0 0)
(-3.12461e-09 0 0)
(-1.96332e-09 0 0)
(1.35032e-09 0 0)
(3.99464e-09 0 0)
(6.85685e-09 0 0)
(7.65356e-09 0 0)
(-9.83186e-10 0 0)
(-1.44179e-09 0 0)
(-7.38094e-10 0 0)
(1.67704e-09 0 0)
(3.17078e-09 0 0)
(3.51618e-09 0 0)
(9.88896e-10 0 0)
(-2.89213e-10 0 0)
(-1.92887e-09 0 0)
(-3.53353e-09 0 0)
(-2.98336e-09 0 0)
(-1.13392e-09 0 0)
(-1.01296e-09 0 0)
(-1.24182e-09 0 0)
(5.42679e-10 0 0)
(2.42671e-09 0 0)
(3.43666e-09 0 0)
(3.78067e-09 0 0)
(1.79293e-09 0 0)
(-4.11099e-10 0 0)
)
;
    }
    inlet
    {
        type            calculated;
        value           uniform (0 0 0);
    }
    outlet
    {
        type            calculated;
        value           nonuniform List<vector> 
20
(
(-4.11099e-10 -1.02573e-09 0)
(1.91346e-09 -1.69986e-09 0)
(4.04995e-09 -3.61846e-10 0)
(9.71311e-10 1.73811e-09 0)
(-4.55158e-09 3.39146e-09 0)
(-9.39995e-09 2.44331e-09 0)
(-7.73086e-09 -6.15166e-10 0)
(-2.39486e-09 -2.95627e-09 0)
(5.72924e-11 -2.84973e-09 0)
(9.45652e-09 -3.99377e-10 0)
(3.88453e-09 1.75838e-09 0)
(-2.02065e-11 2.11975e-09 0)
(-3.12503e-09 1.17571e-09 0)
(-4.92562e-09 -1.19301e-10 0)
(-5.44118e-09 -1.06905e-09 0)
(-5.1359e-09 -1.69376e-09 0)
(-2.71318e-09 -1.80687e-09 0)
(1.78228e-09 -9.87452e-10 0)
(6.36039e-09 3.44133e-10 0)
(7.65356e-09 5.01338e-10 0)
)
;
    }
    frontAndBack
    {
        type            empty;
    }
}


// ************************************************************************* //
