/*--------------------------------*- C++ -*----------------------------------*\
  =========                 |
  \\      /  F ield         | OpenFOAM: The Open Source CFD Toolbox
   \\    /   O peration     | Website:  https://openfoam.org
    \\  /    A nd           | Version:  9
     \\/     M anipulation  |
\*---------------------------------------------------------------------------*/
FoamFile
{
    format      ascii;
    class       volVectorField;
    location    "82";
    object      hU;
}
// * * * * * * * * * * * * * * * * * * * * * * * * * * * * * * * * * * * * * //

dimensions      [0 2 -1 0 0 0 0];

internalField   nonuniform List<vector> 
400
(
(0.001 -2.41495e-08 0)
(0.00100004 -7.04405e-08 0)
(0.00100012 -1.13195e-07 0)
(0.00100024 -1.52345e-07 0)
(0.00100039 -1.87245e-07 0)
(0.00100058 -2.16857e-07 0)
(0.00100078 -2.37255e-07 0)
(0.00100099 -2.45742e-07 0)
(0.00100118 -2.36572e-07 0)
(0.00100132 -2.11199e-07 0)
(0.0010014 -1.68218e-07 0)
(0.0010014 -1.28273e-07 0)
(0.00100129 -9.8697e-08 0)
(0.00100111 -9.28308e-08 0)
(0.00100087 -9.94462e-08 0)
(0.00100065 -1.35394e-07 0)
(0.00100044 -1.56466e-07 0)
(0.00100034 -2.01328e-07 0)
(0.00100026 -1.88932e-07 0)
(0.00100033 -2.68572e-07 0)
(0.001 -2.66271e-08 0)
(0.00100005 -7.87082e-08 0)
(0.00100013 -1.2818e-07 0)
(0.00100026 -1.73859e-07 0)
(0.00100042 -2.13171e-07 0)
(0.00100062 -2.40746e-07 0)
(0.00100084 -2.46851e-07 0)
(0.00100108 -2.21382e-07 0)
(0.0010013 -1.54834e-07 0)
(0.00100147 -4.73593e-08 0)
(0.00100156 9.48013e-08 0)
(0.00100154 2.48536e-07 0)
(0.00100141 3.90532e-07 0)
(0.00100119 4.77752e-07 0)
(0.00100092 5.06056e-07 0)
(0.00100067 4.52706e-07 0)
(0.00100048 3.78698e-07 0)
(0.00100036 2.56697e-07 0)
(0.00100033 2.04794e-07 0)
(0.00100029 8.08627e-08 0)
(0.001 -5.26625e-08 0)
(0.00100004 -1.59142e-07 0)
(0.00100013 -2.66689e-07 0)
(0.00100026 -3.73273e-07 0)
(0.00100043 -4.73505e-07 0)
(0.00100064 -5.56421e-07 0)
(0.0010009 -6.04935e-07 0)
(0.00100117 -5.98434e-07 0)
(0.00100143 -5.1758e-07 0)
(0.00100164 -3.50767e-07 0)
(0.00100176 -1.085e-07 0)
(0.00100175 1.64292e-07 0)
(0.00100159 4.03096e-07 0)
(0.0010013 5.21777e-07 0)
(0.00100094 5.01387e-07 0)
(0.00100062 3.55439e-07 0)
(0.00100037 2.03965e-07 0)
(0.00100026 4.61597e-08 0)
(0.00100022 -3.36904e-09 0)
(0.0010003 -1.17229e-07 0)
(0.001 -7.36379e-08 0)
(0.00100004 -2.22469e-07 0)
(0.00100013 -3.74567e-07 0)
(0.00100026 -5.30006e-07 0)
(0.00100045 -6.80946e-07 0)
(0.00100069 -8.11145e-07 0)
(0.001001 -8.90109e-07 0)
(0.00100134 -8.85189e-07 0)
(0.00100171 -7.55044e-07 0)
(0.00100203 -4.73655e-07 0)
(0.00100222 -2.23314e-08 0)
(0.00100219 4.93817e-07 0)
(0.00100192 9.37778e-07 0)
(0.00100146 1.14043e-06 0)
(0.00100097 1.05609e-06 0)
(0.00100058 7.44689e-07 0)
(0.00100041 4.2481e-07 0)
(0.00100035 1.70392e-07 0)
(0.0010004 1.02264e-07 0)
(0.00100035 4.61672e-10 0)
(0.001 -9.09396e-08 0)
(0.00100004 -2.77959e-07 0)
(0.00100012 -4.76644e-07 0)
(0.00100025 -6.93756e-07 0)
(0.00100044 -9.21262e-07 0)
(0.00100072 -1.14006e-06 0)
(0.00100109 -1.29868e-06 0)
(0.00100155 -1.33642e-06 0)
(0.00100207 -1.17484e-06 0)
(0.00100257 -7.78509e-07 0)
(0.0010029 -1.7043e-07 0)
(0.00100288 5.77777e-07 0)
(0.00100244 1.23056e-06 0)
(0.00100167 1.51125e-06 0)
(0.00100086 1.37494e-06 0)
(0.00100031 9.64928e-07 0)
(0.00100013 5.81689e-07 0)
(0.00100021 3.1465e-07 0)
(0.00100036 2.62794e-07 0)
(0.00100043 1.68287e-07 0)
(0.001 -1.03208e-07 0)
(0.00100003 -3.18347e-07 0)
(0.00100009 -5.61948e-07 0)
(0.00100019 -8.44732e-07 0)
(0.00100038 -1.1731e-06 0)
(0.00100068 -1.52503e-06 0)
(0.00100115 -1.85851e-06 0)
(0.00100179 -2.05381e-06 0)
(0.00100254 -1.91162e-06 0)
(0.00100326 -1.20094e-06 0)
(0.00100377 8.25259e-08 0)
(0.00100378 1.54155e-06 0)
(0.0010031 2.43201e-06 0)
(0.00100192 2.30387e-06 0)
(0.00100082 1.42912e-06 0)
(0.00100019 4.91464e-07 0)
(0.00100017 1.25126e-08 0)
(0.00100037 -8.55125e-08 0)
(0.00100064 6.08285e-08 0)
(0.00100054 5.04152e-08 0)
(0.001 -1.02435e-07 0)
(0.001 -3.33403e-07 0)
(0.00100002 -6.02052e-07 0)
(0.00100008 -9.62158e-07 0)
(0.00100021 -1.39229e-06 0)
(0.00100048 -1.94591e-06 0)
(0.001001 -2.48927e-06 0)
(0.00100188 -3.08427e-06 0)
(0.00100321 -3.23411e-06 0)
(0.00100473 -2.87877e-06 0)
(0.00100574 -6.79226e-07 0)
(0.00100535 2.55501e-06 0)
(0.00100349 4.82741e-06 0)
(0.00100112 4.73574e-06 0)
(0.000999609 3.02762e-06 0)
(0.000999372 1.26283e-06 0)
(0.00100001 4.29725e-07 0)
(0.00100056 3.25682e-07 0)
(0.00100092 5.61977e-07 0)
(0.00100065 5.34096e-07 0)
(0.000999996 -9.23769e-08 0)
(0.000999968 -2.88802e-07 0)
(0.000999907 -5.77362e-07 0)
(0.000999876 -9.5691e-07 0)
(0.000999879 -1.57708e-06 0)
(0.0010001 -2.34474e-06 0)
(0.0010005 -3.40333e-06 0)
(0.00100152 -4.12537e-06 0)
(0.00100308 -4.37273e-06 0)
(0.00100601 -2.55186e-06 0)
(0.00100911 7.60811e-07 0)
(0.00100916 4.26447e-06 0)
(0.0010055 4.71817e-06 0)
(0.00100073 2.78285e-06 0)
(0.000998151 7.35623e-07 0)
(0.000998274 -2.75155e-07 0)
(0.000999798 -2.87345e-07 0)
(0.00100088 -1.11485e-08 0)
(0.00100133 2.1128e-07 0)
(0.00100085 1.026e-07 0)
(0.000999995 -4.90585e-08 0)
(0.000999915 -2.03861e-07 0)
(0.000999756 -3.86789e-07 0)
(0.000999531 -7.34955e-07 0)
(0.000999288 -1.33815e-06 0)
(0.000999211 -2.48148e-06 0)
(0.000999706 -4.68856e-06 0)
(0.00100139 -8.06935e-06 0)
(0.00100491 -1.32854e-05 0)
(0.00100958 -1.49144e-05 0)
(0.00101188 3.84932e-06 0)
(0.00100892 1.87279e-05 0)
(0.00100221 1.57816e-05 0)
(0.000997567 5.74305e-06 0)
(0.000996885 -3.14977e-07 0)
(0.00099846 -1.26316e-06 0)
(0.00100027 -9.49756e-08 0)
(0.001001 6.33581e-07 0)
(0.00100107 6.5105e-07 0)
(0.00100054 2.43436e-07 0)
(0.000999804 -1.9705e-08 0)
(0.00100017 -6.65782e-08 0)
(0.000999215 -1.51291e-07 0)
(0.000999905 -2.48529e-07 0)
(0.000997522 -5.92132e-07 0)
(0.000998843 -1.13146e-06 0)
(0.000993346 -2.88406e-06 0)
(0.00099753 -5.59333e-06 0)
(0.000991666 -1.15425e-05 0)
(0.000915834 -1.27034e-05 0)
(0.000951463 2.67178e-07 0)
(0.00101023 1.46409e-05 0)
(0.000990951 1.30859e-05 0)
(0.000983973 5.14161e-06 0)
(0.000989584 1.94622e-07 0)
(0.000996279 -7.81197e-07 0)
(0.000999236 -1.11206e-07 0)
(0.000999412 2.48358e-07 0)
(0.000998648 1.74119e-07 0)
(0.000998505 -1.85053e-07 0)
(0.000999804 1.30944e-08 0)
(0.00100017 4.61604e-08 0)
(0.000999215 1.17897e-07 0)
(0.000999903 2.00189e-07 0)
(0.000997519 5.29118e-07 0)
(0.000998838 1.05131e-06 0)
(0.000993338 2.78689e-06 0)
(0.000997519 5.4736e-06 0)
(0.000991651 1.13975e-05 0)
(0.000915809 1.2548e-05 0)
(0.000951428 -4.66294e-07 0)
(0.0010102 -1.49055e-05 0)
(0.000990945 -1.3409e-05 0)
(0.000983964 -5.53606e-06 0)
(0.000989565 -6.48797e-07 0)
(0.000996242 2.48147e-07 0)
(0.000999195 -4.71894e-07 0)
(0.000999367 -1.00151e-06 0)
(0.000998633 -9.88152e-07 0)
(0.000998454 -8.88709e-07 0)
(0.000999995 4.27254e-08 0)
(0.000999915 1.842e-07 0)
(0.000999755 3.53973e-07 0)
(0.000999531 6.8752e-07 0)
(0.000999286 1.27611e-06 0)
(0.00099921 2.40121e-06 0)
(0.000999702 4.58976e-06 0)
(0.00100139 7.94357e-06 0)
(0.0010049 1.31315e-05 0)
(0.00100959 1.47173e-05 0)
(0.00101189 -4.07427e-06 0)
(0.00100889 -1.90085e-05 0)
(0.00100214 -1.60975e-05 0)
(0.000997476 -6.12469e-06 0)
(0.000996813 -8.55208e-08 0)
(0.0009984 7.75467e-07 0)
(0.00100017 -4.2621e-07 0)
(0.00100085 -1.30381e-06 0)
(0.00100088 -1.37866e-06 0)
(0.00100037 -1.25078e-06 0)
(0.000999996 8.63956e-08 0)
(0.000999967 2.7031e-07 0)
(0.000999905 5.45293e-07 0)
(0.000999871 9.10387e-07 0)
(0.00099987 1.51325e-06 0)
(0.00100008 2.26105e-06 0)
(0.00100048 3.2939e-06 0)
(0.00100149 3.99205e-06 0)
(0.00100303 4.21104e-06 0)
(0.00100594 2.36413e-06 0)
(0.00100901 -9.86756e-07 0)
(0.00100907 -4.54149e-06 0)
(0.00100543 -5.02085e-06 0)
(0.00100066 -3.13069e-06 0)
(0.000998058 -1.13178e-06 0)
(0.000998136 -2.50819e-07 0)
(0.000999623 -3.21458e-07 0)
(0.00100064 -7.40278e-07 0)
(0.00100106 -9.66783e-07 0)
(0.00100055 -1.07406e-06 0)
(0.001 9.67522e-08 0)
(0.001 3.15768e-07 0)
(0.00100002 5.71833e-07 0)
(0.00100007 9.17681e-07 0)
(0.0010002 1.33331e-06 0)
(0.00100046 1.87046e-06 0)
(0.00100097 2.3986e-06 0)
(0.00100185 2.97536e-06 0)
(0.00100318 3.11253e-06 0)
(0.00100469 2.73262e-06 0)
(0.00100568 5.16979e-07 0)
(0.00100527 -2.74941e-06 0)
(0.00100338 -5.07556e-06 0)
(0.00100096 -5.06912e-06 0)
(0.000999411 -3.44822e-06 0)
(0.000999123 -1.79314e-06 0)
(0.000999745 -1.01994e-06 0)
(0.00100025 -1.05838e-06 0)
(0.00100061 -1.30719e-06 0)
(0.00100023 -1.51592e-06 0)
(0.001 9.79859e-08 0)
(0.00100003 3.02549e-07 0)
(0.00100008 5.35349e-07 0)
(0.00100018 8.05806e-07 0)
(0.00100036 1.12145e-06 0)
(0.00100066 1.45896e-06 0)
(0.00100112 1.77793e-06 0)
(0.00100174 1.95065e-06 0)
(0.00100248 1.78295e-06 0)
(0.00100317 1.03648e-06 0)
(0.00100366 -2.77703e-07 0)
(0.00100363 -1.77927e-06 0)
(0.00100292 -2.70753e-06 0)
(0.00100171 -2.62953e-06 0)
(0.00100058 -1.77761e-06 0)
(0.000999905 -8.94551e-07 0)
(0.000999858 -4.26609e-07 0)
(0.000999981 -4.47834e-07 0)
(0.00100022 -6.1706e-07 0)
(0.001 -8.49173e-07 0)
(0.001 8.6245e-08 0)
(0.00100004 2.64013e-07 0)
(0.00100011 4.53673e-07 0)
(0.00100024 6.61362e-07 0)
(0.00100043 8.77957e-07 0)
(0.0010007 1.08434e-06 0)
(0.00100106 1.22969e-06 0)
(0.0010015 1.25243e-06 0)
(0.001002 1.07325e-06 0)
(0.00100248 6.57039e-07 0)
(0.0010028 1.90359e-08 0)
(0.00100274 -7.68754e-07 0)
(0.00100227 -1.44818e-06 0)
(0.00100146 -1.77295e-06 0)
(0.00100062 -1.66739e-06 0)
(0.00100001 -1.34788e-06 0)
(0.000999793 -1.02933e-06 0)
(0.000999764 -9.37425e-07 0)
(0.000999883 -9.46352e-07 0)
(0.000999767 -1.10911e-06 0)
(0.001 6.96168e-08 0)
(0.00100004 2.09665e-07 0)
(0.00100012 3.53305e-07 0)
(0.00100025 5.00748e-07 0)
(0.00100043 6.44296e-07 0)
(0.00100066 7.66175e-07 0)
(0.00100096 8.37668e-07 0)
(0.00100129 8.25759e-07 0)
(0.00100163 6.90734e-07 0)
(0.00100191 4.0549e-07 0)
(0.00100206 -4.7828e-08 0)
(0.001002 -5.7626e-07 0)
(0.00100171 -1.03535e-06 0)
(0.0010012 -1.28126e-06 0)
(0.00100065 -1.22983e-06 0)
(0.00100016 -9.94777e-07 0)
(0.000999913 -7.02443e-07 0)
(0.000999739 -5.57356e-07 0)
(0.000999752 -4.88018e-07 0)
(0.000999561 -5.98735e-07 0)
(0.001 5.08497e-08 0)
(0.00100004 1.50071e-07 0)
(0.00100012 2.46078e-07 0)
(0.00100025 3.37695e-07 0)
(0.00100041 4.21258e-07 0)
(0.00100062 4.83955e-07 0)
(0.00100086 5.09451e-07 0)
(0.00100112 4.7393e-07 0)
(0.00100137 3.61503e-07 0)
(0.00100157 1.55132e-07 0)
(0.00100167 -1.18205e-07 0)
(0.0010016 -4.22381e-07 0)
(0.00100139 -6.82431e-07 0)
(0.00100103 -8.43094e-07 0)
(0.00100064 -8.51238e-07 0)
(0.00100022 -7.72014e-07 0)
(0.000999949 -6.38778e-07 0)
(0.000999689 -5.96865e-07 0)
(0.000999628 -5.61357e-07 0)
(0.000999388 -6.84644e-07 0)
(0.001 3.49038e-08 0)
(0.00100004 1.05087e-07 0)
(0.00100011 1.74155e-07 0)
(0.00100023 2.40666e-07 0)
(0.00100038 3.01395e-07 0)
(0.00100056 3.50054e-07 0)
(0.00100077 3.76358e-07 0)
(0.00100097 3.6996e-07 0)
(0.00100116 3.20587e-07 0)
(0.0010013 2.24106e-07 0)
(0.00100136 8.54997e-08 0)
(0.00100131 -7.13808e-08 0)
(0.00100115 -2.06901e-07 0)
(0.00100086 -2.97973e-07 0)
(0.00100054 -3.13227e-07 0)
(0.00100017 -2.82915e-07 0)
(0.0009999 -2.03306e-07 0)
(0.000999614 -1.68409e-07 0)
(0.000999518 -1.17871e-07 0)
(0.00099925 -1.97986e-07 0)
(0.001 -3.99679e-09 0)
(0.00100004 -9.73073e-09 0)
(0.00100012 -1.30238e-08 0)
(0.00100024 -1.5197e-08 0)
(0.00100039 -1.75587e-08 0)
(0.00100056 -2.28761e-08 0)
(0.00100075 -3.33582e-08 0)
(0.00100094 -5.2878e-08 0)
(0.00100111 -8.13698e-08 0)
(0.00100123 -1.22046e-07 0)
(0.00100128 -1.69976e-07 0)
(0.00100121 -2.31503e-07 0)
(0.00100107 -2.90704e-07 0)
(0.00100081 -3.41416e-07 0)
(0.00100053 -3.59879e-07 0)
(0.00100018 -3.68296e-07 0)
(0.000999946 -3.42533e-07 0)
(0.000999611 -3.52614e-07 0)
(0.000999523 -3.27506e-07 0)
(0.000999131 -4.10401e-07 0)
)
;

boundaryField
{
    sides
    {
        type            slip;
    }
    inlet
    {
        type            fixedValue;
        value           uniform (0.001 0 0);
    }
    outlet
    {
        type            zeroGradient;
    }
    frontAndBack
    {
        type            empty;
    }
}


// ************************************************************************* //
