/*--------------------------------*- C++ -*----------------------------------*\
  =========                 |
  \\      /  F ield         | OpenFOAM: The Open Source CFD Toolbox
   \\    /   O peration     | Website:  https://openfoam.org
    \\  /    A nd           | Version:  9
     \\/     M anipulation  |
\*---------------------------------------------------------------------------*/
FoamFile
{
    format      ascii;
    class       surfaceScalarField;
    location    "82";
    object      phi_0;
}
// * * * * * * * * * * * * * * * * * * * * * * * * * * * * * * * * * * * * * //

dimensions      [0 4 -1 0 0 0 0];

internalField   nonuniform List<scalar> 
760
(
5.00009e-06
-9.24212e-11
5.0004e-06
-3.05052e-10
5.00092e-06
-5.12195e-10
5.00162e-06
-7.06297e-10
5.00249e-06
-8.75209e-10
5.00349e-06
-1.00439e-09
5.00455e-06
-1.06115e-09
5.00557e-06
-1.01641e-09
5.0064e-06
-8.34733e-10
5.00692e-06
-5.2373e-10
5.00705e-06
-1.22864e-10
5.00665e-06
3.97872e-10
5.0058e-06
8.54687e-10
5.0047e-06
1.1021e-09
5.00352e-06
1.17014e-09
5.00257e-06
9.51398e-10
5.00186e-06
7.13233e-10
5.00161e-06
2.41479e-10
5.0015e-06
1.04104e-10
-3.92794e-10
5.00012e-06
-2.13635e-10
5.00045e-06
-6.33114e-10
5.00098e-06
-1.04515e-09
5.00172e-06
-1.44369e-09
5.00265e-06
-1.80627e-09
5.00374e-06
-2.09566e-09
5.00493e-06
-2.2505e-09
5.0061e-06
-2.19686e-09
5.00713e-06
-1.8555e-09
5.00777e-06
-1.1681e-09
5.00774e-06
-8.98908e-11
5.00725e-06
8.89281e-10
5.00627e-06
1.84751e-09
5.00495e-06
2.41683e-09
5.00368e-06
2.44517e-09
5.00277e-06
1.85808e-09
5.00225e-06
1.243e-09
5.00191e-06
5.75709e-10
5.00165e-06
3.64303e-10
-1.49241e-10
5.00011e-06
-3.22357e-10
5.00043e-06
-9.5346e-10
5.00096e-06
-1.57603e-09
5.00172e-06
-2.20382e-09
5.00272e-06
-2.80496e-09
5.00394e-06
-3.31947e-09
5.00532e-06
-3.62964e-09
5.00672e-06
-3.59752e-09
5.00793e-06
-3.05579e-09
5.00872e-06
-1.9593e-09
5.00893e-06
-2.98999e-10
5.00825e-06
1.57326e-09
5.00687e-06
3.2304e-09
5.00515e-06
4.14057e-09
5.0035e-06
4.09808e-09
5.0023e-06
3.05929e-09
5.00166e-06
1.88831e-09
5.00147e-06
7.64345e-10
5.00144e-06
3.92783e-10
-2.23078e-10
5.0001e-06
-4.22584e-10
5.00041e-06
-1.26231e-09
5.00094e-06
-2.11046e-09
5.00175e-06
-3.00491e-09
5.00285e-06
-3.91215e-09
5.00428e-06
-4.75286e-09
5.00601e-06
-5.35616e-09
5.00795e-06
-5.5235e-09
5.00984e-06
-4.94373e-09
5.01108e-06
-3.1875e-09
5.01119e-06
-4.36111e-10
5.00999e-06
2.77874e-09
5.00765e-06
5.5699e-09
5.00513e-06
6.64062e-09
5.00346e-06
5.76981e-09
5.00269e-06
3.83446e-09
5.00247e-06
2.11103e-09
5.0023e-06
9.35024e-10
5.00199e-06
7.08707e-10
3.39232e-10
5.00008e-06
-5.04382e-10
5.00034e-06
-1.52037e-09
5.00083e-06
-2.60312e-09
5.00163e-06
-3.80785e-09
5.00285e-06
-5.13475e-09
5.00457e-06
-6.46882e-09
5.0068e-06
-7.57229e-09
5.00942e-06
-8.13805e-09
5.01239e-06
-7.91826e-09
5.01478e-06
-5.58726e-09
5.01483e-06
-4.67077e-10
5.01284e-06
4.73661e-09
5.00867e-06
9.74473e-09
5.00459e-06
1.07109e-08
5.00223e-06
8.11673e-09
5.00173e-06
4.32658e-09
5.00203e-06
1.80814e-09
5.00225e-06
7.27378e-10
5.00201e-06
9.5653e-10
6.29773e-10
5.00004e-06
-5.44861e-10
5.0002e-06
-1.67593e-09
5.00054e-06
-2.94494e-09
5.00121e-06
-4.48226e-09
5.0024e-06
-6.33444e-09
5.00452e-06
-8.57661e-09
5.00761e-06
-1.06462e-08
5.01167e-06
-1.22172e-08
5.01553e-06
-1.17681e-08
5.019e-06
-9.09113e-09
5.02021e-06
-1.65702e-09
5.01602e-06
8.93332e-09
5.0095e-06
1.62416e-08
5.00421e-06
1.60027e-08
5.00217e-06
1.01563e-08
5.00248e-06
3.99799e-09
5.00326e-06
1.03085e-09
5.00339e-06
6.01989e-10
5.00279e-06
1.55408e-09
1.42627e-09
4.99998e-06
-5.22977e-10
4.99994e-06
-1.63387e-09
5.00003e-06
-3.03956e-09
5.00036e-06
-4.81443e-09
5.00122e-06
-7.19281e-09
5.00293e-06
-1.02744e-08
5.00681e-06
-1.45338e-08
5.01392e-06
-1.93361e-08
5.02374e-06
-2.16125e-08
5.03095e-06
-1.62315e-08
5.02871e-06
4.76289e-10
5.01674e-06
2.09524e-08
5.00419e-06
2.88109e-08
4.99873e-06
2.14532e-08
5.00058e-06
8.31211e-09
5.00284e-06
1.72597e-09
5.00371e-06
1.59638e-10
5.00366e-06
6.52607e-10
5.00304e-06
2.16799e-09
1.68398e-09
4.99987e-06
-3.87521e-10
4.99955e-06
-1.31971e-09
4.99912e-06
-2.61383e-09
4.99885e-06
-4.54458e-09
4.99933e-06
-7.66658e-09
5.00036e-06
-1.13031e-08
5.00365e-06
-1.78276e-08
5.00982e-06
-2.552e-08
5.02488e-06
-3.66558e-08
5.05618e-06
-4.74924e-08
5.05005e-06
5.37344e-09
5.02316e-06
4.77592e-08
4.99817e-06
5.38185e-08
4.9935e-06
2.61448e-08
4.99947e-06
2.34444e-09
5.00407e-06
-2.8785e-09
5.0049e-06
-6.73911e-10
5.00372e-06
1.83219e-09
5.0035e-06
2.38109e-09
9.70216e-10
4.99977e-06
-1.56254e-10
4.99915e-06
-7.04463e-10
4.99792e-06
-1.38036e-09
4.99611e-06
-2.73277e-09
4.99402e-06
-5.57603e-09
4.99374e-06
-1.10277e-08
4.99944e-06
-2.3536e-08
5.01714e-06
-4.32011e-08
5.0557e-06
-7.52428e-08
5.06677e-06
-5.85836e-08
5.0497e-06
2.36561e-08
4.99652e-06
1.01053e-07
4.98931e-06
6.10138e-08
4.9959e-06
1.95394e-08
5.00019e-06
-1.93963e-09
5.00293e-06
-5.61452e-09
5.00253e-06
-2.74871e-10
5.00184e-06
2.51668e-09
5.00254e-06
1.67754e-09
8.30286e-11
4.99986e-06
-1.59155e-11
4.9992e-06
-5.1282e-11
4.99791e-06
-8.54953e-11
4.99531e-06
-1.26066e-10
4.9899e-06
-1.68717e-10
4.97908e-06
-2.18703e-10
4.95581e-06
-2.67652e-10
4.91295e-06
-3.34537e-10
4.83814e-06
-4.05829e-10
4.77996e-06
-4.61505e-10
4.8043e-06
-5.83758e-10
4.90603e-06
-7.25363e-10
4.96777e-06
-7.48887e-10
4.98822e-06
-9.03074e-10
4.98744e-06
-1.16734e-09
4.98326e-06
-1.42809e-09
4.98456e-06
-1.55784e-09
4.9889e-06
-1.82642e-09
4.99247e-06
-1.89572e-09
-2.58625e-09
4.99985e-06
1.25185e-10
4.9992e-06
6.01593e-10
4.99791e-06
1.21351e-09
4.9953e-06
2.48512e-09
4.98988e-06
5.25033e-09
4.97905e-06
1.05994e-08
4.95576e-06
2.30155e-08
4.9129e-06
4.25469e-08
4.83803e-06
7.44611e-08
4.77973e-06
5.78381e-08
4.80426e-06
-2.50701e-08
4.90598e-06
-1.02488e-07
4.96776e-06
-6.25143e-08
4.98806e-06
-2.12009e-08
4.98735e-06
-4.53988e-10
4.98294e-06
2.99963e-09
4.98443e-06
-3.04806e-09
4.98889e-06
-6.28323e-09
4.99235e-06
-5.35831e-09
-4.98553e-09
4.99977e-06
3.57024e-10
4.99915e-06
1.22251e-09
4.99791e-06
2.44525e-09
4.9961e-06
4.29868e-09
4.99402e-06
7.33285e-09
4.99373e-06
1.08847e-08
4.99942e-06
1.73148e-08
5.01707e-06
2.4903e-08
5.05563e-06
3.59084e-08
5.06709e-06
4.63594e-08
5.04943e-06
-6.31664e-09
4.99611e-06
-4.90792e-08
4.98884e-06
-5.52729e-08
4.99569e-06
-2.80493e-08
5.00011e-06
-4.86279e-09
5.00232e-06
7.92538e-10
5.00165e-06
-2.38749e-09
5.0009e-06
-5.53226e-09
5.00168e-06
-6.13887e-09
-5.9537e-09
4.99986e-06
4.92832e-10
4.99955e-06
1.54122e-09
4.99911e-06
2.88028e-09
4.99883e-06
4.57989e-09
4.99927e-06
6.88737e-09
5.00027e-06
9.89066e-09
5.00348e-06
1.41031e-08
5.0096e-06
1.87679e-08
5.02459e-06
2.09242e-08
5.05556e-06
1.54093e-08
5.04979e-06
-1.64173e-09
5.02282e-06
-2.21755e-08
4.99787e-06
-3.0302e-08
4.99316e-06
-2.33275e-08
4.99864e-06
-1.03404e-08
5.00345e-06
-4.01734e-09
5.00373e-06
-2.66837e-09
5.00235e-06
-4.16065e-09
5.00216e-06
-5.94799e-09
-6.53877e-09
4.99998e-06
5.1598e-10
4.99993e-06
1.59079e-09
5e-06
2.80225e-09
5.0003e-06
4.27589e-09
5.00113e-06
6.06364e-09
5.0028e-06
8.23057e-09
5.00668e-06
1.02161e-08
5.01378e-06
1.16629e-08
5.02356e-06
1.11252e-08
5.03071e-06
8.28788e-09
5.02837e-06
6.29129e-10
5.01626e-06
-1.0014e-08
5.0035e-06
-1.75452e-08
4.99778e-06
-1.76014e-08
4.99942e-06
-1.19817e-08
5.00161e-06
-6.2157e-09
5.0024e-06
-3.46465e-09
5.00212e-06
-3.89165e-09
5.00119e-06
-5.01376e-09
-5.98126e-09
5.00004e-06
4.78929e-10
5.00018e-06
1.44556e-09
5.0005e-06
2.47902e-09
5.00114e-06
3.62878e-09
5.00232e-06
4.8961e-09
5.0044e-06
6.15924e-09
5.00742e-06
7.19564e-09
5.0114e-06
7.68359e-09
5.01513e-06
7.38151e-09
5.01853e-06
4.87884e-09
5.01956e-06
-3.99519e-10
5.01523e-06
-5.69256e-09
5.00854e-06
-1.08622e-08
5.00311e-06
-1.21744e-08
5.00088e-06
-9.7527e-09
5.001e-06
-6.34944e-09
5.00154e-06
-4.01147e-09
5.00131e-06
-3.65632e-09
5.00035e-06
-4.05305e-09
-4.98164e-09
5.00008e-06
4.01032e-10
5.00032e-06
1.19927e-09
5.00079e-06
2.00697e-09
5.00156e-06
2.855e-09
5.00274e-06
3.71515e-09
5.00441e-06
4.50319e-09
5.00656e-06
5.0508e-09
5.0091e-06
5.14881e-09
5.01203e-06
4.44542e-09
5.0144e-06
2.50367e-09
5.01414e-06
-1.4298e-10
5.01208e-06
-3.63967e-09
5.00775e-06
-6.53864e-09
5.00348e-06
-7.91361e-09
5.00092e-06
-7.19418e-09
5.00012e-06
-5.55516e-09
5.00009e-06
-3.98775e-09
4.99987e-06
-3.42591e-09
4.99917e-06
-3.34696e-09
-4.17568e-09
5.0001e-06
3.01283e-10
5.00039e-06
9.02595e-10
5.00091e-06
1.4969e-09
5.00167e-06
2.08704e-09
5.00273e-06
2.65075e-09
5.00412e-06
3.11972e-09
5.00579e-06
3.38748e-09
5.00763e-06
3.31191e-09
5.00933e-06
2.75189e-09
5.01027e-06
1.56587e-09
5.01043e-06
-3.09794e-10
5.00903e-06
-2.24306e-09
5.0065e-06
-4.01607e-09
5.00367e-06
-5.08619e-09
5.00154e-06
-5.06538e-09
5.00034e-06
-4.35905e-09
4.99969e-06
-3.3461e-09
4.99916e-06
-2.88614e-09
4.99845e-06
-2.62435e-09
-3.21596e-09
5.0001e-06
1.9665e-10
5.00041e-06
5.95525e-10
5.00093e-06
9.83957e-10
5.00166e-06
1.35392e-09
5.00262e-06
1.69164e-09
5.00378e-06
1.95369e-09
5.00509e-06
2.07319e-09
5.00645e-06
1.9621e-09
5.00764e-06
1.55997e-09
5.00839e-06
8.28606e-10
5.00821e-06
-1.31657e-10
5.00733e-06
-1.36369e-09
5.0057e-06
-2.38086e-09
5.00368e-06
-3.06785e-09
5.00178e-06
-3.17213e-09
5.00033e-06
-2.90042e-09
4.99931e-06
-2.32427e-09
4.99852e-06
-2.08756e-09
4.99773e-06
-1.82542e-09
-2.27553e-09
5.00008e-06
1.12152e-10
5.00037e-06
3.05646e-10
5.00086e-06
4.94186e-10
5.00155e-06
6.72276e-10
5.00241e-06
8.29861e-10
5.00341e-06
9.48312e-10
5.00448e-06
9.98187e-10
5.0055e-06
9.3933e-10
5.00632e-06
7.40044e-10
5.00679e-06
3.64191e-10
5.00681e-06
-1.41523e-10
5.00608e-06
-6.28547e-10
5.00479e-06
-1.09141e-09
5.00315e-06
-1.42753e-09
5.00148e-06
-1.49973e-09
5.00002e-06
-1.43683e-09
4.99889e-06
-1.18425e-09
4.99793e-06
-1.1285e-09
4.99707e-06
-9.69577e-10
-1.42214e-09
5.00012e-06
5.00042e-06
5.00091e-06
5.00159e-06
5.00242e-06
5.00337e-06
5.00436e-06
5.00529e-06
5.00603e-06
5.00639e-06
5.00625e-06
5.00562e-06
5.00453e-06
5.0031e-06
5.0016e-06
5.00017e-06
4.99899e-06
4.99785e-06
4.99687e-06
)
;

boundaryField
{
    sides
    {
        type            calculated;
        value           uniform 0;
    }
    inlet
    {
        type            calculated;
        value           nonuniform List<scalar> 
20
(
-5e-06
-5e-06
-5e-06
-5e-06
-5e-06
-5e-06
-5e-06
-5e-06
-5e-06
-5e-06
-5e-06
-5e-06
-5e-06
-5e-06
-5e-06
-5e-06
-5e-06
-5e-06
-5e-06
-5e-06
)
;
    }
    outlet
    {
        type            calculated;
        value           nonuniform List<scalar> 
20
(
5.00189e-06
5.00141e-06
5.00152e-06
5.00143e-06
5.00172e-06
5.002e-06
5.00278e-06
5.00421e-06
5.00343e-06
4.99513e-06
4.99474e-06
5.00264e-06
5.00274e-06
5.00063e-06
4.99935e-06
4.99837e-06
4.9975e-06
4.99679e-06
4.99621e-06
4.99544e-06
)
;
    }
    frontAndBack
    {
        type            empty;
        value           nonuniform List<scalar> 0();
    }
}


// ************************************************************************* //
