/*--------------------------------*- C++ -*----------------------------------*\
  =========                 |
  \\      /  F ield         | OpenFOAM: The Open Source CFD Toolbox
   \\    /   O peration     | Website:  https://openfoam.org
    \\  /    A nd           | Version:  9
     \\/     M anipulation  |
\*---------------------------------------------------------------------------*/
FoamFile
{
    format      ascii;
    class       volVectorField;
    location    "82";
    object      U;
}
// * * * * * * * * * * * * * * * * * * * * * * * * * * * * * * * * * * * * * //

dimensions      [0 1 -1 0 0 0 0];

internalField   nonuniform List<vector> 
400
(
(0.0999964 -2.41486e-06 0)
(0.100001 -7.04381e-06 0)
(0.10001 -1.13193e-05 0)
(0.100023 -1.52343e-05 0)
(0.10004 -1.87247e-05 0)
(0.100061 -2.16863e-05 0)
(0.100083 -2.37268e-05 0)
(0.100107 -2.45761e-05 0)
(0.100128 -2.36595e-05 0)
(0.100144 -2.11223e-05 0)
(0.100152 -1.68239e-05 0)
(0.100152 -1.28288e-05 0)
(0.10014 -9.87078e-06 0)
(0.10012 -9.2839e-06 0)
(0.100093 -9.94523e-06 0)
(0.100068 -1.35399e-05 0)
(0.100045 -1.56468e-05 0)
(0.100034 -2.01327e-05 0)
(0.100025 -1.88931e-05 0)
(0.100033 -2.68571e-05 0)
(0.099997 -2.66262e-06 0)
(0.100002 -7.87061e-06 0)
(0.100011 -1.28177e-05 0)
(0.100025 -1.73859e-05 0)
(0.100044 -2.13174e-05 0)
(0.100066 -2.40755e-05 0)
(0.100091 -2.46866e-05 0)
(0.100117 -2.21402e-05 0)
(0.100141 -1.54852e-05 0)
(0.100161 -4.73657e-06 0)
(0.100171 9.48152e-06 0)
(0.100169 2.48572e-05 0)
(0.100154 3.90582e-05 0)
(0.100129 4.77802e-05 0)
(0.1001 5.06093e-05 0)
(0.100071 4.52726e-05 0)
(0.10005 3.78706e-05 0)
(0.100037 2.56699e-05 0)
(0.100033 2.04795e-05 0)
(0.100029 8.08628e-06 0)
(0.0999969 -5.26607e-06 0)
(0.100002 -1.59137e-05 0)
(0.100011 -2.66684e-05 0)
(0.100025 -3.73272e-05 0)
(0.100044 -4.73513e-05 0)
(0.100068 -5.56443e-05 0)
(0.100096 -6.04976e-05 0)
(0.100127 -5.98493e-05 0)
(0.100156 -5.17647e-05 0)
(0.10018 -3.50821e-05 0)
(0.100193 -1.08518e-05 0)
(0.100192 1.64319e-05 0)
(0.100174 4.03156e-05 0)
(0.100142 5.21837e-05 0)
(0.100102 5.01425e-05 0)
(0.100066 3.55452e-05 0)
(0.100037 2.03967e-05 0)
(0.100026 4.61594e-06 0)
(0.100021 -3.36901e-07 0)
(0.100029 -1.17228e-05 0)
(0.0999963 -7.3635e-06 0)
(0.100001 -2.22461e-05 0)
(0.10001 -3.74558e-05 0)
(0.100025 -5.30001e-05 0)
(0.100046 -6.80954e-05 0)
(0.100073 -8.11176e-05 0)
(0.100107 -8.90175e-05 0)
(0.100146 -8.8529e-05 0)
(0.100186 -7.55161e-05 0)
(0.100222 -4.73747e-05 0)
(0.100243 -2.23361e-06 0)
(0.10024 4.93921e-05 0)
(0.100211 9.37948e-05 0)
(0.100159 0.000114057 0)
(0.100104 0.000105616 0)
(0.100061 7.44709e-05 0)
(0.100041 4.24812e-05 0)
(0.100035 1.70392e-05 0)
(0.10004 1.02264e-05 0)
(0.100035 4.61674e-08 0)
(0.0999953 -9.09351e-06 0)
(0.0999995 -2.77946e-05 0)
(0.100008 -4.76627e-05 0)
(0.100023 -6.93742e-05 0)
(0.100044 -9.21263e-05 0)
(0.100076 -0.000114009 0)
(0.100117 -0.000129878 0)
(0.100168 -0.000133659 0)
(0.100225 -0.000117506 0)
(0.100281 -7.78699e-05 0)
(0.100318 -1.70479e-05 0)
(0.100316 5.7794e-05 0)
(0.100267 0.000123085 0)
(0.100181 0.000151146 0)
(0.100091 0.000137501 0)
(0.100029 9.64913e-05 0)
(0.100009 5.81668e-05 0)
(0.100019 3.14642e-05 0)
(0.100036 2.62792e-05 0)
(0.100043 1.68288e-05 0)
(0.099994 -1.03201e-05 0)
(0.0999969 -3.18328e-05 0)
(0.100003 -5.61919e-05 0)
(0.100015 -8.44698e-05 0)
(0.100036 -0.000117308 0)
(0.10007 -0.000152506 0)
(0.100122 -0.000185863 0)
(0.100193 -0.00020541 0)
(0.100277 -0.000191205 0)
(0.100357 -0.000120132 0)
(0.100414 8.25564e-06 0)
(0.100415 0.000154212 0)
(0.100339 0.000243273 0)
(0.100208 0.000230424 0)
(0.100085 0.000142916 0)
(0.100015 4.91443e-05 0)
(0.100012 1.2512e-06 0)
(0.100035 -8.5511e-06 0)
(0.100064 6.0829e-06 0)
(0.100055 5.04156e-06 0)
(0.0999924 -1.02427e-05 0)
(0.0999928 -3.33378e-05 0)
(0.0999948 -6.02007e-05 0)
(0.100001 -9.62091e-05 0)
(0.100016 -0.000139222 0)
(0.100046 -0.000194587 0)
(0.100103 -0.000248936 0)
(0.100202 -0.000308468 0)
(0.10035 -0.000323503 0)
(0.100519 -0.000288011 0)
(0.100632 -6.7962e-05 0)
(0.10059 0.000255641 0)
(0.100383 0.000482902 0)
(0.100118 0.000473598 0)
(0.0999478 0.000302723 0)
(0.0999219 0.000126264 0)
(0.0999926 4.29691e-05 0)
(0.100056 3.25681e-05 0)
(0.100095 5.61992e-05 0)
(0.100067 5.34103e-05 0)
(0.0999905 -9.23685e-06 0)
(0.0999874 -2.88774e-05 0)
(0.0999806 -5.77303e-05 0)
(0.0999769 -9.56808e-05 0)
(0.0999775 -0.000157692 0)
(0.100001 -0.000234454 0)
(0.100047 -0.000340322 0)
(0.10016 -0.000412567 0)
(0.100335 -0.000437388 0)
(0.100658 -0.000255332 0)
(0.101006 7.61531e-05 0)
(0.101014 0.000426864 0)
(0.100606 0.000472077 0)
(0.100072 0.000278279 0)
(0.099782 7.3538e-05 0)
(0.0997969 -2.75071e-05 0)
(0.0999672 -2.87308e-05 0)
(0.100089 -1.11487e-06 0)
(0.100138 2.1129e-05 0)
(0.100087 1.02601e-05 0)
(0.0999894 -4.90536e-06 0)
(0.0999805 -2.03839e-05 0)
(0.0999628 -3.86739e-05 0)
(0.0999378 -7.34842e-05 0)
(0.0999107 -0.00013379 0)
(0.0999019 -0.0002481 0)
(0.0999567 -0.00046879 0)
(0.100145 -0.000806977 0)
(0.100536 -0.00132914 0)
(0.101062 -0.00149297 0)
(0.101323 0.000385444 0)
(0.100996 0.00187472 0)
(0.100241 0.00157847 0)
(0.0997201 0.000574094 0)
(0.0996444 -3.14838e-05 0)
(0.0998219 -0.000126286 0)
(0.100024 -9.49728e-06 0)
(0.100107 6.33622e-05 0)
(0.100113 6.51087e-05 0)
(0.100055 2.43439e-05 0)
(0.0999703 -1.9703e-06 0)
(0.100006 -6.65706e-06 0)
(0.0999077 -1.5127e-05 0)
(0.0999718 -2.48482e-05 0)
(0.0997259 -5.91977e-05 0)
(0.099844 -0.0001131 0)
(0.0992764 -0.000288237 0)
(0.0996751 -0.000558896 0)
(0.0991183 -0.00115369 0)
(0.102003 -0.00141487 0)
(0.106281 2.98444e-05 0)
(0.101267 0.00146764 0)
(0.0990078 0.00130744 0)
(0.0982224 0.000513247 0)
(0.0988552 1.9442e-05 0)
(0.099605 -7.81017e-05 0)
(0.0999351 -1.11218e-05 0)
(0.0999522 2.48385e-05 0)
(0.099867 1.74123e-05 0)
(0.099849 -1.8505e-05 0)
(0.0999709 1.30931e-06 0)
(0.100006 4.61554e-06 0)
(0.0999083 1.17881e-05 0)
(0.0999723 2.00153e-05 0)
(0.0997263 5.28982e-05 0)
(0.0998441 0.000105089 0)
(0.0992762 0.000278528 0)
(0.0996745 0.000546936 0)
(0.0991171 0.00113919 0)
(0.102001 0.00139757 0)
(0.106277 -5.2086e-05 0)
(0.101265 -0.00149416 0)
(0.0990078 -0.00133973 0)
(0.0982222 -0.000552626 0)
(0.0988537 -6.48123e-05 0)
(0.0996015 2.4809e-05 0)
(0.099931 -4.71948e-05 0)
(0.0999478 -0.000100162 0)
(0.0998658 -9.88176e-05 0)
(0.0998442 -8.88697e-05 0)
(0.0999915 4.2722e-06 0)
(0.0999825 1.84184e-05 0)
(0.0999647 3.53935e-05 0)
(0.0999397 6.87428e-05 0)
(0.0999125 0.000127591 0)
(0.0999038 0.00024008 0)
(0.0999582 0.000458921 0)
(0.100146 0.000794413 0)
(0.100537 0.00131376 0)
(0.101064 0.00147327 0)
(0.101325 -0.000407973 0)
(0.100994 -0.00190284 0)
(0.100235 -0.00161009 0)
(0.099712 -0.000612251 0)
(0.0996385 -8.54841e-06 0)
(0.0998173 7.7529e-05 0)
(0.100015 -4.26201e-05 0)
(0.100092 -0.00013039 0)
(0.100093 -0.000137874 0)
(0.100038 -0.000125079 0)
(0.0999939 8.63907e-06 0)
(0.0999906 2.70293e-05 0)
(0.0999838 5.45256e-05 0)
(0.0999798 9.10321e-05 0)
(0.0999799 0.000151314 0)
(0.100003 0.000226093 0)
(0.100048 0.00032939 0)
(0.100159 0.000399246 0)
(0.100332 0.000421226 0)
(0.100653 0.000236554 0)
(0.100999 -9.87719e-05 0)
(0.101008 -0.000454603 0)
(0.100601 -0.000502375 0)
(0.100067 -0.000313072 0)
(0.0997751 -0.000113143 0)
(0.0997848 -2.50747e-05 0)
(0.0999511 -3.21422e-05 0)
(0.100066 -7.40295e-05 0)
(0.100111 -9.66834e-05 0)
(0.100057 -0.000107408 0)
(0.0999971 9.67494e-06 0)
(0.0999974 3.15759e-05 0)
(0.0999992 5.71818e-05 0)
(0.100005 9.17661e-05 0)
(0.100019 0.00013333 0)
(0.100049 0.000187051 0)
(0.100105 0.000239879 0)
(0.100203 0.000297589 0)
(0.10035 0.000311355 0)
(0.100519 0.000273401 0)
(0.100631 5.17301e-05 0)
(0.100586 -0.000275102 0)
(0.100375 -0.000507741 0)
(0.100105 -0.000506954 0)
(0.0999305 -0.000344785 0)
(0.099899 -0.00017929 0)
(0.0999682 -0.000101987 0)
(0.100026 -0.000105839 0)
(0.100065 -0.000130724 0)
(0.100025 -0.000151595 0)
(0.1 9.79858e-06 0)
(0.100003 3.02549e-05 0)
(0.100009 5.35353e-05 0)
(0.10002 8.05822e-05 0)
(0.10004 0.000112149 0)
(0.100074 0.000145907 0)
(0.100124 0.000177816 0)
(0.100194 0.000195103 0)
(0.100276 0.000178345 0)
(0.100353 0.000103685 0)
(0.100407 -2.77819e-05 0)
(0.100405 -0.000178001 0)
(0.100326 -0.000270844 0)
(0.10019 -0.000263005 0)
(0.100064 -0.000177772 0)
(0.0999891 -8.94538e-05 0)
(0.0999835 -4.26599e-05 0)
(0.0999982 -4.47835e-05 0)
(0.100023 -6.17072e-05 0)
(0.100002 -8.49183e-05 0)
(0.100003 8.62472e-06 0)
(0.100007 2.64021e-05 0)
(0.100015 4.53691e-05 0)
(0.100029 6.61397e-05 0)
(0.10005 8.78022e-05 0)
(0.10008 0.000108445 0)
(0.10012 0.000122987 0)
(0.10017 0.000125268 0)
(0.100225 0.000107352 0)
(0.100279 6.57242e-05 0)
(0.100315 1.90425e-06 0)
(0.100309 -7.69016e-05 0)
(0.100256 -0.000144859 0)
(0.100166 -0.00017733 0)
(0.100072 -0.000166755 0)
(0.100003 -0.000134791 0)
(0.0999792 -0.000102933 0)
(0.0999766 -9.37426e-05 0)
(0.0999893 -9.46362e-05 0)
(0.0999774 -0.000110912 0)
(0.100005 6.96203e-06 0)
(0.10001 2.09677e-05 0)
(0.100019 3.53327e-05 0)
(0.100033 5.00788e-05 0)
(0.100053 6.4436e-05 0)
(0.100079 7.66271e-05 0)
(0.100111 8.37801e-05 0)
(0.100148 8.25921e-05 0)
(0.100186 6.90897e-05 0)
(0.100218 4.05599e-05 0)
(0.100235 -4.78417e-06 0)
(0.100228 -5.76421e-05 0)
(0.100195 -0.000103561 0)
(0.100138 -0.00012815 0)
(0.100077 -0.000122998 0)
(0.100023 -9.94845e-05 0)
(0.099995 -7.02469e-05 0)
(0.0999762 -5.5737e-05 0)
(0.0999768 -4.88026e-05 0)
(0.0999569 -5.9874e-05 0)
(0.100007 5.08532e-06 0)
(0.100012 1.50082e-05 0)
(0.100021 2.46098e-05 0)
(0.100035 3.37728e-05 0)
(0.100053 4.21307e-05 0)
(0.100076 4.84022e-05 0)
(0.100103 5.09536e-05 0)
(0.100131 4.74023e-05 0)
(0.10016 3.61585e-05 0)
(0.100182 1.55171e-05 0)
(0.100193 -1.18236e-05 0)
(0.100186 -4.22488e-05 0)
(0.100162 -6.82587e-05 0)
(0.100122 -8.43253e-05 0)
(0.100078 -8.51358e-05 0)
(0.100032 -7.72088e-05 0)
(0.100001 -6.38817e-05 0)
(0.0999726 -5.96887e-05 0)
(0.099965 -5.61369e-05 0)
(0.0999396 -6.8465e-05 0)
(0.100009 3.49068e-06 0)
(0.100013 1.05097e-05 0)
(0.100021 1.74172e-05 0)
(0.100034 2.40693e-05 0)
(0.100051 3.01433e-05 0)
(0.100071 3.50107e-05 0)
(0.100094 3.76423e-05 0)
(0.100117 3.70032e-05 0)
(0.100138 3.20657e-05 0)
(0.100153 2.24159e-05 0)
(0.10016 8.55203e-06 0)
(0.100155 -7.13976e-06 0)
(0.100137 -2.06946e-05 0)
(0.100105 -2.98028e-05 0)
(0.100068 -3.13272e-05 0)
(0.100027 -2.82945e-05 0)
(0.0999972 -2.0332e-05 0)
(0.0999658 -1.68417e-05 0)
(0.0999542 -1.17874e-05 0)
(0.0999258 -1.97987e-05 0)
(0.10001 -3.99719e-07 0)
(0.100015 -9.73174e-07 0)
(0.100023 -1.30253e-06 0)
(0.100036 -1.51989e-06 0)
(0.100053 -1.75612e-06 0)
(0.100072 -2.28798e-06 0)
(0.100094 -3.33643e-06 0)
(0.100115 -5.28889e-06 0)
(0.100134 -8.13881e-06 0)
(0.100147 -1.22075e-05 0)
(0.100152 -1.70017e-05 0)
(0.100145 -2.31558e-05 0)
(0.100129 -2.90768e-05 0)
(0.1001 -3.41482e-05 0)
(0.100069 -3.59936e-05 0)
(0.10003 -3.68341e-05 0)
(0.100003 -3.42563e-05 0)
(0.099967 -3.52636e-05 0)
(0.0999558 -3.27517e-05 0)
(0.0999144 -4.10406e-05 0)
)
;

boundaryField
{
    sides
    {
        type            calculated;
        value           nonuniform List<vector> 
40
(
(0.10001 0 0)
(0.100015 0 0)
(0.100023 0 0)
(0.100036 0 0)
(0.100053 0 0)
(0.100072 0 0)
(0.100094 0 0)
(0.100115 0 0)
(0.100134 0 0)
(0.100147 0 0)
(0.100152 0 0)
(0.100145 0 0)
(0.100129 0 0)
(0.1001 0 0)
(0.100069 0 0)
(0.10003 0 0)
(0.100003 0 0)
(0.099967 0 0)
(0.0999558 0 0)
(0.0999144 0 0)
(0.0999964 0 0)
(0.100001 0 0)
(0.10001 0 0)
(0.100023 0 0)
(0.10004 0 0)
(0.100061 0 0)
(0.100083 0 0)
(0.100107 0 0)
(0.100128 0 0)
(0.100144 0 0)
(0.100152 0 0)
(0.100152 0 0)
(0.10014 0 0)
(0.10012 0 0)
(0.100093 0 0)
(0.100068 0 0)
(0.100045 0 0)
(0.100034 0 0)
(0.100025 0 0)
(0.100033 0 0)
)
;
    }
    inlet
    {
        type            calculated;
        value           nonuniform List<vector> 
20
(
(0.0999963 0 0)
(0.0999968 0 0)
(0.0999967 0 0)
(0.0999961 0 0)
(0.0999951 0 0)
(0.0999938 0 0)
(0.0999924 0 0)
(0.0999909 0 0)
(0.0999899 0 0)
(0.0999899 0 0)
(0.0999905 0 0)
(0.099992 0 0)
(0.0999943 0 0)
(0.0999971 0 0)
(0.1 0 0)
(0.100003 0 0)
(0.100005 0 0)
(0.100007 0 0)
(0.100009 0 0)
(0.10001 0 0)
)
;
    }
    outlet
    {
        type            calculated;
        value           nonuniform List<vector> 
20
(
(0.100033 -2.68572e-05 0)
(0.100029 8.08627e-06 0)
(0.10003 -1.17229e-05 0)
(0.100035 4.61672e-08 0)
(0.100043 1.68287e-05 0)
(0.100054 5.04152e-06 0)
(0.100065 5.34096e-05 0)
(0.100085 1.026e-05 0)
(0.100054 2.43436e-05 0)
(0.0998505 -1.85053e-05 0)
(0.0998454 -8.88709e-05 0)
(0.100037 -0.000125078 0)
(0.100055 -0.000107406 0)
(0.100023 -0.000151592 0)
(0.1 -8.49173e-05 0)
(0.0999767 -0.000110911 0)
(0.0999561 -5.98735e-05 0)
(0.0999388 -6.84644e-05 0)
(0.099925 -1.97986e-05 0)
(0.0999131 -4.10401e-05 0)
)
;
    }
    frontAndBack
    {
        type            empty;
    }
}


// ************************************************************************* //
