/*--------------------------------*- C++ -*----------------------------------*\
  =========                 |
  \\      /  F ield         | OpenFOAM: The Open Source CFD Toolbox
   \\    /   O peration     | Website:  https://openfoam.org
    \\  /    A nd           | Version:  9
     \\/     M anipulation  |
\*---------------------------------------------------------------------------*/
FoamFile
{
    format      ascii;
    class       volScalarField;
    location    "0.5";
    object      delta;
}
// * * * * * * * * * * * * * * * * * * * * * * * * * * * * * * * * * * * * * //

dimensions      [0 0 0 0 0 0 0];

internalField   nonuniform List<scalar> 
500
(
1.77726e-53
1.22174e-50
4.36694e-48
9.51109e-46
1.38826e-43
1.44734e-41
1.1283e-39
6.80884e-38
3.26815e-36
1.27534e-34
4.1201e-33
1.11881e-31
2.58716e-30
5.15244e-29
8.92527e-28
1.35661e-26
1.82353e-25
2.18305e-24
2.34252e-23
2.26628e-22
1.98737e-21
1.58756e-20
1.16053e-19
7.79665e-19
4.83299e-18
2.77457e-17
1.48036e-16
7.36478e-16
3.42705e-15
1.49598e-14
6.14296e-14
2.37915e-13
8.71252e-13
3.02394e-12
9.96987e-12
3.12916e-11
9.36861e-11
2.6809e-10
7.346e-10
1.93089e-09
4.87684e-09
1.18548e-08
2.77777e-08
6.28329e-08
1.37398e-07
2.90845e-07
5.96749e-07
1.18825e-06
2.29892e-06
4.32642e-06
7.92858e-06
1.41636e-05
2.46883e-05
4.20306e-05
6.99504e-05
0.000113906
0.000181633
0.00028385
0.000435069
0.000654526
0.00096717
0.00140469
0.00200653
0.00282079
0.00390498
0.0053265
0.00716279
0.00950111
0.0124378
0.016077
0.020529
0.025908
0.0323295
0.0399068
0.0487485
0.0589543
0.070612
0.0837942
0.0985551
0.114928
0.132925
0.152532
0.17371
0.196399
0.220512
0.24594
0.272555
0.300211
0.328748
0.357994
0.38777
0.417894
0.448181
0.478451
0.508529
0.538249
0.567456
0.596007
0.623776
0.650649
0.676532
0.701345
0.725025
0.747524
0.768812
0.788871
0.807696
0.825295
0.841685
0.856895
0.87096
0.883921
0.895824
0.906722
0.916667
0.925716
0.933924
0.941349
0.948047
0.954072
0.959478
0.964316
0.968635
0.972482
0.9759
0.97893
0.98161
0.983976
0.98606
0.987891
0.989499
0.990906
0.992136
0.99321
0.994145
0.994958
0.995663
0.996275
0.996804
0.997262
0.997657
0.997997
0.998289
0.998541
0.998756
0.998941
0.9991
0.999235
0.999351
0.999449
0.999533
0.999605
0.999666
0.999718
0.999762
0.999799
0.99983
0.999857
0.99988
0.999899
0.999915
0.999928
0.99994
0.999949
0.999958
0.999964
0.99997
0.999975
0.999979
0.999983
0.999985
0.999988
0.99999
0.999991
0.999993
0.999994
0.999995
0.999996
0.999997
0.999997
0.999998
0.999998
0.999998
0.999999
0.999999
0.999999
0.999999
0.999999
0.999999
1
1
1
1
1
1
1
1
1
1
1
1
1
1
1
1
1
1
1
1
1
1
1
1
1
1
1
1
1
1
1.00001
1.00001
1.00001
1.00001
1.00001
1.00001
1.00002
1.00002
1.00002
1.00003
1.00003
1.00003
1.00004
1.00005
1.00005
1.00006
1.00007
1.00008
1.0001
1.00011
1.00013
1.00014
1.00017
1.00019
1.00022
1.00025
1.00028
1.00032
1.00037
1.00042
1.00048
1.00054
1.00061
1.0007
1.00079
1.00089
1.001
1.00113
1.00127
1.00143
1.00161
1.0018
1.00202
1.00226
1.00253
1.00283
1.00316
1.00352
1.00392
1.00436
1.00485
1.00539
1.00598
1.00663
1.00734
1.00813
1.00898
1.00992
1.01095
1.01207
1.01329
1.01463
1.01608
1.01767
1.01939
1.02126
1.02329
1.0255
1.02789
1.03048
1.03329
1.03632
1.03959
1.04313
1.04694
1.05105
1.05548
1.06024
1.06537
1.07087
1.07678
1.08312
1.08991
1.09719
1.10499
1.11332
1.12223
1.13174
1.14189
1.15272
1.16426
1.17655
1.18963
1.20354
1.21832
1.23402
1.25069
1.26836
1.28709
1.30693
1.32793
1.35015
1.37363
1.39844
1.42464
1.45228
1.48142
1.51213
1.54448
1.57852
1.61433
1.65197
1.69152
1.73305
1.77662
1.82232
1.87022
1.92039
1.97292
2.02789
2.08537
2.14544
2.2082
2.27371
2.34207
2.41337
2.48768
2.56509
2.64568
2.72956
2.8168
2.90749
3.00172
3.09957
3.20114
3.30651
3.41577
3.52901
3.64631
3.76776
3.89344
4.02345
4.15785
4.29674
4.4402
4.58831
4.74114
4.89877
5.06129
5.22876
5.40125
5.57884
5.76159
5.94958
6.14286
6.34149
6.54555
6.75507
6.97012
7.19074
7.41699
7.6489
7.88653
8.12991
8.37908
8.63406
8.89489
9.16159
9.43418
9.71269
9.99712
10.2875
10.5838
10.8861
11.1943
11.5084
11.8285
12.1545
12.4864
12.8242
13.1678
13.5173
13.8725
14.2335
14.6003
14.9727
15.3507
15.7343
16.1233
16.5179
16.9178
17.323
17.7335
18.1491
18.5698
18.9955
19.4261
19.8615
20.3016
20.7464
21.1957
21.6493
22.1073
22.5695
23.0357
23.5059
23.9799
24.4577
24.939
25.4238
25.9119
26.4032
26.8975
27.3948
27.8949
28.3976
28.9027
29.4103
29.92
30.4318
30.9455
31.461
31.978
32.4965
33.0164
33.5373
34.0593
34.5821
35.1056
35.6297
36.1541
36.6787
37.2035
37.7281
38.2525
38.7766
39.3001
39.8229
40.3449
40.8659
41.3858
41.9044
42.4216
42.9372
43.4511
43.9632
44.4734
44.9814
45.4871
45.9905
46.4914
46.9897
47.4852
47.9778
48.4674
48.9538
49.4371
49.917
50.3934
50.8663
51.3355
51.8009
52.2625
52.72
53.1736
53.6229
54.068
54.5088
54.9452
55.3771
55.8044
56.2271
56.6451
57.0583
57.4667
57.8702
58.2687
58.6622
59.0506
59.434
59.8122
)
;

boundaryField
{
    lowValue
    {
        type            calculated;
        value           uniform 3.8607e-56;
    }
    highValue
    {
        type            calculated;
        value           uniform 60;
    }
    defaultFaces
    {
        type            empty;
    }
}


// ************************************************************************* //
