/*--------------------------------*- C++ -*----------------------------------*\
  =========                 |
  \\      /  F ield         | OpenFOAM: The Open Source CFD Toolbox
   \\    /   O peration     | Website:  https://openfoam.org
    \\  /    A nd           | Version:  9
     \\/     M anipulation  |
\*---------------------------------------------------------------------------*/
FoamFile
{
    format      ascii;
    class       volScalarField;
    location    "0.5";
    object      V;
}
// * * * * * * * * * * * * * * * * * * * * * * * * * * * * * * * * * * * * * //

dimensions      [0 1 0 0 0 0 0];

internalField   nonuniform List<scalar> 
500
(
9.66792e-57
1.77229e-53
1.21416e-50
4.32256e-48
9.37668e-46
1.36313e-43
1.4154e-41
1.09895e-39
6.60505e-38
3.15767e-36
1.22736e-34
3.94965e-33
1.06843e-31
2.46152e-30
4.88467e-29
8.43243e-28
1.27754e-26
1.71204e-25
2.04385e-24
2.18762e-23
2.11173e-22
1.84837e-21
1.4743e-20
1.07655e-19
7.22768e-19
4.47943e-18
2.57239e-17
1.37364e-16
6.84341e-16
3.19077e-15
1.39645e-14
5.75281e-14
2.23671e-13
8.22825e-13
2.87086e-12
9.5216e-12
3.00842e-11
9.07387e-11
2.61771e-10
7.23665e-10
1.92049e-09
4.90099e-09
1.20463e-08
2.85626e-08
6.54262e-08
1.44987e-07
3.11256e-07
6.48145e-07
1.31078e-06
2.57749e-06
4.93363e-06
9.20244e-06
1.67438e-05
2.97472e-05
5.16522e-05
8.77354e-05
0.000145908
0.000237773
0.000379988
0.000595977
0.000918038
0.00138984
0.00206937
0.00303219
0.00437514
0.00622014
0.00871828
0.0120538
0.0164477
0.0221615
0.0294995
0.0388115
0.0504927
0.0649849
0.0827736
0.104386
0.130388
0.161375
0.19797
0.240812
0.290547
0.347824
0.413278
0.487526
0.571152
0.664702
0.768677
0.883519
1.00961
1.14726
1.29673
1.45818
1.6317
1.81734
2.01504
2.22469
2.44612
2.67908
2.9233
3.17843
3.44409
3.71988
4.00535
4.30003
4.60346
4.91514
5.23458
5.56128
5.89477
6.23457
6.58021
6.93124
7.28724
7.64778
8.01249
8.38099
8.75293
9.12799
9.50587
9.8863
10.269
10.6538
11.0403
11.4285
11.8182
12.2092
12.6013
12.9944
13.3884
13.7831
14.1786
14.5747
14.9713
15.3683
15.7658
16.1636
16.5617
16.9601
17.3587
17.7575
18.1565
18.5556
18.9549
19.3542
19.7537
20.1532
20.5528
20.9525
21.3522
21.752
22.1517
22.5516
22.9514
23.3513
23.7512
24.1511
24.551
24.951
25.3509
25.7509
26.1508
26.5508
26.9508
27.3507
27.7507
28.1507
28.5507
28.9507
29.3507
29.7507
30.1507
30.5507
30.9507
31.3507
31.7506
32.1506
32.5506
32.9506
33.3506
33.7506
34.1506
34.5506
34.9506
35.3506
35.7506
36.1506
36.5506
36.9506
37.3506
37.7506
38.1506
38.5506
38.9506
39.3506
39.7506
40.1506
40.5506
40.9506
41.3506
41.7506
42.1506
42.5506
42.9506
43.3506
43.7506
44.1506
44.5506
44.9506
45.3506
45.7506
46.1506
46.5506
46.9506
47.3506
47.7506
48.1506
48.5506
48.9506
49.3506
49.7506
50.1506
50.5507
50.9507
51.3507
51.7507
52.1507
52.5507
52.9507
53.3507
53.7507
54.1507
54.5507
54.9508
55.3508
55.7508
56.1508
56.5509
56.9509
57.3509
57.751
58.151
58.5511
58.9512
59.3513
59.7514
60.1515
60.5516
60.9518
61.3519
61.7521
62.1523
62.5526
62.9528
63.3531
63.7535
64.1539
64.5543
64.9548
65.3554
65.756
66.1567
66.5575
66.9584
67.3594
67.7605
68.1618
68.5632
68.9647
69.3664
69.7683
70.1704
70.5728
70.9754
71.3783
71.7815
72.185
72.589
72.9933
73.398
73.8033
74.209
74.6154
75.0223
75.43
75.8383
76.2475
76.6576
77.0686
77.4806
77.8937
78.308
78.7237
79.1407
79.5592
79.9793
80.4012
80.825
81.2508
81.6787
82.109
82.5418
82.9773
83.4157
83.8571
84.3019
84.7501
85.2021
85.6581
86.1185
86.5833
87.053
87.5279
88.0083
88.4945
88.987
89.486
89.992
90.5055
91.0267
91.5563
92.0947
92.6423
93.1998
93.7676
94.3464
94.9366
95.5391
96.1543
96.783
97.4259
98.0837
98.7571
99.447
100.154
100.879
101.623
102.387
103.172
103.979
104.808
105.661
106.539
107.443
108.374
109.333
110.322
111.341
112.393
113.477
114.596
115.751
116.943
118.175
119.446
120.759
122.115
123.517
124.964
126.46
128.006
129.603
131.254
132.96
134.722
136.543
138.425
140.37
142.379
144.454
146.598
148.812
151.098
153.46
155.898
158.414
161.012
163.693
166.459
169.313
172.257
175.292
178.422
181.649
184.974
188.401
191.932
195.568
199.312
203.167
207.136
211.219
215.42
219.742
224.185
228.754
233.449
238.275
243.232
248.323
253.551
258.918
264.426
270.078
275.876
281.821
287.917
294.165
300.569
307.129
313.848
320.728
327.772
334.981
342.357
349.903
357.62
365.511
373.576
381.819
390.24
398.842
407.627
416.595
425.749
435.091
444.621
454.341
464.253
474.359
484.658
495.154
505.846
516.737
527.827
539.117
550.609
562.303
574.2
586.301
598.607
611.119
623.837
636.761
649.893
663.233
676.781
690.538
704.503
718.678
733.062
747.655
762.458
777.47
792.692
808.122
823.762
839.611
855.668
871.934
888.407
905.087
921.974
939.067
956.365
973.868
991.575
1009.48
1027.6
1045.91
1064.42
1083.14
1102.05
1121.16
1140.46
1159.96
1179.65
1199.54
1219.61
1239.88
1260.33
1280.97
1301.79
1322.8
1343.98
1365.35
1386.9
1408.62
1430.52
1452.59
1474.83
1497.25
1519.83
1542.57
1565.48
1588.55
1611.78
1635.17
1658.72
1682.41
1706.26
)
;

boundaryField
{
    lowValue
    {
        type            fixedValue;
        value           uniform 0;
    }
    highValue
    {
        type            fixedGradient;
        gradient        uniform 60;
    }
    defaultFaces
    {
        type            empty;
    }
}


// ************************************************************************* //
