/*--------------------------------*- C++ -*----------------------------------*\
  =========                 |
  \\      /  F ield         | OpenFOAM: The Open Source CFD Toolbox
   \\    /   O peration     | Website:  https://openfoam.org
    \\  /    A nd           | Version:  9
     \\/     M anipulation  |
\*---------------------------------------------------------------------------*/
FoamFile
{
    format      ascii;
    class       volVectorField;
    location    "93";
    object      ddt0(hU);
}
// * * * * * * * * * * * * * * * * * * * * * * * * * * * * * * * * * * * * * //

dimensions      [0 2 -2 0 0 0 0];

internalField   nonuniform List<vector> 
400
(
(-9.48611e-10 -1.64729e-09 0)
(-2.83216e-09 -3.65101e-10 0)
(-2.38574e-09 1.15592e-10 0)
(-1.62389e-09 1.05576e-09 0)
(-9.53823e-10 1.5462e-09 0)
(-9.32693e-10 2.3271e-09 0)
(-1.47694e-09 1.37865e-09 0)
(5.38401e-10 -9.966e-10 0)
(3.22722e-09 -7.70331e-10 0)
(6.85404e-09 -3.92713e-09 0)
(1.20655e-09 -5.25471e-09 0)
(-1.84107e-09 -3.19957e-09 0)
(-1.24562e-09 -2.89168e-09 0)
(-9.71404e-10 -9.94204e-10 0)
(3.50553e-09 -1.91077e-09 0)
(5.71899e-09 -3.41034e-09 0)
(3.37775e-09 -3.9027e-09 0)
(2.44397e-10 -2.80278e-09 0)
(-3.52808e-09 -1.29624e-09 0)
(-5.71938e-09 -3.94601e-10 0)
(7.68277e-10 -3.64959e-09 0)
(-1.04474e-09 -8.82178e-10 0)
(-1.61576e-09 4.25913e-10 0)
(-9.40515e-10 2.43708e-09 0)
(-1.75143e-10 3.64576e-09 0)
(-4.1184e-10 4.60511e-09 0)
(-2.12136e-09 3.42302e-10 0)
(3.67625e-10 -2.42586e-09 0)
(1.51747e-09 -3.06118e-09 0)
(2.57411e-09 -5.97535e-09 0)
(4.07523e-09 -1.07001e-08 0)
(-2.88724e-09 -4.83202e-09 0)
(3.4379e-10 -5.37538e-09 0)
(-1.4057e-09 -1.65313e-09 0)
(-1.58315e-09 -1.18066e-09 0)
(2.35648e-09 -5.55763e-09 0)
(4.08717e-09 -8.04266e-09 0)
(2.48809e-09 -6.38616e-09 0)
(-1.53918e-09 -3.00973e-09 0)
(-4.3953e-09 -7.24168e-10 0)
(1.85751e-09 -2.8115e-09 0)
(1.34563e-09 -8.90489e-10 0)
(-1.27759e-10 5.34405e-11 0)
(-6.17873e-11 1.94131e-09 0)
(8.17091e-10 3.48484e-09 0)
(-1.5122e-09 2.14966e-09 0)
(-1.07171e-09 -3.52221e-09 0)
(-2.4454e-09 1.6454e-09 0)
(2.99551e-09 -4.17884e-09 0)
(-4.02731e-09 7.73008e-11 0)
(3.20417e-09 -6.96684e-09 0)
(-1.66762e-09 -3.8339e-09 0)
(-2.82242e-09 1.03897e-09 0)
(2.72638e-09 -2.10518e-09 0)
(-5.43127e-09 8.89278e-10 0)
(-5.85951e-09 -5.16058e-10 0)
(1.72253e-09 -4.67095e-09 0)
(5.20153e-09 -5.7411e-09 0)
(2.45778e-09 -3.58954e-09 0)
(-1.69772e-09 -9.05369e-10 0)
(1.81584e-09 2.82267e-10 0)
(2.2455e-09 -8.47758e-10 0)
(7.42894e-10 -1.26781e-09 0)
(1.03018e-09 -3.17918e-11 0)
(4.96736e-10 1.32198e-09 0)
(-1.63601e-09 -2.85092e-09 0)
(5.02226e-11 1.26442e-09 0)
(-2.31741e-09 3.51862e-09 0)
(-4.67027e-10 2.98073e-09 0)
(9.85687e-10 -4.45998e-09 0)
(-1.01344e-08 7.32773e-09 0)
(9.02284e-09 -4.35614e-09 0)
(-3.23695e-09 8.88177e-10 0)
(-6.23187e-10 8.12357e-10 0)
(1.73371e-09 -1.71083e-09 0)
(-6.4807e-09 1.3845e-09 0)
(-4.47e-09 1.16528e-09 0)
(2.41246e-09 -1.01636e-09 0)
(4.65609e-09 -1.73186e-09 0)
(1.33216e-09 -7.69278e-10 0)
(1.31155e-10 2.82967e-09 0)
(8.89289e-10 -7.05769e-10 0)
(8.30486e-10 -2.47651e-09 0)
(1.60541e-09 -1.37572e-09 0)
(-2.30295e-10 -1.67853e-09 0)
(1.291e-09 -1.59519e-09 0)
(-1.41519e-09 5.3431e-09 0)
(3.27555e-09 1.60267e-09 0)
(-1.03646e-08 2.38844e-09 0)
(6.6536e-09 -4.59876e-10 0)
(5.53555e-09 -1.43524e-09 0)
(-1.45497e-08 1.17147e-08 0)
(1.00701e-08 -4.22881e-09 0)
(7.99496e-10 -1.70979e-09 0)
(-1.24702e-09 -7.51485e-10 0)
(-2.93798e-10 4.08166e-10 0)
(-2.73875e-09 2.62166e-09 0)
(4.64034e-10 2.17161e-09 0)
(4.59302e-09 -3.5119e-10 0)
(2.4856e-09 -8.92836e-10 0)
(-1.82205e-09 2.75139e-09 0)
(-1.36208e-09 -4.78462e-10 0)
(4.34009e-10 -2.05047e-09 0)
(1.41963e-09 -1.28603e-09 0)
(1.39285e-09 -1.14225e-09 0)
(6.16166e-10 1.56487e-09 0)
(2.19051e-09 2.04551e-09 0)
(-5.83908e-09 4.3901e-10 0)
(7.10255e-09 -7.93274e-09 0)
(-2.18653e-08 2.56596e-08 0)
(2.21602e-08 -2.33601e-08 0)
(-2.80644e-09 5.15152e-09 0)
(-2.20101e-08 1.62982e-08 0)
(8.1841e-09 -2.22752e-10 0)
(6.39038e-09 -9.90088e-10 0)
(-4.83662e-10 3.78792e-10 0)
(-1.80024e-09 1.19672e-09 0)
(3.1854e-10 7.32166e-10 0)
(4.51397e-09 -1.89267e-09 0)
(4.6222e-09 -1.67226e-09 0)
(-2.52103e-09 1.0634e-09 0)
(-2.75388e-09 -1.58055e-10 0)
(5.41359e-11 -1.84041e-10 0)
(2.07953e-09 3.90666e-10 0)
(9.73985e-10 4.24339e-10 0)
(1.69318e-09 6.4639e-10 0)
(-1.64984e-09 -1.10055e-09 0)
(-2.11579e-09 -3.72148e-09 0)
(5.00584e-09 6.10824e-09 0)
(1.73012e-09 -4.94449e-09 0)
(-4.02656e-08 8.84404e-09 0)
(6.35295e-08 -3.39031e-08 0)
(-4.67526e-09 5.72025e-09 0)
(-2.41474e-08 9.38319e-09 0)
(7.09523e-10 6.55721e-10 0)
(2.66401e-09 -5.42499e-11 0)
(-1.78327e-09 8.50896e-10 0)
(-8.51659e-10 -4.1523e-10 0)
(4.49537e-09 -2.19929e-09 0)
(7.03486e-09 -1.51092e-09 0)
(-1.75856e-09 -1.44167e-10 0)
(-2.78783e-09 7.11797e-10 0)
(2.92911e-10 1.85871e-09 0)
(1.52589e-09 1.11047e-09 0)
(8.27658e-10 -2.08781e-10 0)
(-7.70717e-10 -1.2781e-09 0)
(-1.01259e-09 -3.07358e-09 0)
(1.75843e-09 -2.56726e-10 0)
(-8.05291e-09 3.65902e-09 0)
(3.56193e-08 -9.15124e-09 0)
(-5.07268e-07 1.68326e-08 0)
(-4.78187e-09 2.98659e-08 0)
(4.43011e-08 -9.03854e-09 0)
(-2.4451e-09 1.08959e-09 0)
(-7.81908e-09 5.73755e-09 0)
(-1.27773e-09 2.25373e-09 0)
(-3.34927e-09 1.96492e-10 0)
(-3.08201e-09 8.72076e-10 0)
(3.19771e-09 7.18e-10 0)
(7.51318e-09 1.47111e-10 0)
(-6.81826e-10 -1.48799e-10 0)
(-1.92499e-09 1.79099e-09 0)
(1.25302e-10 2.95692e-09 0)
(6.59169e-10 -1.85018e-10 0)
(-7.56567e-10 -2.16804e-09 0)
(-6.04654e-10 -1.10675e-09 0)
(-2.65808e-10 -3.01617e-09 0)
(-1.87565e-09 3.0638e-09 0)
(1.00032e-08 5.23495e-09 0)
(-3.71249e-08 -1.1825e-08 0)
(5.00494e-07 2.38482e-08 0)
(1.22568e-08 2.22888e-08 0)
(-4.36219e-08 -1.30189e-08 0)
(-9.33242e-10 -2.75779e-09 0)
(1.09331e-09 2.77012e-09 0)
(-5.94749e-09 1.8111e-09 0)
(-2.71571e-09 3.25411e-09 0)
(-2.30968e-09 5.03792e-09 0)
(1.49339e-09 4.74349e-09 0)
(6.01493e-09 1.67431e-09 0)
(-1.22352e-10 3.60638e-10 0)
(-7.53686e-10 2.03163e-09 0)
(-5.55629e-10 2.31254e-09 0)
(-9.19014e-10 -1.36735e-09 0)
(-6.79566e-10 -3.67729e-09 0)
(-1.07172e-09 -1.39623e-10 0)
(2.20012e-09 3.56987e-10 0)
(4.53915e-09 1.04555e-09 0)
(-9.49167e-09 1.08592e-08 0)
(6.9499e-09 -1.19201e-08 0)
(3.16952e-08 -7.94996e-09 0)
(-6.70538e-08 -3.83703e-08 0)
(1.54491e-08 -5.25779e-09 0)
(2.1243e-08 1.21029e-09 0)
(-2.87329e-09 -2.5899e-09 0)
(-3.50194e-09 -1.36654e-09 0)
(-3.831e-09 3.60728e-09 0)
(-1.78852e-09 5.97625e-09 0)
(-2.68877e-09 5.75791e-09 0)
(-2.93883e-09 2.13073e-09 0)
(-1.56964e-10 1.57554e-10 0)
(-2.49109e-10 4.52311e-10 0)
(-1.20577e-09 6.30539e-10 0)
(-2.28772e-09 -1.03172e-09 0)
(-6.29154e-10 -2.26112e-09 0)
(6.8816e-10 -8.16516e-10 0)
(2.06698e-09 2.31088e-09 0)
(6.0421e-09 2.53185e-09 0)
(-6.17503e-09 -9.48002e-09 0)
(-7.76596e-09 3.437e-08 0)
(4.59737e-08 -2.32962e-07 0)
(1.12522e-08 -1.31183e-08 0)
(2.2366e-08 1.6164e-08 0)
(4.02358e-09 -2.4692e-09 0)
(-3.18499e-09 -1.93311e-09 0)
(2.2238e-10 -8.64025e-10 0)
(4.37372e-09 7.99434e-10 0)
(1.89161e-09 2.16549e-09 0)
(-3.2845e-09 2.30823e-09 0)
(-4.80911e-09 1.01979e-09 0)
(-4.6121e-10 -1.03401e-09 0)
(3.91735e-11 -1.80348e-09 0)
(-1.01941e-09 -1.5086e-09 0)
(-2.25285e-09 9.73921e-10 0)
(-1.05695e-09 1.36385e-09 0)
(7.34403e-10 -2.2164e-10 0)
(3.04426e-09 1.51578e-09 0)
(-5.27461e-10 -3.63748e-09 0)
(1.96657e-08 -2.73414e-09 0)
(-2.18437e-07 -1.15415e-08 0)
(-1.34341e-07 2.50724e-07 0)
(3.19593e-07 3.08788e-08 0)
(1.20402e-08 -8.71341e-10 0)
(-3.99944e-09 1.22487e-09 0)
(1.4618e-09 -4.91532e-10 0)
(3.25561e-09 2.21152e-10 0)
(5.76955e-09 -6.93796e-10 0)
(8.09788e-10 -2.63543e-09 0)
(-4.30962e-09 -3.12814e-09 0)
(-4.97693e-09 -1.38627e-09 0)
(-7.14882e-10 -2.24197e-09 0)
(8.61145e-11 -2.89281e-09 0)
(6.10535e-10 -2.52847e-09 0)
(-6.85574e-10 1.75614e-09 0)
(-6.66527e-10 5.63643e-09 0)
(-7.00432e-10 1.73612e-09 0)
(-6.65689e-10 4.44115e-10 0)
(1.39067e-09 -5.60214e-09 0)
(-1.32891e-08 -4.79177e-09 0)
(2.20756e-07 -1.31384e-08 0)
(1.34475e-07 2.39131e-07 0)
(-3.22766e-07 2.04755e-08 0)
(-1.46978e-08 3.24908e-09 0)
(2.98708e-09 8.45498e-10 0)
(-3.6649e-09 -1.92316e-09 0)
(3.08563e-09 -7.38801e-10 0)
(2.00574e-09 -4.81956e-09 0)
(-2.15272e-09 -6.99682e-09 0)
(-3.97681e-09 -5.88465e-09 0)
(-1.67162e-09 -2.24321e-09 0)
(-9.15773e-10 -2.67036e-09 0)
(6.90589e-10 -1.81024e-09 0)
(2.12936e-09 -1.57256e-09 0)
(2.23637e-09 4.06794e-10 0)
(-2.7015e-10 5.16239e-09 0)
(-1.12555e-09 4.56562e-09 0)
(-3.87879e-09 -7.33981e-10 0)
(-1.91058e-09 9.5455e-10 0)
(1.63582e-09 -9.82494e-09 0)
(1.80843e-08 1.26062e-08 0)
(-6.9187e-08 -2.43403e-07 0)
(1.42231e-08 -2.10829e-08 0)
(-5.91437e-09 6.65891e-10 0)
(-1.54679e-08 -5.68884e-09 0)
(-1.42929e-09 -1.04864e-09 0)
(8.81366e-10 -1.59839e-09 0)
(-2.25216e-09 -5.68649e-09 0)
(-2.72217e-09 -6.05469e-09 0)
(-8.8845e-10 -2.86479e-09 0)
(2.27713e-09 -3.99349e-10 0)
(-5.76368e-10 -2.01075e-09 0)
(1.81419e-09 7.2638e-10 0)
(2.31451e-09 8.51296e-10 0)
(3.38753e-09 -1.4613e-09 0)
(1.85407e-09 -5.40683e-10 0)
(-6.85319e-10 3.37293e-09 0)
(-2.81525e-09 1.03895e-09 0)
(-3.49961e-09 2.79146e-09 0)
(-7.77611e-10 1.78956e-09 0)
(-4.9736e-09 -1.23494e-08 0)
(7.74168e-09 -1.08495e-08 0)
(-4.59231e-09 -6.80664e-09 0)
(-1.05236e-08 -1.29278e-08 0)
(-2.3399e-09 -4.51248e-09 0)
(1.22026e-09 -3.87923e-10 0)
(-3.13016e-09 -1.67291e-09 0)
(-3.9013e-09 -2.12872e-09 0)
(1.212e-10 1.66195e-10 0)
(2.4756e-09 3.56978e-09 0)
(2.38723e-09 2.48199e-09 0)
(4.64115e-10 -6.59567e-10 0)
(3.25147e-09 2.56078e-09 0)
(9.37715e-10 3.13557e-09 0)
(1.65765e-09 -1.47366e-09 0)
(2.78914e-09 -5.73975e-09 0)
(1.56134e-09 -2.17423e-09 0)
(-2.29341e-10 1.75847e-09 0)
(-2.97393e-09 3.1653e-09 0)
(-2.97722e-09 6.44144e-09 0)
(-2.39832e-09 7.66807e-10 0)
(-1.41604e-10 -2.02136e-09 0)
(-1.22495e-09 -5.45413e-09 0)
(-2.4074e-09 -2.66227e-09 0)
(2.77676e-09 -1.48566e-10 0)
(1.01225e-09 -6.47496e-10 0)
(-2.69881e-09 1.03805e-10 0)
(6.50748e-10 3.56851e-09 0)
(4.67358e-09 6.22301e-09 0)
(2.88208e-09 6.87136e-09 0)
(-2.12938e-09 3.32005e-09 0)
(1.93109e-09 9.33405e-10 0)
(4.0075e-09 1.77951e-09 0)
(-5.96438e-10 2.91227e-09 0)
(-1.78917e-09 8.01327e-10 0)
(1.61576e-09 -4.95958e-09 0)
(3.13476e-09 -6.22176e-09 0)
(2.43543e-09 -7.77524e-10 0)
(-7.05558e-10 1.54278e-09 0)
(-1.75965e-09 5.84349e-09 0)
(-3.84484e-09 5.97787e-09 0)
(1.51844e-10 6.25367e-09 0)
(3.96005e-10 3.08162e-09 0)
(2.02783e-09 3.0582e-09 0)
(3.97027e-09 2.61542e-09 0)
(1.26895e-09 1.19513e-09 0)
(2.41236e-09 3.99754e-09 0)
(6.1698e-09 7.36018e-09 0)
(5.58384e-09 6.17315e-09 0)
(-4.76126e-10 2.94434e-09 0)
(-7.03842e-09 7.29575e-10 0)
(2.60171e-09 2.36373e-09 0)
(2.92217e-09 -7.75681e-10 0)
(-1.02218e-09 -1.30631e-10 0)
(-3.52685e-09 2.72092e-09 0)
(-1.03034e-09 1.3579e-09 0)
(2.03153e-09 -3.95964e-09 0)
(2.82269e-09 -3.95617e-09 0)
(8.96745e-10 -2.06524e-09 0)
(-8.71777e-10 3.18694e-10 0)
(-1.32785e-09 3.67495e-09 0)
(-1.04376e-09 6.48538e-09 0)
(-1.01464e-09 4.6633e-09 0)
(1.90734e-09 4.0753e-09 0)
(2.81448e-09 3.19754e-09 0)
(3.59984e-09 3.49316e-09 0)
(6.24785e-09 5.39593e-09 0)
(5.6616e-09 4.85113e-09 0)
(9.74707e-10 -5.42719e-10 0)
(-4.18299e-09 -5.50425e-09 0)
(-6.62308e-09 -3.43523e-09 0)
(1.68668e-09 2.39896e-09 0)
(2.23677e-10 -2.01716e-09 0)
(-4.07524e-10 -2.78727e-09 0)
(-2.01651e-09 2.28412e-09 0)
(-2.57378e-09 5.58676e-09 0)
(-1.0157e-09 1.31438e-09 0)
(6.39795e-10 -3.43734e-09 0)
(1.29948e-09 -4.18841e-09 0)
(8.32642e-10 -3.13634e-09 0)
(6.14003e-10 -5.0087e-10 0)
(-5.87387e-10 9.37352e-10 0)
(-1.3285e-09 1.06543e-09 0)
(2.83778e-10 7.77958e-10 0)
(1.44262e-09 1.31292e-09 0)
(3.23028e-09 2.45061e-09 0)
(2.73776e-09 2.16976e-09 0)
(-1.91816e-09 -7.31255e-10 0)
(-5.59982e-09 -5.9672e-09 0)
(-4.43417e-09 -9.45888e-09 0)
(4.72462e-10 -5.03974e-09 0)
(9.27291e-10 9.22394e-10 0)
(-1.85815e-09 -9.8658e-10 0)
(2.87545e-10 -1.65939e-09 0)
(3.00792e-11 6.85851e-10 0)
(-2.67131e-09 2.9882e-09 0)
(-3.36065e-09 1.70201e-09 0)
(-1.64443e-09 -9.09639e-10 0)
(1.16888e-09 -1.94182e-09 0)
(2.23062e-09 -1.74487e-09 0)
(2.00261e-09 -9.37015e-10 0)
(6.61099e-11 -6.64684e-10 0)
(-1.08828e-09 -6.00338e-10 0)
(-3.91656e-10 -6.38381e-10 0)
(4.6486e-10 -9.28861e-11 0)
(1.2808e-09 4.26249e-10 0)
(-1.68373e-09 -1.03279e-10 0)
(-7.14272e-09 -1.52267e-09 0)
(-8.13654e-09 -3.35848e-09 0)
(-2.04914e-09 -4.41792e-09 0)
(7.4271e-09 -2.29237e-09 0)
)
;

boundaryField
{
    sides
    {
        type            calculated;
        value           nonuniform List<vector> 
40
(
(9.27291e-10 0 0)
(-1.85815e-09 0 0)
(2.87545e-10 0 0)
(3.00792e-11 0 0)
(-2.67131e-09 0 0)
(-3.36065e-09 0 0)
(-1.64443e-09 0 0)
(1.16888e-09 0 0)
(2.23062e-09 0 0)
(2.00261e-09 0 0)
(6.61099e-11 0 0)
(-1.08828e-09 0 0)
(-3.91656e-10 0 0)
(4.6486e-10 0 0)
(1.2808e-09 0 0)
(-1.68373e-09 0 0)
(-7.14272e-09 0 0)
(-8.13654e-09 0 0)
(-2.04914e-09 0 0)
(7.4271e-09 0 0)
(-9.48611e-10 0 0)
(-2.83216e-09 0 0)
(-2.38574e-09 0 0)
(-1.62389e-09 0 0)
(-9.53823e-10 0 0)
(-9.32693e-10 0 0)
(-1.47694e-09 0 0)
(5.38401e-10 0 0)
(3.22722e-09 0 0)
(6.85404e-09 0 0)
(1.20655e-09 0 0)
(-1.84107e-09 0 0)
(-1.24562e-09 0 0)
(-9.71404e-10 0 0)
(3.50553e-09 0 0)
(5.71899e-09 0 0)
(3.37775e-09 0 0)
(2.44397e-10 0 0)
(-3.52808e-09 0 0)
(-5.71938e-09 0 0)
)
;
    }
    inlet
    {
        type            calculated;
        value           uniform (0 0 0);
    }
    outlet
    {
        type            calculated;
        value           nonuniform List<vector> 
20
(
(-5.71938e-09 -3.94601e-10 0)
(-4.3953e-09 -7.24168e-10 0)
(-1.69772e-09 -9.05369e-10 0)
(1.33216e-09 -7.69278e-10 0)
(2.4856e-09 -8.92836e-10 0)
(4.6222e-09 -1.67226e-09 0)
(7.03486e-09 -1.51092e-09 0)
(7.51318e-09 1.47111e-10 0)
(6.01493e-09 1.67431e-09 0)
(-2.93883e-09 2.13073e-09 0)
(-4.80911e-09 1.01979e-09 0)
(-4.97693e-09 -1.38627e-09 0)
(-1.67162e-09 -2.24321e-09 0)
(2.27713e-09 -3.99349e-10 0)
(2.38723e-09 2.48199e-09 0)
(-2.12938e-09 3.32005e-09 0)
(-7.03842e-09 7.29575e-10 0)
(-6.62308e-09 -3.43523e-09 0)
(4.72462e-10 -5.03974e-09 0)
(7.4271e-09 -2.29237e-09 0)
)
;
    }
    frontAndBack
    {
        type            empty;
    }
}


// ************************************************************************* //
