/*--------------------------------*- C++ -*----------------------------------*\
  =========                 |
  \\      /  F ield         | OpenFOAM: The Open Source CFD Toolbox
   \\    /   O peration     | Website:  https://openfoam.org
    \\  /    A nd           | Version:  9
     \\/     M anipulation  |
\*---------------------------------------------------------------------------*/
FoamFile
{
    format      ascii;
    class       volScalarField;
    location    "93";
    object      ddt0(h);
}
// * * * * * * * * * * * * * * * * * * * * * * * * * * * * * * * * * * * * * //

dimensions      [0 1 -1 0 0 0 0];

internalField   nonuniform List<scalar> 
400
(
2.3188e-10
3.23543e-10
1.05498e-08
1.22562e-08
-6.85322e-09
-2.83323e-08
-3.43533e-08
-6.41017e-09
-5.1877e-09
3.97433e-09
3.78805e-09
3.13014e-08
2.18967e-08
3.81959e-09
1.79351e-08
2.1047e-08
9.99725e-09
7.63708e-09
-2.24843e-09
-5.94581e-09
7.54304e-09
1.41488e-09
4.47284e-09
4.41488e-09
-1.09198e-08
-2.11282e-08
-7.69641e-09
1.3169e-08
5.61753e-09
6.83761e-09
2.61114e-08
-2.83296e-09
1.58758e-08
-1.17313e-08
-8.84351e-09
8.15305e-09
1.20161e-08
4.1075e-09
-5.97128e-09
-5.65932e-09
4.78302e-09
-1.53683e-09
1.00271e-09
-4.95332e-09
-8.98419e-09
-2.39661e-10
4.05722e-08
-3.78201e-09
2.57066e-08
-2.8043e-08
1.58029e-08
-2.09423e-08
-2.47875e-08
-4.10017e-09
-3.36723e-08
-2.39214e-08
4.56424e-09
7.46352e-09
-2.65716e-10
-6.10653e-10
-9.76481e-10
-2.66376e-09
-7.46851e-11
-1.05584e-08
-4.16523e-09
3.8839e-08
2.0776e-08
-1.23415e-08
1.75157e-09
1.62291e-08
-7.10624e-08
3.69881e-08
-3.92653e-08
-3.08171e-09
5.37463e-09
-2.28652e-08
-1.68711e-08
-5.98394e-09
4.15355e-09
5.89721e-09
-5.21421e-09
2.16593e-09
-1.73714e-10
-1.43136e-08
1.1321e-08
3.32458e-08
-2.81725e-08
3.25984e-08
-3.11442e-08
3.86804e-08
3.54852e-08
-7.70234e-08
4.83232e-08
-3.74327e-10
1.78633e-09
3.70137e-09
-1.14581e-08
-9.14009e-09
1.29823e-08
1.30389e-08
-7.71674e-09
1.09192e-08
-1.65808e-09
-1.49103e-08
1.11878e-08
-4.72989e-09
7.33779e-09
-1.98453e-08
9.32149e-08
-1.71696e-07
1.34901e-07
-5.61111e-08
-8.73859e-08
4.39576e-08
2.87953e-08
5.80171e-09
-3.31816e-09
4.09807e-09
2.56997e-08
1.79284e-08
-3.10817e-09
1.36401e-08
-6.31174e-09
-1.85903e-08
-7.24291e-10
7.86273e-09
-2.00947e-08
7.45745e-08
-1.27991e-07
1.27538e-07
-1.88226e-07
2.9503e-07
-4.92753e-08
-7.35619e-08
1.15475e-08
1.31876e-08
-5.38523e-10
9.73643e-09
3.00162e-08
1.80667e-08
4.2564e-09
9.68174e-09
-1.47616e-08
-1.95786e-08
6.62457e-09
-9.1226e-10
1.82291e-08
-1.81305e-08
-6.48082e-08
3.80091e-07
-4.79518e-06
-2.97529e-08
1.12274e-07
-9.47949e-09
-1.73911e-08
-2.77313e-09
-1.12417e-08
1.67275e-09
2.03352e-08
1.32269e-08
6.1523e-09
-1.05763e-09
-1.45052e-08
-1.12542e-08
8.78876e-09
1.55896e-08
-1.53163e-08
8.08298e-09
1.815e-08
-3.94557e-07
4.73937e-06
5.36505e-08
-1.24342e-07
-2.38026e-09
2.66787e-09
-1.41125e-08
7.49011e-09
-1.03806e-08
5.20263e-09
2.23903e-08
-9.83802e-10
-9.2028e-09
-6.54833e-09
9.00053e-09
2.82832e-09
5.32228e-09
1.04356e-08
-7.59321e-08
8.36733e-08
-5.78603e-08
1.6261e-07
-2.80902e-07
9.87436e-08
6.21571e-08
-1.483e-08
-2.73556e-08
-4.60255e-08
-1.56039e-09
-2.88054e-09
-2.0624e-08
-8.13691e-09
-1.27464e-08
5.42025e-09
2.10723e-08
-9.24081e-10
-1.28337e-08
-3.46133e-09
-1.86112e-08
-1.57669e-08
8.02374e-08
4.94255e-07
1.87673e-08
1.13396e-07
2.15767e-08
-1.31458e-08
-1.31898e-08
5.47594e-09
8.84462e-09
-2.44206e-09
-4.92463e-09
-8.34426e-09
-9.10662e-09
5.48234e-09
2.56846e-08
-3.41498e-09
-2.31731e-08
-1.60047e-08
-8.69941e-09
1.5777e-08
1.18909e-07
-8.15012e-07
7.06516e-07
-4.34486e-08
8.46514e-09
1.1585e-08
1.35882e-08
1.85082e-08
8.07767e-09
-7.90327e-09
-7.50089e-09
-3.83282e-09
-9.5384e-10
7.12698e-10
8.05064e-09
8.79767e-09
-2.92631e-08
2.2549e-09
-1.81946e-08
3.9499e-09
-1.2212e-07
8.41093e-07
-6.93133e-07
3.65479e-08
-3.0891e-10
-4.79472e-09
1.67786e-08
8.00956e-09
-7.42418e-09
-1.79137e-08
-1.04589e-08
-2.46067e-09
5.87421e-09
-2.02332e-09
-1.16034e-08
7.06932e-10
9.11786e-09
-1.25817e-08
3.43366e-08
-7.96485e-08
7.61346e-08
-6.35791e-07
1.09251e-07
-4.2361e-08
-5.57834e-08
1.77808e-09
1.62484e-08
-1.83734e-09
-1.64581e-08
-1.61896e-08
-7.10618e-09
-7.95595e-09
6.85133e-09
4.22212e-09
-1.79866e-08
-1.22584e-08
2.66875e-08
1.83276e-08
2.31585e-08
1.00906e-08
-8.10106e-08
3.37432e-08
-5.71782e-08
-6.06573e-08
-2.36385e-08
2.80121e-09
-3.00321e-10
-9.77464e-09
-1.36472e-08
-7.45399e-09
-1.39491e-09
-1.50904e-08
-4.17047e-10
1.56026e-08
-1.68773e-09
-2.07041e-08
1.53385e-08
3.11296e-08
1.79883e-08
2.63146e-08
1.94201e-09
-1.10419e-08
-2.76078e-08
-2.53774e-08
2.58215e-09
2.25864e-10
-2.87044e-09
4.35848e-09
-1.21717e-09
-1.54072e-09
1.47195e-09
-1.55566e-08
-1.10835e-08
2.04489e-08
2.10178e-08
-9.94775e-09
-1.46261e-08
1.70215e-08
8.02843e-09
2.52501e-08
1.51505e-08
1.64342e-08
-2.85411e-09
1.20961e-08
2.31041e-08
4.23925e-09
1.15363e-08
2.44219e-08
5.93014e-09
-7.41462e-09
-2.43519e-09
-2.43602e-09
-1.59689e-08
7.66335e-09
2.6092e-08
9.57114e-09
-2.461e-08
-1.72276e-08
-5.94097e-09
4.76936e-09
8.21585e-09
4.81422e-09
4.80972e-09
2.33646e-08
2.54368e-08
1.55799e-08
2.28006e-08
2.75517e-08
5.07861e-09
-1.49125e-08
-8.37458e-09
1.46033e-08
-5.93845e-09
-1.30053e-08
3.35515e-09
1.26078e-08
-4.33364e-09
-2.00984e-08
-1.24058e-08
-4.09048e-09
-2.83909e-09
-4.23737e-09
2.8382e-09
1.04535e-08
7.08043e-09
3.80177e-09
-8.85805e-10
-9.70758e-10
-1.57776e-09
-1.38153e-08
-1.08923e-08
2.92483e-08
8.64433e-09
-2.35044e-08
-2.31296e-08
6.13531e-10
1.09119e-08
-6.11907e-09
-4.93965e-09
1.54944e-10
1.26338e-11
-1.53966e-09
4.60494e-09
-1.07164e-09
-1.28637e-08
-1.53823e-08
-2.58051e-08
-2.12182e-08
2.50545e-09
-2.61445e-10
-7.37671e-09
)
;

boundaryField
{
    sides
    {
        type            calculated;
        value           nonuniform List<scalar> 
40
(
2.92483e-08
8.64433e-09
-2.35044e-08
-2.31296e-08
6.13531e-10
1.09119e-08
-6.11907e-09
-4.93965e-09
1.54944e-10
1.26338e-11
-1.53966e-09
4.60494e-09
-1.07164e-09
-1.28637e-08
-1.53823e-08
-2.58051e-08
-2.12182e-08
2.50545e-09
-2.61445e-10
-7.37671e-09
2.3188e-10
3.23543e-10
1.05498e-08
1.22562e-08
-6.85322e-09
-2.83323e-08
-3.43533e-08
-6.41017e-09
-5.1877e-09
3.97433e-09
3.78805e-09
3.13014e-08
2.18967e-08
3.81959e-09
1.79351e-08
2.1047e-08
9.99725e-09
7.63708e-09
-2.24843e-09
-5.94581e-09
)
;
    }
    inlet
    {
        type            calculated;
        value           nonuniform List<scalar> 
20
(
2.3188e-10
7.54304e-09
4.78302e-09
-9.76481e-10
-5.21421e-09
-7.71674e-09
-3.10817e-09
4.2564e-09
6.1523e-09
-9.83802e-10
-8.13691e-09
-8.34426e-09
-3.83282e-09
-2.46067e-09
-7.95595e-09
-1.50904e-08
-1.55566e-08
-2.43602e-09
1.46033e-08
2.92483e-08
)
;
    }
    outlet
    {
        type            calculated;
        value           uniform 0;
    }
    frontAndBack
    {
        type            empty;
    }
}


// ************************************************************************* //
