/*--------------------------------*- C++ -*----------------------------------*\
  =========                 |
  \\      /  F ield         | OpenFOAM: The Open Source CFD Toolbox
   \\    /   O peration     | Website:  https://openfoam.org
    \\  /    A nd           | Version:  9
     \\/     M anipulation  |
\*---------------------------------------------------------------------------*/
FoamFile
{
    format      ascii;
    class       volVectorField;
    location    "93";
    object      hU;
}
// * * * * * * * * * * * * * * * * * * * * * * * * * * * * * * * * * * * * * //

dimensions      [0 2 -1 0 0 0 0];

internalField   nonuniform List<vector> 
400
(
(0.001 -2.43695e-08 0)
(0.00100004 -7.06548e-08 0)
(0.00100012 -1.1337e-07 0)
(0.00100024 -1.52392e-07 0)
(0.00100039 -1.87044e-07 0)
(0.00100058 -2.16238e-07 0)
(0.00100078 -2.36425e-07 0)
(0.00100099 -2.45099e-07 0)
(0.00100118 -2.36097e-07 0)
(0.00100133 -2.11246e-07 0)
(0.0010014 -1.68688e-07 0)
(0.0010014 -1.28904e-07 0)
(0.00100129 -9.95237e-08 0)
(0.00100111 -9.34333e-08 0)
(0.00100087 -1.00098e-07 0)
(0.00100065 -1.36071e-07 0)
(0.00100044 -1.56945e-07 0)
(0.00100034 -2.01488e-07 0)
(0.00100026 -1.88889e-07 0)
(0.00100033 -2.68523e-07 0)
(0.001 -2.7123e-08 0)
(0.00100005 -7.91655e-08 0)
(0.00100013 -1.28596e-07 0)
(0.00100026 -1.7404e-07 0)
(0.00100042 -2.12654e-07 0)
(0.00100062 -2.39143e-07 0)
(0.00100084 -2.44999e-07 0)
(0.00100108 -2.20014e-07 0)
(0.0010013 -1.54411e-07 0)
(0.00100147 -4.79676e-08 0)
(0.00100156 9.27573e-08 0)
(0.00100154 2.46568e-07 0)
(0.00100141 3.88524e-07 0)
(0.00100119 4.76067e-07 0)
(0.00100093 5.045e-07 0)
(0.00100067 4.51139e-07 0)
(0.00100048 3.77737e-07 0)
(0.00100036 2.56592e-07 0)
(0.00100033 2.04995e-07 0)
(0.00100029 8.09743e-08 0)
(0.001 -5.3081e-08 0)
(0.00100004 -1.59576e-07 0)
(0.00100013 -2.67357e-07 0)
(0.00100026 -3.73729e-07 0)
(0.00100043 -4.72844e-07 0)
(0.00100065 -5.54562e-07 0)
(0.0010009 -6.03301e-07 0)
(0.00100117 -5.97384e-07 0)
(0.00100143 -5.18212e-07 0)
(0.00100164 -3.51896e-07 0)
(0.00100176 -1.1072e-07 0)
(0.00100176 1.61826e-07 0)
(0.00100159 4.01516e-07 0)
(0.00100131 5.19866e-07 0)
(0.00100095 4.996e-07 0)
(0.00100062 3.53863e-07 0)
(0.00100037 2.02951e-07 0)
(0.00100026 4.58408e-08 0)
(0.00100022 -3.39593e-09 0)
(0.0010003 -1.17167e-07 0)
(0.001 -7.37162e-08 0)
(0.00100004 -2.22865e-07 0)
(0.00100013 -3.7556e-07 0)
(0.00100026 -5.30757e-07 0)
(0.00100045 -6.80356e-07 0)
(0.00100069 -8.0996e-07 0)
(0.001001 -8.89196e-07 0)
(0.00100134 -8.8554e-07 0)
(0.00100171 -7.55553e-07 0)
(0.00100203 -4.75331e-07 0)
(0.00100222 -2.24226e-08 0)
(0.00100219 4.92756e-07 0)
(0.00100192 9.37074e-07 0)
(0.00100146 1.14e-06 0)
(0.00100097 1.05507e-06 0)
(0.00100058 7.43722e-07 0)
(0.00100041 4.24369e-07 0)
(0.00100035 1.70285e-07 0)
(0.0010004 1.02052e-07 0)
(0.00100035 3.94583e-10 0)
(0.001 -9.06896e-08 0)
(0.00100004 -2.78383e-07 0)
(0.00100012 -4.77788e-07 0)
(0.00100025 -6.94523e-07 0)
(0.00100044 -9.21062e-07 0)
(0.00100072 -1.1397e-06 0)
(0.00100109 -1.299e-06 0)
(0.00100155 -1.3374e-06 0)
(0.00100206 -1.17547e-06 0)
(0.00100257 -7.78579e-07 0)
(0.0010029 -1.70329e-07 0)
(0.00100288 5.8002e-07 0)
(0.00100244 1.23101e-06 0)
(0.00100167 1.51183e-06 0)
(0.00100086 1.3756e-06 0)
(0.00100031 9.65295e-07 0)
(0.00100013 5.82165e-07 0)
(0.00100022 3.14957e-07 0)
(0.00100037 2.62377e-07 0)
(0.00100043 1.67943e-07 0)
(0.001 -1.02862e-07 0)
(0.00100003 -3.18772e-07 0)
(0.00100009 -5.62852e-07 0)
(0.00100019 -8.4527e-07 0)
(0.00100038 -1.17327e-06 0)
(0.00100068 -1.5255e-06 0)
(0.00100115 -1.85957e-06 0)
(0.00100178 -2.05462e-06 0)
(0.00100254 -1.913e-06 0)
(0.00100326 -1.1985e-06 0)
(0.00100377 8.33949e-08 0)
(0.00100378 1.54403e-06 0)
(0.00100309 2.43538e-06 0)
(0.00100192 2.30498e-06 0)
(0.00100082 1.43015e-06 0)
(0.00100019 4.92712e-07 0)
(0.00100017 1.35477e-08 0)
(0.00100037 -8.52592e-08 0)
(0.00100064 5.99804e-08 0)
(0.00100055 4.98146e-08 0)
(0.001 -1.02268e-07 0)
(0.001 -3.33728e-07 0)
(0.00100002 -6.02379e-07 0)
(0.00100008 -9.62342e-07 0)
(0.00100021 -1.3928e-06 0)
(0.00100048 -1.94682e-06 0)
(0.001001 -2.49001e-06 0)
(0.00100188 -3.08507e-06 0)
(0.00100321 -3.23403e-06 0)
(0.00100473 -2.88026e-06 0)
(0.00100573 -6.67337e-07 0)
(0.00100536 2.55281e-06 0)
(0.00100349 4.8283e-06 0)
(0.00100112 4.73712e-06 0)
(0.000999609 3.02828e-06 0)
(0.000999372 1.2638e-06 0)
(0.00100001 4.30852e-07 0)
(0.00100056 3.26123e-07 0)
(0.00100093 5.61311e-07 0)
(0.00100066 5.33582e-07 0)
(0.000999995 -9.25096e-08 0)
(0.000999968 -2.88954e-07 0)
(0.000999907 -5.7709e-07 0)
(0.000999876 -9.56844e-07 0)
(0.000999879 -1.57785e-06 0)
(0.0010001 -2.34556e-06 0)
(0.0010005 -3.40342e-06 0)
(0.00100152 -4.12521e-06 0)
(0.00100308 -4.37202e-06 0)
(0.00100602 -2.55029e-06 0)
(0.00100908 7.52297e-07 0)
(0.00100914 4.26917e-06 0)
(0.00100551 4.71892e-06 0)
(0.00100074 2.78299e-06 0)
(0.00099815 7.35977e-07 0)
(0.000998274 -2.74648e-07 0)
(0.000999798 -2.86355e-07 0)
(0.00100088 -1.02798e-08 0)
(0.00100133 2.11367e-07 0)
(0.00100085 1.02525e-07 0)
(0.000999995 -4.93722e-08 0)
(0.000999915 -2.03862e-07 0)
(0.000999756 -3.86228e-07 0)
(0.000999531 -7.34858e-07 0)
(0.000999288 -1.33896e-06 0)
(0.000999211 -2.48211e-06 0)
(0.000999707 -4.68834e-06 0)
(0.00100139 -8.0684e-06 0)
(0.00100491 -1.32841e-05 0)
(0.00100957 -1.49133e-05 0)
(0.00101191 3.84096e-06 0)
(0.00100894 1.87313e-05 0)
(0.00100221 1.57815e-05 0)
(0.000997566 5.7425e-06 0)
(0.000996885 -3.15554e-07 0)
(0.00099846 -1.26322e-06 0)
(0.00100027 -9.41639e-08 0)
(0.001001 6.34554e-07 0)
(0.00100107 6.51445e-07 0)
(0.00100054 2.43432e-07 0)
(0.000999804 -1.99299e-08 0)
(0.00100017 -6.65002e-08 0)
(0.000999216 -1.50904e-07 0)
(0.000999904 -2.48509e-07 0)
(0.000997521 -5.92773e-07 0)
(0.000998843 -1.13205e-06 0)
(0.000993347 -2.88413e-06 0)
(0.000997532 -5.59266e-06 0)
(0.000991667 -1.1541e-05 0)
(0.000915833 -1.27055e-05 0)
(0.00095147 2.74779e-07 0)
(0.00101022 1.46362e-05 0)
(0.000990952 1.30845e-05 0)
(0.000983975 5.14156e-06 0)
(0.000989585 1.94286e-07 0)
(0.00099628 -7.8117e-07 0)
(0.000999236 -1.10805e-07 0)
(0.000999412 2.48699e-07 0)
(0.000998647 1.74236e-07 0)
(0.000998505 -1.85068e-07 0)
(0.000999804 1.30554e-08 0)
(0.00100017 4.61706e-08 0)
(0.000999215 1.17848e-07 0)
(0.000999903 2.001e-07 0)
(0.000997518 5.29021e-07 0)
(0.000998838 1.05084e-06 0)
(0.000993339 2.78625e-06 0)
(0.000997521 5.47357e-06 0)
(0.000991651 1.13967e-05 0)
(0.000915809 1.25506e-05 0)
(0.000951432 -4.82406e-07 0)
(0.0010102 -1.49076e-05 0)
(0.000990948 -1.34071e-05 0)
(0.000983966 -5.53552e-06 0)
(0.000989566 -6.47941e-07 0)
(0.000996243 2.48633e-07 0)
(0.000999195 -4.72122e-07 0)
(0.000999367 -1.00213e-06 0)
(0.000998633 -9.88574e-07 0)
(0.000998454 -8.88697e-07 0)
(0.000999995 4.26867e-08 0)
(0.000999915 1.84065e-07 0)
(0.000999755 3.53517e-07 0)
(0.00099953 6.87424e-07 0)
(0.000999285 1.27664e-06 0)
(0.00099921 2.40149e-06 0)
(0.000999703 4.58921e-06 0)
(0.00100139 7.9423e-06 0)
(0.0010049 1.31303e-05 0)
(0.00100957 1.47167e-05 0)
(0.00101188 -4.05511e-06 0)
(0.00100891 -1.90039e-05 0)
(0.00100214 -1.60971e-05 0)
(0.000997477 -6.12386e-06 0)
(0.000996814 -8.48417e-08 0)
(0.000998401 7.75116e-07 0)
(0.00100017 -4.27597e-07 0)
(0.00100085 -1.3055e-06 0)
(0.00100088 -1.37972e-06 0)
(0.00100037 -1.25097e-06 0)
(0.000999996 8.61865e-08 0)
(0.000999968 2.70097e-07 0)
(0.000999906 5.44777e-07 0)
(0.000999871 9.10318e-07 0)
(0.00099987 1.51422e-06 0)
(0.00100008 2.26209e-06 0)
(0.00100048 3.29431e-06 0)
(0.00100149 3.99091e-06 0)
(0.00100303 4.20964e-06 0)
(0.00100595 2.36238e-06 0)
(0.00100903 -9.69398e-07 0)
(0.00100905 -4.53926e-06 0)
(0.00100542 -5.02127e-06 0)
(0.00100066 -3.13101e-06 0)
(0.000998058 -1.13254e-06 0)
(0.000998135 -2.52185e-07 0)
(0.000999622 -3.2354e-07 0)
(0.00100064 -7.42219e-07 0)
(0.00100106 -9.67692e-07 0)
(0.00100055 -1.07411e-06 0)
(0.001 9.63654e-08 0)
(0.001 3.15657e-07 0)
(0.00100002 5.71698e-07 0)
(0.00100007 9.17652e-07 0)
(0.0010002 1.3341e-06 0)
(0.00100046 1.87175e-06 0)
(0.00100097 2.3996e-06 0)
(0.00100185 2.97606e-06 0)
(0.00100318 3.11164e-06 0)
(0.00100469 2.73203e-06 0)
(0.00100568 4.96919e-07 0)
(0.00100527 -2.75503e-06 0)
(0.00100338 -5.07759e-06 0)
(0.00100096 -5.07107e-06 0)
(0.00099941 -3.44965e-06 0)
(0.000999122 -1.7945e-06 0)
(0.000999744 -1.02157e-06 0)
(0.00100025 -1.05951e-06 0)
(0.00100062 -1.3071e-06 0)
(0.00100024 -1.51549e-06 0)
(0.001 9.75617e-08 0)
(0.00100003 3.02726e-07 0)
(0.00100008 5.35872e-07 0)
(0.00100019 8.05917e-07 0)
(0.00100036 1.12139e-06 0)
(0.00100066 1.45953e-06 0)
(0.00100112 1.77885e-06 0)
(0.00100174 1.95225e-06 0)
(0.00100248 1.78422e-06 0)
(0.00100317 1.03534e-06 0)
(0.00100366 -2.80562e-07 0)
(0.00100363 -1.78204e-06 0)
(0.00100292 -2.71034e-06 0)
(0.00100171 -2.63106e-06 0)
(0.00100058 -1.77845e-06 0)
(0.000999905 -8.95345e-07 0)
(0.000999859 -4.27198e-07 0)
(0.000999982 -4.47592e-07 0)
(0.00100022 -6.15745e-07 0)
(0.00100001 -8.4826e-07 0)
(0.001 8.59806e-08 0)
(0.00100004 2.64477e-07 0)
(0.00100011 4.5478e-07 0)
(0.00100024 6.618e-07 0)
(0.00100043 8.77089e-07 0)
(0.0010007 1.08349e-06 0)
(0.00100106 1.22974e-06 0)
(0.0010015 1.25353e-06 0)
(0.001002 1.07518e-06 0)
(0.00100248 6.58141e-07 0)
(0.0010028 1.91361e-08 0)
(0.00100274 -7.69367e-07 0)
(0.00100227 -1.44867e-06 0)
(0.00100146 -1.77299e-06 0)
(0.00100062 -1.6673e-06 0)
(0.00100001 -1.34774e-06 0)
(0.000999795 -1.02882e-06 0)
(0.000999766 -9.36229e-07 0)
(0.000999885 -9.44612e-07 0)
(0.000999768 -1.10816e-06 0)
(0.001 6.96811e-08 0)
(0.00100004 2.10141e-07 0)
(0.00100012 3.54458e-07 0)
(0.00100025 5.01583e-07 0)
(0.00100043 6.4343e-07 0)
(0.00100066 7.64289e-07 0)
(0.00100096 8.36473e-07 0)
(0.00100129 8.256e-07 0)
(0.00100163 6.91876e-07 0)
(0.00100191 4.07101e-07 0)
(0.00100206 -4.61979e-08 0)
(0.001002 -5.75088e-07 0)
(0.00100171 -1.03422e-06 0)
(0.0010012 -1.28018e-06 0)
(0.00100065 -1.22891e-06 0)
(0.00100016 -9.93765e-07 0)
(0.000999915 -7.01396e-07 0)
(0.000999741 -5.56404e-07 0)
(0.000999752 -4.87149e-07 0)
(0.00099956 -5.98318e-07 0)
(0.001 5.13163e-08 0)
(0.00100004 1.50267e-07 0)
(0.00100012 2.46678e-07 0)
(0.00100025 3.38634e-07 0)
(0.00100041 4.21223e-07 0)
(0.00100062 4.82275e-07 0)
(0.00100086 5.07438e-07 0)
(0.00100112 4.72554e-07 0)
(0.00100137 3.6115e-07 0)
(0.00100157 1.55921e-07 0)
(0.00100167 -1.16431e-07 0)
(0.00100161 -4.2065e-07 0)
(0.00100139 -6.80928e-07 0)
(0.00100103 -8.41894e-07 0)
(0.00100064 -8.50023e-07 0)
(0.00100022 -7.70745e-07 0)
(0.000999951 -6.38107e-07 0)
(0.000999689 -5.97204e-07 0)
(0.000999628 -5.62156e-07 0)
(0.000999387 -6.85042e-07 0)
(0.001 3.56029e-08 0)
(0.00100004 1.05096e-07 0)
(0.00100011 1.74115e-07 0)
(0.00100023 2.41241e-07 0)
(0.00100038 3.01965e-07 0)
(0.00100056 3.49379e-07 0)
(0.00100077 3.74667e-07 0)
(0.00100097 3.68257e-07 0)
(0.00100116 3.19497e-07 0)
(0.0010013 2.23935e-07 0)
(0.00100136 8.60599e-08 0)
(0.00100131 -7.04967e-08 0)
(0.00100115 -2.06209e-07 0)
(0.00100086 -2.97443e-07 0)
(0.00100054 -3.12545e-07 0)
(0.00100017 -2.82272e-07 0)
(0.000999901 -2.03466e-07 0)
(0.000999613 -1.69691e-07 0)
(0.000999517 -1.19507e-07 0)
(0.00099925 -1.98742e-07 0)
(0.001 -3.63161e-09 0)
(0.00100004 -9.73186e-09 0)
(0.00100012 -1.31656e-08 0)
(0.00100024 -1.5059e-08 0)
(0.00100038 -1.72386e-08 0)
(0.00100056 -2.29595e-08 0)
(0.00100075 -3.396e-08 0)
(0.00100094 -5.36338e-08 0)
(0.00100112 -8.19391e-08 0)
(0.00100123 -1.22278e-07 0)
(0.00100128 -1.70092e-07 0)
(0.00100121 -2.31472e-07 0)
(0.00100107 -2.90642e-07 0)
(0.00100081 -3.41368e-07 0)
(0.00100053 -3.59771e-07 0)
(0.00100018 -3.68223e-07 0)
(0.000999946 -3.42784e-07 0)
(0.00099961 -3.53295e-07 0)
(0.000999523 -3.28291e-07 0)
(0.000999132 -4.10758e-07 0)
)
;

boundaryField
{
    sides
    {
        type            slip;
    }
    inlet
    {
        type            fixedValue;
        value           uniform (0.001 0 0);
    }
    outlet
    {
        type            zeroGradient;
    }
    frontAndBack
    {
        type            empty;
    }
}


// ************************************************************************* //
