/*--------------------------------*- C++ -*----------------------------------*\
  =========                 |
  \\      /  F ield         | OpenFOAM: The Open Source CFD Toolbox
   \\    /   O peration     | Website:  https://openfoam.org
    \\  /    A nd           | Version:  9
     \\/     M anipulation  |
\*---------------------------------------------------------------------------*/
FoamFile
{
    format      ascii;
    class       surfaceScalarField;
    location    "93";
    object      phi;
}
// * * * * * * * * * * * * * * * * * * * * * * * * * * * * * * * * * * * * * //

dimensions      [0 4 -1 0 0 0 0];

internalField   nonuniform List<scalar> 
760
(
5.00009e-06
-9.48962e-11
5.0004e-06
-3.07393e-10
5.00091e-06
-5.13641e-10
5.00161e-06
-7.04832e-10
5.00249e-06
-8.71907e-10
5.0035e-06
-9.98097e-10
5.00456e-06
-1.05469e-09
5.00557e-06
-1.01217e-09
5.0064e-06
-8.3127e-10
5.00693e-06
-5.26588e-10
5.00705e-06
-1.2871e-10
5.00665e-06
3.90787e-10
5.00579e-06
8.47857e-10
5.00469e-06
1.09874e-09
5.00352e-06
1.16716e-09
5.00257e-06
9.47318e-10
5.00185e-06
7.10059e-10
5.00161e-06
2.40691e-10
5.0015e-06
1.03741e-10
-3.92571e-10
5.00012e-06
-2.17124e-10
5.00045e-06
-6.35993e-10
5.00098e-06
-1.04725e-09
5.00172e-06
-1.44316e-09
5.00265e-06
-1.80196e-09
5.00374e-06
-2.08685e-09
5.00493e-06
-2.24242e-09
5.00611e-06
-2.19112e-09
5.00713e-06
-1.85449e-09
5.00778e-06
-1.17186e-09
5.00774e-06
-1.02279e-10
5.00725e-06
8.81205e-10
5.00626e-06
1.83609e-09
5.00495e-06
2.40986e-09
5.00368e-06
2.44165e-09
5.00278e-06
1.85362e-09
5.00225e-06
1.23936e-09
5.00191e-06
5.74655e-10
5.00165e-06
3.64417e-10
-1.48937e-10
5.00011e-06
-3.24338e-10
5.00043e-06
-9.55424e-10
5.00096e-06
-1.57948e-09
5.00172e-06
-2.20639e-09
5.00272e-06
-2.80255e-09
5.00394e-06
-3.31257e-09
5.00532e-06
-3.62436e-09
5.00672e-06
-3.59096e-09
5.00793e-06
-3.06121e-09
5.00872e-06
-1.961e-09
5.00894e-06
-3.10061e-10
5.00825e-06
1.56403e-09
5.00687e-06
3.22486e-09
5.00515e-06
4.13037e-09
5.00351e-06
4.09134e-09
5.00231e-06
3.0562e-09
5.00167e-06
1.8877e-09
5.00148e-06
7.65921e-10
5.00145e-06
3.94018e-10
-2.22688e-10
5.0001e-06
-4.21111e-10
5.00041e-06
-1.26396e-09
5.00094e-06
-2.11611e-09
5.00175e-06
-3.01083e-09
5.00286e-06
-3.91223e-09
5.00428e-06
-4.75058e-09
5.00602e-06
-5.35014e-09
5.00795e-06
-5.52791e-09
5.00984e-06
-4.94725e-09
5.01107e-06
-3.19912e-09
5.0112e-06
-4.25045e-10
5.00999e-06
2.7714e-09
5.00765e-06
5.56802e-09
5.00515e-06
6.63882e-09
5.00347e-06
5.76224e-09
5.0027e-06
3.83023e-09
5.00248e-06
2.11282e-09
5.00231e-06
9.38208e-10
5.002e-06
7.09716e-10
3.39377e-10
5.00008e-06
-5.00722e-10
5.00034e-06
-1.52214e-09
5.00083e-06
-2.61032e-09
5.00164e-06
-3.81402e-09
5.00286e-06
-5.13659e-09
5.00457e-06
-6.46638e-09
5.0068e-06
-7.57499e-09
5.00942e-06
-8.14792e-09
5.01238e-06
-7.92269e-09
5.01479e-06
-5.58756e-09
5.01482e-06
-4.79966e-10
5.01285e-06
4.76158e-09
5.00867e-06
9.74597e-09
5.0046e-06
1.07113e-08
5.00224e-06
8.11964e-09
5.00174e-06
4.32724e-09
5.00205e-06
1.81009e-09
5.00226e-06
7.28971e-10
5.00201e-06
9.53777e-10
6.27733e-10
5.00004e-06
-5.42223e-10
5.0002e-06
-1.67849e-09
5.00054e-06
-2.95017e-09
5.00121e-06
-4.48565e-09
5.00241e-06
-6.33432e-09
5.00452e-06
-8.57853e-09
5.0076e-06
-1.0654e-08
5.01167e-06
-1.22224e-08
5.01553e-06
-1.17815e-08
5.019e-06
-9.05647e-09
5.02022e-06
-1.68157e-09
5.01601e-06
8.93576e-09
5.00951e-06
1.62703e-08
5.00422e-06
1.60104e-08
5.00217e-06
1.01593e-08
5.00249e-06
4.0017e-09
5.00327e-06
1.0335e-09
5.0034e-06
6.0111e-10
5.0028e-06
1.54801e-09
1.42271e-09
4.99998e-06
-5.23724e-10
4.99994e-06
-1.63668e-09
5.00003e-06
-3.04091e-09
5.00036e-06
-4.81307e-09
5.00122e-06
-7.19362e-09
5.00292e-06
-1.02787e-08
5.0068e-06
-1.45377e-08
5.01391e-06
-1.93424e-08
5.02377e-06
-2.15983e-08
5.03091e-06
-1.6269e-08
5.02874e-06
6.24633e-10
5.01674e-06
2.09357e-08
5.00417e-06
2.88073e-08
4.99873e-06
2.14628e-08
5.00058e-06
8.31789e-09
5.00285e-06
1.73004e-09
5.00372e-06
1.62696e-10
5.00367e-06
6.52669e-10
5.00305e-06
2.16266e-09
1.68109e-09
4.99986e-06
-3.90839e-10
4.99955e-06
-1.32196e-09
4.99913e-06
-2.61136e-09
4.99886e-06
-4.54204e-09
4.99933e-06
-7.66818e-09
5.00036e-06
-1.13087e-08
5.00365e-06
-1.78279e-08
5.00982e-06
-2.55122e-08
5.02488e-06
-3.66696e-08
5.05612e-06
-4.7462e-08
5.04995e-06
6.60203e-09
5.02319e-06
4.78257e-08
4.99818e-06
5.38169e-08
4.99349e-06
2.61422e-08
4.99947e-06
2.34852e-09
5.00407e-06
-2.87619e-09
5.00491e-06
-6.69989e-10
5.00373e-06
1.83472e-09
5.00351e-06
2.38037e-09
9.69551e-10
4.99977e-06
-1.59322e-10
4.99915e-06
-7.04976e-10
4.99792e-06
-1.37696e-09
4.99611e-06
-2.73113e-09
4.99402e-06
-5.5798e-09
4.99374e-06
-1.10302e-08
4.99945e-06
-2.35379e-08
5.01714e-06
-4.31978e-08
5.05571e-06
-7.52186e-08
5.06683e-06
-5.86274e-08
5.04982e-06
2.38055e-08
4.99649e-06
1.0102e-07
4.9893e-06
6.09983e-08
4.99591e-06
1.95376e-08
5.00018e-06
-1.93362e-09
5.00292e-06
-5.61457e-09
5.00253e-06
-2.56863e-10
5.00184e-06
2.51976e-09
5.00255e-06
1.6788e-09
7.64046e-11
4.99986e-06
-1.6851e-11
4.99921e-06
-5.04789e-11
4.99791e-06
-8.37393e-11
4.99531e-06
-1.26821e-10
4.9899e-06
-1.7104e-10
4.97909e-06
-2.21767e-10
4.95582e-06
-2.69385e-10
4.91297e-06
-3.32271e-10
4.83812e-06
-4.07338e-10
4.78001e-06
-4.40665e-10
4.80427e-06
-6.28815e-10
4.90604e-06
-7.33382e-10
4.9678e-06
-7.36278e-10
4.98822e-06
-9.00208e-10
4.98745e-06
-1.1622e-09
4.98326e-06
-1.42594e-09
4.98456e-06
-1.55789e-09
4.9889e-06
-1.82615e-09
4.99247e-06
-1.8947e-09
-2.5849e-09
4.99986e-06
1.2588e-10
4.99921e-06
6.0234e-10
4.99791e-06
1.21261e-09
4.99529e-06
2.48347e-09
4.98988e-06
5.24994e-09
4.97906e-06
1.06001e-08
4.95578e-06
2.30118e-08
4.91291e-06
4.25443e-08
4.83803e-06
7.44499e-08
4.77974e-06
5.78425e-08
4.80427e-06
-2.51167e-08
4.90601e-06
-1.02483e-07
4.96777e-06
-6.25186e-08
4.98806e-06
-2.12029e-08
4.98735e-06
-4.53846e-10
4.98293e-06
2.99832e-09
4.98443e-06
-3.05208e-09
4.98888e-06
-6.28697e-09
4.99235e-06
-5.36021e-09
-4.98522e-09
4.99977e-06
3.57547e-10
4.99915e-06
1.22252e-09
4.99792e-06
2.44265e-09
4.9961e-06
4.2974e-09
4.99402e-06
7.33608e-09
4.99373e-06
1.08887e-08
4.99943e-06
1.73174e-08
5.01708e-06
2.48898e-08
5.05564e-06
3.59103e-08
5.06696e-06
4.63572e-08
5.04956e-06
-6.2811e-09
4.99613e-06
-4.90503e-08
4.98885e-06
-5.52664e-08
4.99569e-06
-2.80484e-08
5.0001e-06
-4.869e-09
5.00231e-06
7.87804e-10
5.00165e-06
-2.39552e-09
5.0009e-06
-5.54025e-09
5.00168e-06
-6.14288e-09
-5.95407e-09
4.99987e-06
4.91791e-10
4.99955e-06
1.5408e-09
4.99911e-06
2.87871e-09
4.99883e-06
4.57901e-09
4.99927e-06
6.89231e-09
5.00027e-06
9.89806e-09
5.00348e-06
1.41082e-08
5.0096e-06
1.87707e-08
5.02459e-06
2.091e-08
5.05569e-06
1.54064e-08
5.04967e-06
-1.75615e-09
5.02279e-06
-2.21973e-08
4.99787e-06
-3.03119e-08
4.99316e-06
-2.33405e-08
4.99864e-06
-1.0349e-08
5.00345e-06
-4.02394e-09
5.00373e-06
-2.67659e-09
5.00235e-06
-4.16789e-09
5.00216e-06
-5.94945e-09
-6.53773e-09
4.99998e-06
5.13321e-10
4.99993e-06
1.59137e-09
5.00001e-06
2.80392e-09
5.00031e-06
4.27624e-09
5.00113e-06
6.06528e-09
5.00279e-06
8.23692e-09
5.00668e-06
1.02231e-08
5.01377e-06
1.16729e-08
5.02358e-06
1.11295e-08
5.03071e-06
8.26973e-09
5.02837e-06
6.09957e-10
5.01625e-06
-1.00378e-08
5.00349e-06
-1.75652e-08
4.99777e-06
-1.76122e-08
4.99941e-06
-1.19861e-08
5.00161e-06
-6.21993e-09
5.0024e-06
-3.46938e-09
5.00213e-06
-3.89281e-09
5.0012e-06
-5.00918e-09
-5.97767e-09
5.00004e-06
4.75853e-10
5.00018e-06
1.44768e-09
5.0005e-06
2.48514e-09
5.00115e-06
3.63127e-09
5.00232e-06
4.89212e-09
5.00439e-06
6.15733e-09
5.00741e-06
7.19935e-09
5.01139e-06
7.69319e-09
5.01513e-06
7.39583e-09
5.01853e-06
4.88516e-09
5.01956e-06
-3.96742e-10
5.01523e-06
-5.70243e-09
5.00854e-06
-1.08673e-08
5.00311e-06
-1.21743e-08
5.00088e-06
-9.7513e-09
5.00101e-06
-6.34914e-09
5.00155e-06
-4.01e-09
5.00132e-06
-3.65043e-09
5.00036e-06
-4.0433e-09
-4.97628e-09
5.00008e-06
3.99395e-10
5.00033e-06
1.20221e-09
5.00079e-06
2.01485e-09
5.00157e-06
2.86018e-09
5.00275e-06
3.70895e-09
5.00441e-06
4.49222e-09
5.00656e-06
5.04708e-09
5.00909e-06
5.15239e-09
5.01203e-06
4.45728e-09
5.0144e-06
2.5152e-09
5.01414e-06
-1.34716e-10
5.01208e-06
-3.63381e-09
5.00776e-06
-6.53104e-09
5.00349e-06
-7.90606e-09
5.00093e-06
-7.18885e-09
5.00013e-06
-5.55012e-09
5.00011e-06
-3.98173e-09
4.99988e-06
-3.41878e-09
4.99917e-06
-3.33935e-09
-4.17203e-09
5.0001e-06
3.03294e-10
5.0004e-06
9.03921e-10
5.00091e-06
1.50134e-09
5.00167e-06
2.09274e-09
5.00274e-06
2.64895e-09
5.00412e-06
3.10749e-09
5.00579e-06
3.37614e-09
5.00763e-06
3.30734e-09
5.00933e-06
2.75345e-09
5.01027e-06
1.57369e-09
5.01043e-06
-2.99948e-10
5.00903e-06
-2.23095e-09
5.00651e-06
-4.00464e-09
5.00368e-06
-5.07783e-09
5.00154e-06
-5.05827e-09
5.00035e-06
-4.35166e-09
4.9997e-06
-3.34114e-09
4.99917e-06
-2.88571e-09
4.99845e-06
-2.62628e-09
-3.21703e-09
5.0001e-06
2.02222e-10
5.00041e-06
5.94913e-10
5.00093e-06
9.82216e-10
5.00166e-06
1.35707e-09
5.00262e-06
1.69596e-09
5.00378e-06
1.95002e-09
5.0051e-06
2.06237e-09
5.00645e-06
1.95166e-09
5.00764e-06
1.55331e-09
5.00839e-06
8.28525e-10
5.00821e-06
-1.28218e-10
5.00734e-06
-1.35703e-09
5.0057e-06
-2.37492e-09
5.00369e-06
-3.06399e-09
5.00179e-06
-3.16882e-09
5.00034e-06
-2.89785e-09
4.99931e-06
-2.32622e-09
4.99852e-06
-2.09621e-09
4.99773e-06
-1.83669e-09
-2.28088e-09
5.00008e-06
1.17384e-10
5.00037e-06
3.04837e-10
5.00087e-06
4.90581e-10
5.00155e-06
6.72505e-10
5.00241e-06
8.34558e-10
5.00341e-06
9.50351e-10
5.00449e-06
9.93583e-10
5.00551e-06
9.31751e-10
5.00633e-06
7.33254e-10
5.0068e-06
3.59787e-10
5.00681e-06
-1.42027e-10
5.00608e-06
-6.28516e-10
5.00479e-06
-1.09174e-09
5.00315e-06
-1.42871e-09
5.00148e-06
-1.50094e-09
5.00002e-06
-1.43856e-09
4.99888e-06
-1.18868e-09
4.99792e-06
-1.13714e-09
4.99707e-06
-9.79748e-10
-1.42682e-09
5.00011e-06
5.00042e-06
5.00091e-06
5.00159e-06
5.00242e-06
5.00337e-06
5.00436e-06
5.0053e-06
5.00603e-06
5.00639e-06
5.00625e-06
5.00562e-06
5.00453e-06
5.0031e-06
5.00161e-06
5.00017e-06
4.99898e-06
4.99785e-06
4.99688e-06
)
;

boundaryField
{
    sides
    {
        type            calculated;
        value           uniform 0;
    }
    inlet
    {
        type            calculated;
        value           nonuniform List<scalar> 
20
(
-5e-06
-5e-06
-5e-06
-5e-06
-5e-06
-5e-06
-5e-06
-5e-06
-5e-06
-5e-06
-5e-06
-5e-06
-5e-06
-5e-06
-5e-06
-5e-06
-5e-06
-5e-06
-5e-06
-5e-06
)
;
    }
    outlet
    {
        type            calculated;
        value           nonuniform List<scalar> 
20
(
5.00189e-06
5.00141e-06
5.00152e-06
5.00143e-06
5.00172e-06
5.002e-06
5.00279e-06
5.00422e-06
5.00344e-06
4.99514e-06
4.99475e-06
5.00265e-06
5.00275e-06
5.00064e-06
4.99936e-06
4.99837e-06
4.99749e-06
4.99679e-06
4.99622e-06
4.99546e-06
)
;
    }
    frontAndBack
    {
        type            empty;
        value           nonuniform List<scalar> 0();
    }
}


// ************************************************************************* //
