/*--------------------------------*- C++ -*----------------------------------*\
  =========                 |
  \\      /  F ield         | OpenFOAM: The Open Source CFD Toolbox
   \\    /   O peration     | Website:  https://openfoam.org
    \\  /    A nd           | Version:  9
     \\/     M anipulation  |
\*---------------------------------------------------------------------------*/
FoamFile
{
    format      ascii;
    class       volVectorField;
    location    "13";
    object      ddtCorrDdt0(hU);
}
// * * * * * * * * * * * * * * * * * * * * * * * * * * * * * * * * * * * * * //

dimensions      [0 2 -2 0 0 0 0];

internalField   nonuniform List<vector> 
400
(
(3.88522e-07 -7.67276e-08 0)
(-9.42664e-07 -2.23051e-07 0)
(-7.43541e-07 -1.21554e-07 0)
(-4.30885e-07 1.31222e-07 0)
(-9.33785e-07 2.02768e-07 0)
(-1.28475e-06 8.41024e-08 0)
(-8.29356e-07 -1.16492e-07 0)
(1.44326e-07 -2.03368e-07 0)
(4.31311e-07 -2.77269e-07 0)
(-2.76366e-07 -3.17124e-07 0)
(-1.28142e-06 -2.50676e-07 0)
(-1.72116e-06 -2.38384e-07 0)
(-1.74768e-06 -2.04702e-07 0)
(-1.43069e-06 -5.3872e-08 0)
(-6.90622e-07 5.44053e-08 0)
(3.86383e-07 1.09719e-07 0)
(1.36932e-06 6.00373e-08 0)
(1.75291e-06 -2.73955e-08 0)
(1.82087e-06 6.7406e-08 0)
(1.43947e-06 2.77611e-08 0)
(3.29094e-07 -1.66734e-07 0)
(-8.34068e-07 -4.9075e-07 0)
(-5.13289e-07 -2.91812e-07 0)
(-2.75041e-07 2.43183e-07 0)
(-8.48178e-07 4.33393e-07 0)
(-1.23076e-06 7.84829e-08 0)
(-8.2574e-07 -3.79032e-07 0)
(-8.97223e-08 -4.48097e-07 0)
(2.00564e-07 -4.50345e-07 0)
(-2.10131e-07 -4.78061e-07 0)
(-9.11533e-07 -6.69494e-07 0)
(-1.52281e-06 -7.18264e-07 0)
(-1.6184e-06 -5.60112e-07 0)
(-1.33275e-06 -1.66727e-07 0)
(-6.1455e-07 1.7002e-07 0)
(4.16478e-07 2.24088e-07 0)
(1.40938e-06 6.29989e-08 0)
(1.81653e-06 -1.33459e-07 0)
(1.67216e-06 -2.53319e-07 0)
(1.11537e-06 -2.45586e-08 0)
(3.04224e-07 -1.45861e-07 0)
(-6.77449e-07 -6.36359e-07 0)
(-4.00184e-07 -4.07859e-07 0)
(-1.76603e-07 2.32726e-07 0)
(-6.57468e-07 4.67245e-07 0)
(-1.06373e-06 -6.7368e-08 0)
(-7.45956e-07 -6.16172e-07 0)
(-1.83587e-07 -6.38046e-07 0)
(6.16479e-08 -3.33108e-07 0)
(-3.0898e-07 -3.10139e-07 0)
(-7.49822e-07 -8.07028e-07 0)
(-1.11552e-06 -1.11406e-06 0)
(-1.3461e-06 -8.66227e-07 0)
(-1.14723e-06 -2.90771e-07 0)
(-5.31407e-07 2.34583e-07 0)
(4.07253e-07 3.56403e-07 0)
(1.14864e-06 1.63915e-07 0)
(1.31612e-06 -1.28564e-07 0)
(1.42741e-06 -2.54828e-07 0)
(1.10999e-06 -2.95355e-08 0)
(2.20683e-07 -1.30172e-08 0)
(-4.78852e-07 -7.2356e-07 0)
(-2.80685e-07 -5.3239e-07 0)
(-1.00863e-07 1.91613e-07 0)
(-5.00583e-07 4.16633e-07 0)
(-8.1753e-07 -1.8238e-07 0)
(-6.63468e-07 -7.90574e-07 0)
(-2.36737e-07 -7.82729e-07 0)
(1.51442e-08 -2.68566e-07 0)
(-1.19775e-07 -2.54476e-07 0)
(-4.74817e-07 -8.11844e-07 0)
(-7.83883e-07 -1.36649e-06 0)
(-1.03706e-06 -1.08624e-06 0)
(-9.66914e-07 -3.10454e-07 0)
(-3.15593e-07 3.35328e-07 0)
(5.85099e-07 3.74288e-07 0)
(1.36252e-06 1.1517e-07 0)
(1.5106e-06 -2.99093e-07 0)
(8.74674e-07 -4.24207e-07 0)
(4.04416e-07 -3.97679e-08 0)
(1.30521e-07 1.93568e-07 0)
(-3.63214e-07 -7.04889e-07 0)
(-2.88772e-07 -6.53403e-07 0)
(-1.23745e-07 7.83306e-08 0)
(-3.34239e-07 3.12334e-07 0)
(-5.57463e-07 -3.07369e-07 0)
(-5.39751e-07 -9.43586e-07 0)
(-3.48728e-07 -7.34971e-07 0)
(-1.83838e-07 -1.05906e-07 0)
(-1.22157e-07 -8.72449e-08 0)
(-3.52082e-07 -7.07173e-07 0)
(-3.99727e-07 -1.33045e-06 0)
(-6.13464e-07 -1.11838e-06 0)
(-7.1779e-07 -2.29417e-07 0)
(-2.68856e-07 4.94616e-07 0)
(5.26075e-07 4.49316e-07 0)
(9.91945e-07 -6.35281e-08 0)
(7.71155e-07 -5.09195e-07 0)
(5.79058e-07 -6.87468e-07 0)
(3.44427e-07 -1.08283e-07 0)
(1.7386e-09 3.71558e-07 0)
(-3.78085e-07 -6.12664e-07 0)
(-3.73578e-07 -7.20625e-07 0)
(-2.14049e-07 -8.11041e-08 0)
(-2.46723e-07 1.42007e-07 0)
(-3.63062e-07 -4.34257e-07 0)
(-3.97882e-07 -9.94376e-07 0)
(-3.74996e-07 -6.08737e-07 0)
(-3.10613e-07 2.12941e-07 0)
(-6.85277e-08 3.80294e-07 0)
(1.0943e-07 -2.74753e-07 0)
(-5.10226e-08 -1.07781e-06 0)
(-3.62502e-07 -1.00384e-06 0)
(-4.76163e-07 -7.52088e-08 0)
(-9.2063e-08 6.97851e-07 0)
(4.93263e-07 6.49446e-07 0)
(8.99687e-07 9.64408e-08 0)
(8.86538e-07 -4.57629e-07 0)
(1.85055e-07 -4.78982e-07 0)
(-1.32189e-07 -5.25924e-08 0)
(-8.4797e-08 4.77233e-07 0)
(-4.73865e-07 -4.83347e-07 0)
(-6.50608e-07 -6.99335e-07 0)
(-4.8536e-07 -2.19553e-07 0)
(-2.58575e-07 -6.55505e-08 0)
(-1.92025e-07 -5.29666e-07 0)
(-2.37514e-07 -8.8289e-07 0)
(-2.6841e-07 -4.19171e-07 0)
(-2.06285e-07 3.68927e-07 0)
(6.37988e-08 5.85584e-07 0)
(1.74166e-07 9.73038e-08 0)
(5.09794e-08 -7.83799e-07 0)
(-6.42894e-08 -7.78136e-07 0)
(-1.69237e-07 5.10261e-08 0)
(-4.06328e-08 8.58913e-07 0)
(3.59893e-07 7.53265e-07 0)
(6.57706e-07 1.98323e-07 0)
(5.39137e-07 -3.32011e-07 0)
(-1.02394e-07 -5.04409e-07 0)
(-4.35588e-07 -4.51951e-08 0)
(-1.70711e-07 4.87595e-07 0)
(-6.39708e-07 -3.69192e-07 0)
(-9.66712e-07 -6.05611e-07 0)
(-8.14815e-07 -2.77334e-07 0)
(-3.59977e-07 -1.76755e-07 0)
(-3.2997e-08 -5.26803e-07 0)
(-4.82877e-08 -7.47193e-07 0)
(-2.94574e-07 -2.63579e-07 0)
(-2.78703e-07 4.91776e-07 0)
(2.33384e-07 7.29916e-07 0)
(5.16186e-07 -1.54542e-08 0)
(1.17265e-07 -4.16934e-07 0)
(8.91622e-08 -3.91338e-07 0)
(8.60335e-08 1.99428e-07 0)
(8.19313e-08 6.97522e-07 0)
(2.26662e-07 6.36992e-07 0)
(4.37394e-07 1.14433e-07 0)
(2.14168e-07 -2.84943e-07 0)
(-5.74168e-07 -4.4177e-07 0)
(-7.63209e-07 -6.50503e-08 0)
(-2.44648e-07 3.49869e-07 0)
(-8.0805e-07 -2.44746e-07 0)
(-1.26595e-06 -4.16604e-07 0)
(-1.1084e-06 -2.28412e-07 0)
(-4.61519e-07 -1.91524e-07 0)
(7.47725e-10 -3.84829e-07 0)
(7.74821e-08 -4.68364e-07 0)
(-8.49588e-08 -1.18132e-07 0)
(-1.03273e-07 4.41489e-07 0)
(5.67084e-08 7.46015e-07 0)
(3.69513e-07 1.41153e-07 0)
(6.55737e-07 -1.38078e-07 0)
(2.22403e-07 -1.49227e-07 0)
(7.77048e-08 3.21489e-07 0)
(1.35514e-07 5.4667e-07 0)
(2.27375e-07 2.08873e-07 0)
(3.79561e-07 -2.26145e-07 0)
(1.11153e-08 -2.7398e-07 0)
(-8.31414e-07 -2.44146e-07 0)
(-9.436e-07 -7.46886e-08 0)
(-2.68783e-07 9.53257e-08 0)
(-9.20981e-07 -1.0068e-07 0)
(-1.42593e-06 -1.46096e-07 0)
(-1.26379e-06 -9.08688e-08 0)
(-4.93505e-07 -1.25322e-07 0)
(5.68798e-08 -2.00593e-07 0)
(1.31444e-07 -1.85415e-07 0)
(-5.50052e-08 -5.9012e-08 0)
(-1.0335e-07 9.68752e-08 0)
(1.52628e-07 2.12395e-07 0)
(6.52089e-07 3.16916e-07 0)
(5.75866e-07 5.48892e-09 0)
(1.64808e-07 -2.44149e-08 0)
(2.50149e-08 2.27674e-07 0)
(2.07863e-07 3.53905e-07 0)
(2.9739e-07 -6.98091e-08 0)
(-2.94246e-08 -2.76199e-07 0)
(-2.80107e-07 -7.09797e-08 0)
(-6.39374e-07 -8.73405e-08 0)
(-8.07365e-07 -1.02793e-07 0)
(-2.5202e-07 -1.74128e-07 0)
(-9.16409e-07 8.41797e-08 0)
(-1.43234e-06 1.61259e-07 0)
(-1.26201e-06 6.59226e-08 0)
(-5.00806e-07 -1.26823e-08 0)
(5.74214e-08 -1.56436e-08 0)
(1.35092e-07 -4.71963e-08 0)
(-4.1655e-08 -1.28601e-07 0)
(-1.13517e-07 -1.45326e-07 0)
(2.05034e-07 -2.07234e-07 0)
(5.89731e-07 7.9834e-08 0)
(4.71736e-07 2.26326e-07 0)
(1.72727e-07 2.11564e-07 0)
(5.9717e-08 -1.03342e-07 0)
(1.85665e-07 -2.44103e-07 0)
(2.8794e-07 2.3915e-09 0)
(-2.95903e-08 1.13137e-07 0)
(-2.67337e-07 -1.65459e-07 0)
(-6.31403e-07 -1.39365e-07 0)
(-8.26017e-07 4.01125e-08 0)
(-2.0735e-07 -4.03017e-07 0)
(-7.59963e-07 1.82824e-07 0)
(-1.26734e-06 4.07195e-07 0)
(-1.10239e-06 1.99659e-07 0)
(-4.57816e-07 7.77834e-08 0)
(2.07436e-08 1.89179e-07 0)
(9.5197e-08 2.34663e-07 0)
(-8.72947e-08 -1.02298e-07 0)
(-1.49773e-07 -5.43595e-07 0)
(1.87808e-07 -6.67766e-07 0)
(7.25331e-07 -2.62292e-07 0)
(2.99051e-07 3.05067e-07 0)
(1.70766e-07 3.76918e-07 0)
(9.48626e-08 -1.66458e-07 0)
(9.86938e-08 -6.08875e-07 0)
(2.04566e-07 -3.7896e-07 0)
(3.41413e-07 -3.15715e-08 0)
(7.38544e-08 2.13868e-08 0)
(-8.04275e-07 4.17704e-08 0)
(-9.25296e-07 2.17665e-08 0)
(-1.63458e-07 -5.0609e-07 0)
(-6.27952e-07 3.26085e-07 0)
(-8.8758e-07 5.85241e-07 0)
(-7.65549e-07 2.31751e-07 0)
(-3.57866e-07 7.46803e-08 0)
(-4.9132e-08 3.35549e-07 0)
(-7.09186e-08 4.98037e-07 0)
(-3.01708e-07 3.08426e-08 0)
(-2.54039e-07 -6.30408e-07 0)
(8.17062e-08 -7.13285e-07 0)
(1.36503e-07 -2.15051e-07 0)
(4.23777e-07 4.89284e-07 0)
(1.28267e-07 5.31984e-07 0)
(-6.95857e-09 -1.05441e-07 0)
(6.99681e-08 -7.00544e-07 0)
(2.48892e-07 -6.2453e-07 0)
(4.49228e-07 -1.56565e-07 0)
(3.13641e-07 2.42523e-07 0)
(-4.86658e-07 2.94588e-07 0)
(-7.39335e-07 2.39261e-08 0)
(-6.90157e-08 -4.62196e-07 0)
(-4.56369e-07 5.48551e-07 0)
(-5.94504e-07 7.01178e-07 0)
(-4.41368e-07 1.67989e-07 0)
(-2.44522e-07 -2.18887e-08 0)
(-1.95758e-07 3.73467e-07 0)
(-2.40101e-07 6.62504e-07 0)
(-2.86982e-07 2.34326e-07 0)
(-2.1771e-07 -5.19259e-07 0)
(-3.06206e-08 -6.84786e-07 0)
(1.55673e-07 1.30638e-07 0)
(1.49169e-07 8.84748e-07 0)
(-2.50574e-08 7.92339e-07 0)
(-1.39252e-07 -7.16637e-08 0)
(8.62471e-08 -8.23604e-07 0)
(5.10584e-07 -7.12755e-07 0)
(7.25558e-07 -1.28435e-07 0)
(4.10161e-07 3.21414e-07 0)
(-2.63122e-07 3.75103e-07 0)
(-5.07106e-07 2.977e-08 0)
(4.27057e-08 -3.06721e-07 0)
(-3.61918e-07 6.85462e-07 0)
(-3.74336e-07 7.20835e-07 0)
(-1.92993e-07 7.40591e-08 0)
(-2.38301e-07 -1.74903e-07 0)
(-3.84261e-07 3.29547e-07 0)
(-4.06709e-07 7.97527e-07 0)
(-4.00199e-07 4.25695e-07 0)
(-3.6751e-07 -3.48829e-07 0)
(-9.96315e-08 -4.06532e-07 0)
(1.1946e-07 4.0836e-07 0)
(-8.30144e-08 1.21534e-06 0)
(-3.69178e-07 1.03251e-06 0)
(-4.15783e-07 2.69823e-08 0)
(2.55095e-08 -7.75306e-07 0)
(6.3749e-07 -7.86108e-07 0)
(9.42997e-07 -3.33617e-07 0)
(6.92083e-07 1.96761e-07 0)
(8.94527e-08 3.87607e-07 0)
(-2.33564e-07 2.62524e-08 0)
(1.36164e-07 -9.48228e-08 0)
(-3.87673e-07 7.73923e-07 0)
(-2.63635e-07 6.83902e-07 0)
(-6.41691e-08 -6.85738e-08 0)
(-3.27158e-07 -3.49721e-07 0)
(-6.08749e-07 2.35303e-07 0)
(-5.82208e-07 8.36494e-07 0)
(-3.6816e-07 6.04076e-07 0)
(-2.10162e-07 1.11389e-08 0)
(-1.96352e-07 3.35545e-08 0)
(-2.9753e-07 7.48143e-07 0)
(-4.51739e-07 1.38434e-06 0)
(-7.12071e-07 1.1767e-06 0)
(-6.63681e-07 2.67069e-07 0)
(-1.19711e-07 -5.5297e-07 0)
(6.06359e-07 -6.76023e-07 0)
(1.08007e-06 -2.87203e-07 0)
(1.014e-06 2.32858e-07 0)
(5.32472e-07 3.67214e-07 0)
(1.42907e-07 2.77116e-09 0)
(2.25561e-07 8.98532e-08 0)
(-5.05483e-07 7.99342e-07 0)
(-2.75675e-07 5.95074e-07 0)
(-5.79622e-08 -1.92418e-07 0)
(-4.71112e-07 -4.7379e-07 0)
(-8.33538e-07 1.12959e-07 0)
(-7.1973e-07 7.68251e-07 0)
(-3.10883e-07 6.83638e-07 0)
(-9.50341e-08 2.29498e-07 0)
(-2.3448e-07 2.52574e-07 0)
(-5.11113e-07 8.8751e-07 0)
(-7.85354e-07 1.38851e-06 0)
(-9.92613e-07 1.14678e-06 0)
(-9.12801e-07 3.5654e-07 0)
(-3.34051e-07 -3.75694e-07 0)
(5.82311e-07 -5.2639e-07 0)
(1.2665e-06 -2.35721e-07 0)
(1.26478e-06 1.84878e-07 0)
(8.64004e-07 2.93022e-07 0)
(4.76188e-07 -1.25038e-08 0)
(2.7926e-07 2.03635e-07 0)
(-6.63279e-07 7.08827e-07 0)
(-3.96948e-07 4.30414e-07 0)
(-1.42679e-07 -3.03499e-07 0)
(-6.60898e-07 -5.50407e-07 0)
(-1.04983e-06 -4.18682e-08 0)
(-7.82558e-07 5.47801e-07 0)
(-2.62263e-07 6.87102e-07 0)
(5.40405e-08 5.0108e-07 0)
(-2.52373e-07 5.58382e-07 0)
(-7.79747e-07 9.00741e-07 0)
(-1.19176e-06 1.17374e-06 0)
(-1.34025e-06 9.59969e-07 0)
(-1.13268e-06 3.81037e-07 0)
(-4.6626e-07 -1.53707e-07 0)
(5.13674e-07 -3.46079e-07 0)
(1.32014e-06 -2.66646e-07 0)
(1.50224e-06 -1.58231e-08 0)
(1.289e-06 1.40601e-07 0)
(8.71608e-07 -1.01355e-08 0)
(3.30668e-07 1.92914e-07 0)
(-9.06988e-07 4.90912e-07 0)
(-5.74457e-07 2.91102e-07 0)
(-2.78241e-07 -2.22315e-07 0)
(-7.76211e-07 -4.20939e-07 0)
(-1.18301e-06 -8.63286e-08 0)
(-7.97095e-07 3.38626e-07 0)
(3.68226e-08 4.9408e-07 0)
(2.36441e-07 3.89763e-07 0)
(-3.23536e-07 4.09955e-07 0)
(-1.17757e-06 6.33777e-07 0)
(-1.56126e-06 8.2138e-07 0)
(-1.52204e-06 7.06824e-07 0)
(-1.22019e-06 3.42164e-07 0)
(-5.96628e-07 -1.38089e-08 0)
(3.59935e-07 -1.49507e-07 0)
(1.29787e-06 -1.03814e-07 0)
(1.68139e-06 4.15923e-08 0)
(1.6452e-06 9.96899e-08 0)
(1.20622e-06 -1.48785e-08 0)
(3.30944e-07 7.49507e-08 0)
(-9.30665e-07 1.7836e-07 0)
(-6.70249e-07 1.28846e-07 0)
(-4.03196e-07 -3.48861e-08 0)
(-9.29193e-07 -1.25019e-07 0)
(-1.27791e-06 -1.84384e-08 0)
(-8.1019e-07 1.39347e-07 0)
(8.56625e-10 1.49912e-07 0)
(2.60322e-07 5.95208e-08 0)
(-3.65639e-07 8.40196e-08 0)
(-1.20069e-06 1.95543e-07 0)
(-1.64535e-06 3.05774e-07 0)
(-1.68761e-06 2.68209e-07 0)
(-1.36754e-06 1.17129e-07 0)
(-6.72503e-07 -1.15188e-08 0)
(3.68047e-07 -3.48798e-08 0)
(1.36078e-06 1.7019e-08 0)
(1.74875e-06 6.99638e-08 0)
(1.75038e-06 5.53684e-08 0)
(1.34458e-06 -3.85118e-09 0)
)
;

boundaryField
{
    sides
    {
        type            calculated;
        value           nonuniform List<vector> 
40
(
(3.30944e-07 0 0)
(-9.30665e-07 0 0)
(-6.70249e-07 0 0)
(-4.03196e-07 0 0)
(-9.29193e-07 0 0)
(-1.27791e-06 0 0)
(-8.1019e-07 0 0)
(8.56625e-10 0 0)
(2.60322e-07 0 0)
(-3.65639e-07 0 0)
(-1.20069e-06 0 0)
(-1.64535e-06 0 0)
(-1.68761e-06 0 0)
(-1.36754e-06 0 0)
(-6.72503e-07 0 0)
(3.68047e-07 0 0)
(1.36078e-06 0 0)
(1.74875e-06 0 0)
(1.75038e-06 0 0)
(1.34458e-06 0 0)
(3.88522e-07 0 0)
(-9.42664e-07 0 0)
(-7.43541e-07 0 0)
(-4.30885e-07 0 0)
(-9.33785e-07 0 0)
(-1.28475e-06 0 0)
(-8.29356e-07 0 0)
(1.44326e-07 0 0)
(4.31311e-07 0 0)
(-2.76366e-07 0 0)
(-1.28142e-06 0 0)
(-1.72116e-06 0 0)
(-1.74768e-06 0 0)
(-1.43069e-06 0 0)
(-6.90622e-07 0 0)
(3.86383e-07 0 0)
(1.36932e-06 0 0)
(1.75291e-06 0 0)
(1.82087e-06 0 0)
(1.43947e-06 0 0)
)
;
    }
    inlet
    {
        type            calculated;
        value           uniform (0 0 0);
    }
    outlet
    {
        type            calculated;
        value           nonuniform List<vector> 
20
(
(1.43947e-06 2.77611e-08 0)
(1.11537e-06 -2.45586e-08 0)
(1.10999e-06 -2.95355e-08 0)
(4.04416e-07 -3.97679e-08 0)
(3.44427e-07 -1.08283e-07 0)
(-1.32189e-07 -5.25924e-08 0)
(-4.35588e-07 -4.51951e-08 0)
(-7.63209e-07 -6.50503e-08 0)
(-9.436e-07 -7.46886e-08 0)
(-8.07365e-07 -1.02793e-07 0)
(-8.26017e-07 4.01125e-08 0)
(-9.25296e-07 2.17665e-08 0)
(-7.39335e-07 2.39261e-08 0)
(-5.07106e-07 2.977e-08 0)
(-2.33564e-07 2.62524e-08 0)
(1.42907e-07 2.77116e-09 0)
(4.76188e-07 -1.25038e-08 0)
(8.71608e-07 -1.01355e-08 0)
(1.20622e-06 -1.48785e-08 0)
(1.34458e-06 -3.85118e-09 0)
)
;
    }
    frontAndBack
    {
        type            empty;
    }
}


// ************************************************************************* //
