/*--------------------------------*- C++ -*----------------------------------*\
  =========                 |
  \\      /  F ield         | OpenFOAM: The Open Source CFD Toolbox
   \\    /   O peration     | Website:  https://openfoam.org
    \\  /    A nd           | Version:  9
     \\/     M anipulation  |
\*---------------------------------------------------------------------------*/
FoamFile
{
    format      ascii;
    class       volScalarField;
    location    "13";
    object      h;
}
// * * * * * * * * * * * * * * * * * * * * * * * * * * * * * * * * * * * * * //

dimensions      [0 1 0 0 0 0 0];

internalField   nonuniform List<scalar> 
400
(
0.00999788
0.00999863
0.00999895
0.00999896
0.00999895
0.009999
0.00999881
0.00999812
0.00999709
0.00999651
0.00999662
0.0099973
0.00999842
0.00999991
0.0100013
0.0100021
0.0100022
0.0100019
0.0100013
0.0100005
0.00999796
0.00999865
0.00999889
0.0099988
0.00999878
0.00999886
0.00999881
0.00999822
0.00999732
0.00999672
0.00999674
0.00999732
0.00999843
0.00999991
0.0100013
0.010002
0.010002
0.0100016
0.010001
0.0100004
0.00999814
0.0099987
0.00999886
0.00999877
0.0099988
0.00999893
0.00999892
0.00999844
0.00999771
0.0099971
0.00999708
0.00999754
0.00999862
0.0100001
0.0100014
0.0100021
0.010002
0.0100015
0.010001
0.0100004
0.00999837
0.00999879
0.00999888
0.00999882
0.00999888
0.009999
0.00999899
0.00999868
0.00999806
0.00999751
0.00999732
0.00999771
0.00999883
0.0100004
0.0100017
0.0100021
0.0100018
0.0100012
0.0100004
0.0100001
0.0099986
0.00999889
0.00999897
0.009999
0.00999908
0.00999913
0.00999909
0.00999882
0.00999826
0.00999768
0.00999729
0.0099977
0.0099989
0.0100007
0.0100022
0.0100027
0.010002
0.010001
0.0100003
0.01
0.0099988
0.00999903
0.00999918
0.00999931
0.00999939
0.00999934
0.00999917
0.00999883
0.00999823
0.00999758
0.00999713
0.00999744
0.00999883
0.0100009
0.0100025
0.0100029
0.010002
0.0100008
0.00999985
0.00999979
0.00999897
0.00999918
0.00999948
0.00999974
0.00999983
0.0099997
0.0099994
0.00999881
0.00999772
0.00999629
0.00999537
0.00999617
0.0099989
0.0100022
0.0100041
0.0100038
0.0100021
0.0100003
0.00999939
0.00999961
0.00999911
0.00999937
0.00999984
0.0100003
0.0100004
0.0100003
0.00999989
0.00999926
0.00999799
0.00999541
0.00999226
0.00999227
0.00999702
0.010003
0.010006
0.0100051
0.0100023
0.00999981
0.00999889
0.00999947
0.00999918
0.00999956
0.0100002
0.0100009
0.0100013
0.0100013
0.0100008
0.00999921
0.00999586
0.00999083
0.0099883
0.00999197
0.0100007
0.0100065
0.0100071
0.0100044
0.0100012
0.00999912
0.00999867
0.00999946
0.0099992
0.00999965
0.0100004
0.0100013
0.0100022
0.0100033
0.0100051
0.0100074
0.0100051
0.00897941
0.00895418
0.00997817
0.0100115
0.0100206
0.0100131
0.0100043
0.00999982
0.00999868
0.00999898
0.00999971
0.00999918
0.0099996
0.0100004
0.0100013
0.0100021
0.0100033
0.0100051
0.0100073
0.010005
0.00897936
0.0089541
0.00997808
0.0100114
0.0100205
0.010013
0.0100043
0.0099998
0.0099987
0.00999897
0.00999969
0.00999909
0.00999945
0.0100001
0.0100008
0.0100012
0.0100012
0.0100006
0.00999903
0.00999564
0.00999054
0.0099881
0.00999169
0.0100005
0.0100064
0.0100069
0.0100043
0.0100011
0.00999918
0.00999872
0.00999947
0.00999895
0.0099992
0.00999964
0.0100001
0.0100002
0.0100001
0.00999968
0.00999902
0.00999769
0.00999517
0.00999192
0.00999202
0.00999668
0.0100027
0.0100058
0.010005
0.0100022
0.00999978
0.00999888
0.00999948
0.00999871
0.00999893
0.00999919
0.00999943
0.00999953
0.00999941
0.00999909
0.00999846
0.00999733
0.0099959
0.00999502
0.0099958
0.00999852
0.0100018
0.0100038
0.0100035
0.0100018
0.0100001
0.00999924
0.00999957
0.00999842
0.00999864
0.00999877
0.00999887
0.00999895
0.00999893
0.00999878
0.00999841
0.00999779
0.00999713
0.00999671
0.00999701
0.00999845
0.0100005
0.0100021
0.0100024
0.0100016
0.0100004
0.00999968
0.00999973
0.00999807
0.00999836
0.00999843
0.00999843
0.0099985
0.00999859
0.00999858
0.00999831
0.00999772
0.00999707
0.00999674
0.00999713
0.00999839
0.0100002
0.0100017
0.0100021
0.0100017
0.0100008
0.0100001
0.00999991
0.00999769
0.0099981
0.00999819
0.00999813
0.00999819
0.0099983
0.00999833
0.00999805
0.00999744
0.00999684
0.00999665
0.00999711
0.00999827
0.00999988
0.0100012
0.0100017
0.0100014
0.0100008
0.0100003
0.01
0.0099973
0.00999786
0.00999801
0.00999795
0.00999797
0.00999806
0.00999806
0.00999763
0.0099969
0.00999632
0.00999627
0.00999679
0.00999791
0.00999944
0.0100008
0.0100015
0.0100014
0.010001
0.0100006
0.0100002
0.00999697
0.00999764
0.00999794
0.00999793
0.00999792
0.00999798
0.00999785
0.00999725
0.00999635
0.00999582
0.00999586
0.00999647
0.0099976
0.00999912
0.0100005
0.0100014
0.0100015
0.0100013
0.0100009
0.0100003
0.00999671
0.00999748
0.00999777
0.00999777
0.00999776
0.00999778
0.00999761
0.00999693
0.00999599
0.00999541
0.00999554
0.00999619
0.0099973
0.0099988
0.0100003
0.0100012
0.0100014
0.0100012
0.0100009
0.0100003
)
;

boundaryField
{
    sides
    {
        type            zeroGradient;
    }
    inlet
    {
        type            zeroGradient;
    }
    outlet
    {
        type            fixedValue;
        value           uniform 0.01;
    }
    frontAndBack
    {
        type            empty;
    }
}


// ************************************************************************* //
