/*--------------------------------*- C++ -*----------------------------------*\
  =========                 |
  \\      /  F ield         | OpenFOAM: The Open Source CFD Toolbox
   \\    /   O peration     | Website:  https://openfoam.org
    \\  /    A nd           | Version:  9
     \\/     M anipulation  |
\*---------------------------------------------------------------------------*/
FoamFile
{
    format      ascii;
    class       volScalarField;
    location    "13";
    object      h_0;
}
// * * * * * * * * * * * * * * * * * * * * * * * * * * * * * * * * * * * * * //

dimensions      [0 1 0 0 0 0 0];

internalField   nonuniform List<scalar> 
400
(
0.00999721
0.00999812
0.0099988
0.0099991
0.00999918
0.00999932
0.00999939
0.00999895
0.00999788
0.00999699
0.0099969
0.00999748
0.00999849
0.00999982
0.0100011
0.0100018
0.0100018
0.0100013
0.0100009
0.0100003
0.00999732
0.00999819
0.00999874
0.00999891
0.00999894
0.00999904
0.0099992
0.00999892
0.00999808
0.00999728
0.00999701
0.00999747
0.00999846
0.00999978
0.0100011
0.0100018
0.0100017
0.0100012
0.0100006
0.0100002
0.00999762
0.00999832
0.00999873
0.00999881
0.0099988
0.00999895
0.00999913
0.00999889
0.00999826
0.00999755
0.00999733
0.00999763
0.00999854
0.00999991
0.0100012
0.010002
0.0100018
0.0100012
0.0100007
0.0100002
0.00999801
0.00999851
0.00999876
0.00999878
0.00999875
0.00999885
0.00999896
0.00999885
0.00999834
0.00999773
0.00999746
0.00999771
0.00999864
0.0100001
0.0100015
0.0100021
0.0100017
0.010001
0.0100003
0.01
0.00999839
0.00999871
0.00999887
0.00999889
0.00999888
0.00999889
0.00999889
0.00999877
0.00999833
0.00999776
0.0099974
0.0099976
0.00999858
0.0100003
0.010002
0.0100028
0.0100022
0.0100012
0.0100004
0.01
0.00999874
0.00999895
0.00999911
0.0099992
0.00999919
0.00999909
0.00999891
0.00999862
0.00999808
0.00999746
0.00999698
0.00999717
0.00999841
0.0100005
0.0100024
0.010003
0.0100024
0.0100011
0.0100001
0.00999989
0.00999903
0.00999916
0.00999945
0.00999972
0.00999978
0.00999958
0.00999919
0.00999851
0.00999738
0.00999597
0.009995
0.00999574
0.00999839
0.0100018
0.010004
0.0100041
0.0100027
0.0100009
0.0099998
0.00999976
0.00999923
0.0099994
0.00999987
0.0100004
0.0100006
0.0100003
0.0099998
0.00999895
0.00999749
0.00999492
0.00999136
0.00999169
0.00999644
0.0100026
0.0100059
0.0100054
0.010003
0.0100006
0.00999947
0.00999968
0.00999932
0.00999959
0.0100003
0.0100012
0.0100017
0.0100016
0.0100008
0.00999895
0.00999532
0.00999009
0.0099879
0.00999123
0.01
0.0100061
0.010007
0.0100048
0.010002
0.0100001
0.00999936
0.00999969
0.00999934
0.00999969
0.0100005
0.0100017
0.0100027
0.0100038
0.0100053
0.0100072
0.0100045
0.00897862
0.00895335
0.00997736
0.0100108
0.0100201
0.010013
0.0100047
0.0100006
0.0099997
0.00999971
0.00999996
0.00999931
0.00999965
0.0100005
0.0100016
0.0100026
0.0100038
0.0100052
0.0100071
0.0100045
0.00897861
0.00895329
0.00997732
0.0100107
0.0100201
0.0100129
0.0100046
0.0100006
0.00999968
0.00999969
0.00999994
0.00999922
0.00999947
0.0100002
0.010001
0.0100015
0.0100015
0.0100007
0.0099988
0.00999513
0.00998989
0.00998743
0.00999101
0.00999988
0.010006
0.0100068
0.0100046
0.0100019
0.0100001
0.00999939
0.00999971
0.00999904
0.00999924
0.00999967
0.0100002
0.0100004
0.0100002
0.00999961
0.00999877
0.00999725
0.00999464
0.00999133
0.00999144
0.00999611
0.0100023
0.0100057
0.0100053
0.0100029
0.0100006
0.00999945
0.00999968
0.00999874
0.00999891
0.00999916
0.00999941
0.00999948
0.0099993
0.00999891
0.00999822
0.00999704
0.00999559
0.00999468
0.00999538
0.00999802
0.0100014
0.0100037
0.0100038
0.0100023
0.0100007
0.00999966
0.00999972
0.00999834
0.00999855
0.00999871
0.00999879
0.00999878
0.00999869
0.00999854
0.00999824
0.00999769
0.00999706
0.00999657
0.00999678
0.00999805
0.0100002
0.010002
0.0100026
0.010002
0.0100008
0.00999994
0.00999982
0.00999785
0.00999819
0.00999836
0.00999835
0.00999832
0.00999834
0.0099984
0.00999829
0.00999785
0.00999723
0.00999684
0.00999704
0.00999811
0.00999991
0.0100016
0.0100023
0.0100019
0.0100009
0.0100002
0.00999994
0.00999732
0.00999783
0.00999809
0.00999811
0.00999808
0.00999818
0.00999832
0.00999825
0.00999777
0.00999718
0.00999687
0.00999714
0.0099981
0.00999964
0.0100011
0.0100018
0.0100015
0.0100008
0.0100002
0.01
0.0099968
0.00999748
0.0099979
0.009998
0.00999801
0.00999811
0.00999826
0.00999812
0.00999748
0.00999677
0.00999653
0.0099969
0.00999787
0.00999927
0.0100007
0.0100014
0.0100013
0.0100008
0.0100003
0.0100001
0.00999637
0.00999721
0.0099978
0.00999804
0.00999808
0.00999821
0.00999832
0.00999794
0.00999705
0.00999626
0.00999616
0.00999667
0.00999766
0.009999
0.0100004
0.0100012
0.0100012
0.0100009
0.0100005
0.0100002
0.00999607
0.00999697
0.00999763
0.00999794
0.00999803
0.00999812
0.00999819
0.00999778
0.00999683
0.00999597
0.00999587
0.00999641
0.00999741
0.00999873
0.0100001
0.0100009
0.010001
0.0100007
0.0100004
0.0100001
)
;

boundaryField
{
    sides
    {
        type            zeroGradient;
    }
    inlet
    {
        type            zeroGradient;
    }
    outlet
    {
        type            fixedValue;
        value           uniform 0.01;
    }
    frontAndBack
    {
        type            empty;
    }
}


// ************************************************************************* //
