/*--------------------------------*- C++ -*----------------------------------*\
  =========                 |
  \\      /  F ield         | OpenFOAM: The Open Source CFD Toolbox
   \\    /   O peration     | Website:  https://openfoam.org
    \\  /    A nd           | Version:  9
     \\/     M anipulation  |
\*---------------------------------------------------------------------------*/
FoamFile
{
    format      ascii;
    class       volVectorField;
    location    "13";
    object      hU;
}
// * * * * * * * * * * * * * * * * * * * * * * * * * * * * * * * * * * * * * //

dimensions      [0 2 -1 0 0 0 0];

internalField   nonuniform List<vector> 
400
(
(0.000999821 -7.31301e-08 0)
(0.000999624 -1.15152e-07 0)
(0.000999733 -7.71948e-08 0)
(0.000999646 -6.95878e-08 0)
(0.000999695 -1.3511e-07 0)
(0.00100003 -1.78393e-07 0)
(0.00100044 -1.28246e-07 0)
(0.00100076 -6.1253e-08 0)
(0.00100095 -6.19432e-08 0)
(0.00100113 -1.24891e-07 0)
(0.0010013 -1.58826e-07 0)
(0.0010014 -1.26079e-07 0)
(0.00100128 -5.93801e-08 0)
(0.00100099 -3.60673e-08 0)
(0.00100062 -8.45831e-08 0)
(0.0010004 -1.78824e-07 0)
(0.00100025 -2.33187e-07 0)
(0.00100014 -2.85912e-07 0)
(0.000999955 -2.10624e-07 0)
(0.000999727 -2.55559e-07 0)
(0.000999836 -1.69906e-07 0)
(0.000999672 -2.1665e-07 0)
(0.000999802 -5.92805e-08 0)
(0.000999721 1.38926e-08 0)
(0.000999781 -9.93679e-08 0)
(0.00100014 -1.80285e-07 0)
(0.00100054 -2.54834e-08 0)
(0.00100083 2.23784e-07 0)
(0.00100106 2.96771e-07 0)
(0.00100128 1.73083e-07 0)
(0.00100147 1.05143e-07 0)
(0.00100153 2.61974e-07 0)
(0.00100139 5.20403e-07 0)
(0.00100105 6.39755e-07 0)
(0.00100066 5.26816e-07 0)
(0.0010004 2.59925e-07 0)
(0.00100026 7.70804e-08 0)
(0.00100014 -2.44566e-08 0)
(0.00100001 1.30916e-07 0)
(0.000999704 1.39702e-07 0)
(0.000999864 -2.75377e-07 0)
(0.000999725 -3.80339e-07 0)
(0.000999866 -1.77508e-07 0)
(0.000999837 -1.25205e-07 0)
(0.000999917 -3.57726e-07 0)
(0.00100024 -5.32852e-07 0)
(0.00100062 -3.29164e-07 0)
(0.00100094 6.00466e-08 0)
(0.00100122 1.96187e-07 0)
(0.00100148 3.56098e-08 0)
(0.0010017 -5.40742e-08 0)
(0.00100174 2.12196e-07 0)
(0.00100151 6.31459e-07 0)
(0.00100109 7.7884e-07 0)
(0.00100061 5.28987e-07 0)
(0.00100029 7.29216e-08 0)
(0.00100012 -2.18688e-07 0)
(0.00100005 -3.52243e-07 0)
(0.000999974 -1.00739e-07 0)
(0.00099982 -2.40626e-08 0)
(0.000999894 -3.4725e-07 0)
(0.000999802 -5.04115e-07 0)
(0.000999953 -2.72777e-07 0)
(0.000999967 -2.58398e-07 0)
(0.00100008 -6.11965e-07 0)
(0.00100041 -8.62285e-07 0)
(0.00100081 -6.07367e-07 0)
(0.00100117 -1.08635e-07 0)
(0.00100153 1.18967e-07 0)
(0.00100189 1.44797e-08 0)
(0.00100213 5.82011e-08 0)
(0.00100212 5.43008e-07 0)
(0.00100176 1.21022e-06 0)
(0.00100116 1.47126e-06 0)
(0.00100058 1.09866e-06 0)
(0.00100023 3.62891e-07 0)
(0.00100011 -1.42561e-07 0)
(0.00100007 -3.56975e-07 0)
(0.0010001 -1.68433e-08 0)
(0.000999949 1.20774e-07 0)
(0.000999921 -3.8496e-07 0)
(0.000999865 -6.00676e-07 0)
(0.00100001 -4.02745e-07 0)
(0.00100008 -4.69348e-07 0)
(0.00100023 -9.47375e-07 0)
(0.00100056 -1.31339e-06 0)
(0.00100098 -1.10475e-06 0)
(0.00100143 -5.80655e-07 0)
(0.00100195 -2.89708e-07 0)
(0.00100247 -2.79799e-07 0)
(0.0010028 -6.7085e-08 0)
(0.00100275 6.62275e-07 0)
(0.00100221 1.53507e-06 0)
(0.00100128 1.87278e-06 0)
(0.00100034 1.43342e-06 0)
(0.000999821 5.6666e-07 0)
(0.000999772 -5.06927e-08 0)
(0.00099994 -2.60715e-07 0)
(0.00100016 1.56966e-07 0)
(0.00100018 3.41088e-07 0)
(0.000999935 -3.90033e-07 0)
(0.000999902 -6.58766e-07 0)
(0.00100003 -5.32744e-07 0)
(0.00100013 -7.0632e-07 0)
(0.0010003 -1.31594e-06 0)
(0.00100065 -1.8254e-06 0)
(0.00100113 -1.77792e-06 0)
(0.00100174 -1.35744e-06 0)
(0.00100251 -1.02254e-06 0)
(0.00100326 -6.66145e-07 0)
(0.0010037 2.2003e-07 0)
(0.00100356 1.65939e-06 0)
(0.00100272 2.77051e-06 0)
(0.00100142 2.67528e-06 0)
(0.00100026 1.48266e-06 0)
(0.000999654 1.29803e-07 0)
(0.00099973 -5.64306e-07 0)
(0.00100004 -6.3424e-07 0)
(0.00100043 -3.23639e-08 0)
(0.00100042 2.13206e-07 0)
(0.000999939 -3.53879e-07 0)
(0.0009999 -6.55507e-07 0)
(0.000999977 -6.16969e-07 0)
(0.00100008 -9.21266e-07 0)
(0.00100024 -1.63757e-06 0)
(0.00100056 -2.33192e-06 0)
(0.00100109 -2.5155e-06 0)
(0.00100196 -2.54936e-06 0)
(0.00100329 -2.48915e-06 0)
(0.00100477 -2.40188e-06 0)
(0.00100564 -5.4628e-07 0)
(0.00100507 2.63765e-06 0)
(0.00100301 5.09011e-06 0)
(0.00100048 5.05177e-06 0)
(0.000998917 3.04563e-06 0)
(0.000998728 8.6684e-07 0)
(0.000999478 -8.66063e-08 0)
(0.00100018 -1.40065e-07 0)
(0.00100073 5.0479e-07 0)
(0.00100062 7.05288e-07 0)
(0.000999928 -2.84701e-07 0)
(0.000999863 -5.55144e-07 0)
(0.000999843 -6.27484e-07 0)
(0.000999903 -9.93414e-07 0)
(0.00099999 -1.86008e-06 0)
(0.00100027 -2.74353e-06 0)
(0.00100066 -3.49594e-06 0)
(0.00100166 -3.7312e-06 0)
(0.00100327 -3.7816e-06 0)
(0.00100617 -2.15722e-06 0)
(0.00100905 8.74344e-07 0)
(0.00100876 4.34792e-06 0)
(0.00100491 4.91824e-06 0)
(0.00100001 3.00218e-06 0)
(0.000997359 7.36794e-07 0)
(0.000997586 -5.9842e-07 0)
(0.000999257 -7.11594e-07 0)
(0.00100042 -3.71791e-07 0)
(0.0010011 1.88407e-07 0)
(0.00100092 2.67817e-07 0)
(0.000999916 -1.71819e-07 0)
(0.000999792 -3.85259e-07 0)
(0.000999663 -4.49628e-07 0)
(0.000999571 -8.17306e-07 0)
(0.000999445 -1.58753e-06 0)
(0.000999455 -2.7963e-06 0)
(0.000999978 -4.80407e-06 0)
(0.00100165 -7.86095e-06 0)
(0.00100517 -1.29069e-05 0)
(0.00100974 -1.4621e-05 0)
(0.00101178 3.93453e-06 0)
(0.0010085 1.87794e-05 0)
(0.00100152 1.59402e-05 0)
(0.000996748 5.92136e-06 0)
(0.000996049 -3.27459e-07 0)
(0.000997701 -1.5213e-06 0)
(0.000999655 -3.68124e-07 0)
(0.00100049 4.46094e-07 0)
(0.00100083 6.1657e-07 0)
(0.0010007 3.38466e-07 0)
(0.000999718 -6.86758e-08 0)
(0.00100004 -1.45971e-07 0)
(0.000999104 -2.07803e-07 0)
(0.000999939 -3.35259e-07 0)
(0.000997686 -7.47488e-07 0)
(0.000999092 -1.29408e-06 0)
(0.000993621 -2.96098e-06 0)
(0.000997822 -5.55692e-06 0)
(0.000991963 -1.14324e-05 0)
(0.000916053 -1.25869e-05 0)
(0.00095146 3.19636e-07 0)
(0.00100974 1.46346e-05 0)
(0.000990199 1.31138e-05 0)
(0.000983159 5.17758e-06 0)
(0.000988793 9.2376e-08 0)
(0.000995393 -9.6775e-07 0)
(0.000998467 -1.60746e-07 0)
(0.000999008 2.3925e-07 0)
(0.000998558 1.5688e-07 0)
(0.00099868 -1.12132e-07 0)
(0.000999719 4.29263e-08 0)
(0.00100003 7.29524e-08 0)
(0.000999102 6.80453e-08 0)
(0.000999935 1.33542e-07 0)
(0.000997678 5.10429e-07 0)
(0.000999086 1.06698e-06 0)
(0.000993615 2.77425e-06 0)
(0.000997818 5.43389e-06 0)
(0.000991948 1.1336e-05 0)
(0.000916031 1.24839e-05 0)
(0.00095141 -4.60613e-07 0)
(0.0010097 -1.49341e-05 0)
(0.000990196 -1.35615e-05 0)
(0.000983155 -5.77202e-06 0)
(0.000988769 -7.77803e-07 0)
(0.000995368 2.25465e-07 0)
(0.000998429 -5.35848e-07 0)
(0.000998969 -1.03216e-06 0)
(0.000998535 -8.72499e-07 0)
(0.00099863 -7.85928e-07 0)
(0.000999919 1.49595e-07 0)
(0.000999789 3.14566e-07 0)
(0.000999659 3.15437e-07 0)
(0.000999565 6.24698e-07 0)
(0.000999427 1.36235e-06 0)
(0.000999431 2.5759e-06 0)
(0.000999942 4.62317e-06 0)
(0.00100162 7.72863e-06 0)
(0.00100515 1.28109e-05 0)
(0.00100977 1.45081e-05 0)
(0.00101182 -4.13098e-06 0)
(0.00100848 -1.90893e-05 0)
(0.00100147 -1.63649e-05 0)
(0.000996673 -6.48542e-06 0)
(0.000996002 -2.62605e-07 0)
(0.000997664 8.38133e-07 0)
(0.000999553 -3.25469e-07 0)
(0.00100034 -1.18989e-06 0)
(0.00100066 -1.28471e-06 0)
(0.00100053 -1.20675e-06 0)
(0.000999928 2.63235e-07 0)
(0.000999859 4.81886e-07 0)
(0.000999845 4.93019e-07 0)
(0.000999888 8.01537e-07 0)
(0.000999954 1.63437e-06 0)
(0.00100022 2.52522e-06 0)
(0.00100062 3.32057e-06 0)
(0.00100161 3.61318e-06 0)
(0.00100323 3.69692e-06 0)
(0.0010061 2.05522e-06 0)
(0.00100895 -1.07837e-06 0)
(0.00100871 -4.65045e-06 0)
(0.00100487 -5.32552e-06 0)
(0.000999986 -3.51444e-06 0)
(0.000997315 -1.33157e-06 0)
(0.000997419 -1.33989e-07 0)
(0.000999065 -1.07041e-08 0)
(0.00100022 -4.09772e-07 0)
(0.00100083 -8.62895e-07 0)
(0.00100062 -1.08632e-06 0)
(0.000999938 3.30132e-07 0)
(0.000999894 5.76219e-07 0)
(0.000999974 4.79563e-07 0)
(0.00100006 7.34641e-07 0)
(0.0010002 1.43e-06 0)
(0.00100051 2.13882e-06 0)
(0.00100103 2.36995e-06 0)
(0.0010019 2.45456e-06 0)
(0.00100324 2.42516e-06 0)
(0.00100473 2.31889e-06 0)
(0.00100564 4.35426e-07 0)
(0.00100506 -2.85711e-06 0)
(0.00100296 -5.44824e-06 0)
(0.00100037 -5.57035e-06 0)
(0.000998751 -3.7025e-06 0)
(0.000998509 -1.62158e-06 0)
(0.000999224 -5.88343e-07 0)
(0.000999848 -6.26941e-07 0)
(0.00100039 -1.18044e-06 0)
(0.00100021 -1.54586e-06 0)
(0.000999935 3.68365e-07 0)
(0.000999894 5.8076e-07 0)
(0.00100002 4.05858e-07 0)
(0.0010001 5.42718e-07 0)
(0.00100025 1.13396e-06 0)
(0.00100059 1.65541e-06 0)
(0.00100106 1.64764e-06 0)
(0.00100166 1.27804e-06 0)
(0.00100244 9.68068e-07 0)
(0.0010032 5.83908e-07 0)
(0.00100364 -3.68473e-07 0)
(0.00100346 -1.91989e-06 0)
(0.00100259 -3.14937e-06 0)
(0.00100126 -3.171e-06 0)
(0.00100006 -2.01956e-06 0)
(0.0009994 -6.95719e-07 0)
(0.000999424 3.08015e-08 0)
(0.000999635 4.11676e-08 0)
(0.000999986 -4.73878e-07 0)
(0.000999887 -9.02856e-07 0)
(0.000999918 3.6801e-07 0)
(0.000999859 5.32535e-07 0)
(0.00100001 2.95561e-07 0)
(0.00100005 3.32836e-07 0)
(0.00100017 7.95132e-07 0)
(0.0010005 1.17194e-06 0)
(0.0010009 9.97287e-07 0)
(0.00100135 5.08561e-07 0)
(0.00100187 2.34459e-07 0)
(0.0010024 2.03677e-07 0)
(0.00100276 -6.16577e-08 0)
(0.00100269 -8.759e-07 0)
(0.00100211 -1.82881e-06 0)
(0.00100114 -2.25849e-06 0)
(0.00100017 -1.88627e-06 0)
(0.000999558 -1.13532e-06 0)
(0.000999433 -5.53357e-07 0)
(0.000999487 -4.41585e-07 0)
(0.000999654 -8.12073e-07 0)
(0.000999531 -1.1695e-06 0)
(0.000999891 3.31223e-07 0)
(0.0009998 4.44281e-07 0)
(0.000999944 1.91521e-07 0)
(0.000999935 1.55975e-07 0)
(0.00100002 4.88272e-07 0)
(0.00100033 7.51009e-07 0)
(0.00100071 5.49467e-07 0)
(0.00100106 9.79927e-08 0)
(0.00100143 -9.30578e-08 0)
(0.0010018 1.57097e-08 0)
(0.00100204 -6.50419e-08 0)
(0.00100201 -6.3269e-07 0)
(0.00100162 -1.37055e-06 0)
(0.00100094 -1.71411e-06 0)
(0.00100027 -1.39022e-06 0)
(0.00099981 -7.39984e-07 0)
(0.000999629 -2.12417e-07 0)
(0.000999482 -6.75672e-08 0)
(0.000999487 -3.36217e-07 0)
(0.000999221 -6.30516e-07 0)
(0.000999859 2.61152e-07 0)
(0.000999736 3.23159e-07 0)
(0.000999866 8.92058e-08 0)
(0.000999796 1.15965e-08 0)
(0.000999851 2.34016e-07 0)
(0.00100018 3.96282e-07 0)
(0.00100056 1.85033e-07 0)
(0.00100086 -1.75086e-07 0)
(0.00100114 -2.94461e-07 0)
(0.00100141 -1.57191e-07 0)
(0.00100163 -1.34786e-07 0)
(0.00100165 -4.69896e-07 0)
(0.00100139 -9.46283e-07 0)
(0.0010009 -1.16853e-06 0)
(0.00100037 -9.57662e-07 0)
(0.000999937 -5.62641e-07 0)
(0.000999705 -2.63743e-07 0)
(0.000999463 -2.24336e-07 0)
(0.000999345 -4.33373e-07 0)
(0.00099895 -7.15906e-07 0)
(0.00099983 1.69261e-07 0)
(0.000999666 2.16224e-07 0)
(0.000999781 7.4014e-08 0)
(0.000999684 2.041e-08 0)
(0.000999715 1.54914e-07 0)
(0.00100002 2.61014e-07 0)
(0.00100041 1.42289e-07 0)
(0.00100071 -7.09255e-08 0)
(0.00100093 -1.23894e-07 0)
(0.00100114 6.84007e-09 0)
(0.00100132 7.39463e-08 0)
(0.00100138 -9.89039e-08 0)
(0.0010012 -3.73824e-07 0)
(0.00100077 -5.13522e-07 0)
(0.00100029 -3.94095e-07 0)
(0.000999907 -1.55933e-07 0)
(0.000999689 4.12568e-08 0)
(0.000999416 7.33713e-08 0)
(0.000999231 -4.78995e-08 0)
(0.000998741 -2.29158e-07 0)
(0.000999817 4.19697e-08 0)
(0.00099965 3.43126e-08 0)
(0.000999751 -3.472e-08 0)
(0.000999616 -7.85427e-08 0)
(0.000999639 -7.00408e-08 0)
(0.000999985 -5.56483e-08 0)
(0.00100039 -9.55975e-08 0)
(0.00100066 -1.88256e-07 0)
(0.00100086 -2.25006e-07 0)
(0.00100105 -1.92464e-07 0)
(0.00100123 -1.74152e-07 0)
(0.00100129 -2.40736e-07 0)
(0.00100115 -3.50459e-07 0)
(0.00100077 -4.11712e-07 0)
(0.00100035 -3.69836e-07 0)
(0.00099997 -2.94376e-07 0)
(0.000999755 -2.2169e-07 0)
(0.000999404 -2.35699e-07 0)
(0.000999206 -2.76835e-07 0)
(0.000998576 -3.96635e-07 0)
)
;

boundaryField
{
    sides
    {
        type            slip;
    }
    inlet
    {
        type            fixedValue;
        value           uniform (0.001 0 0);
    }
    outlet
    {
        type            zeroGradient;
    }
    frontAndBack
    {
        type            empty;
    }
}


// ************************************************************************* //
