/*--------------------------------*- C++ -*----------------------------------*\
  =========                 |
  \\      /  F ield         | OpenFOAM: The Open Source CFD Toolbox
   \\    /   O peration     | Website:  https://openfoam.org
    \\  /    A nd           | Version:  9
     \\/     M anipulation  |
\*---------------------------------------------------------------------------*/
FoamFile
{
    format      ascii;
    class       volVectorField;
    location    "13";
    object      hU_0;
}
// * * * * * * * * * * * * * * * * * * * * * * * * * * * * * * * * * * * * * //

dimensions      [0 2 -1 0 0 0 0];

internalField   nonuniform List<vector> 
400
(
(0.000999768 -6.86035e-08 0)
(0.000999684 -9.5923e-08 0)
(0.000999781 -6.35401e-08 0)
(0.000999669 -7.90691e-08 0)
(0.00099977 -1.52032e-07 0)
(0.00100014 -1.81899e-07 0)
(0.00100051 -1.08381e-07 0)
(0.00100074 -3.49818e-08 0)
(0.00100091 -3.21475e-08 0)
(0.00100116 -9.71551e-08 0)
(0.00100142 -1.33229e-07 0)
(0.00100157 -1.00543e-07 0)
(0.00100147 -3.61648e-08 0)
(0.00100115 -2.71756e-08 0)
(0.00100071 -8.93991e-08 0)
(0.0010004 -1.91765e-07 0)
(0.00100014 -2.40903e-07 0)
(0.000999978 -2.87397e-07 0)
(0.00099976 -2.19448e-07 0)
(0.000999549 -2.60238e-07 0)
(0.00099979 -1.63431e-07 0)
(0.000999728 -1.76182e-07 0)
(0.000999832 -2.80817e-08 0)
(0.000999729 -1.36049e-09 0)
(0.000999851 -1.31368e-07 0)
(0.00100025 -1.77376e-07 0)
(0.00100061 2.77209e-08 0)
(0.00100083 2.87985e-07 0)
(0.00100104 3.55561e-07 0)
(0.00100131 2.21967e-07 0)
(0.00100157 1.71979e-07 0)
(0.00100169 3.38953e-07 0)
(0.00100156 5.86161e-07 0)
(0.0010012 6.66761e-07 0)
(0.00100074 5.12491e-07 0)
(0.00100039 2.31772e-07 0)
(0.00100015 5.63393e-08 0)
(0.000999971 -2.94174e-08 0)
(0.000999822 1.45564e-07 0)
(0.000999559 1.39614e-07 0)
(0.000999824 -2.7682e-07 0)
(0.00099977 -3.29699e-07 0)
(0.000999892 -1.34811e-07 0)
(0.000999844 -1.36376e-07 0)
(0.000999973 -3.90989e-07 0)
(0.00100033 -5.15531e-07 0)
(0.00100069 -2.50748e-07 0)
(0.00100095 1.52288e-07 0)
(0.00100121 2.56505e-07 0)
(0.00100151 8.30781e-08 0)
(0.00100178 2.91684e-08 0)
(0.00100186 3.30358e-07 0)
(0.00100166 7.33135e-07 0)
(0.00100122 8.20802e-07 0)
(0.00100067 5.08625e-07 0)
(0.00100027 2.90457e-08 0)
(0.00100002 -2.50471e-07 0)
(0.000999924 -3.56724e-07 0)
(0.000999829 -9.3485e-08 0)
(0.000999687 -2.70711e-08 0)
(0.000999866 -3.6344e-07 0)
(0.000999837 -4.47207e-07 0)
(0.000999973 -2.17439e-07 0)
(0.000999973 -2.64819e-07 0)
(0.00100012 -6.44655e-07 0)
(0.00100048 -8.37938e-07 0)
(0.00100086 -5.11991e-07 0)
(0.00100119 -2.50471e-09 0)
(0.00100153 1.74815e-07 0)
(0.0010019 5.77637e-08 0)
(0.00100219 1.41195e-07 0)
(0.00100221 6.85705e-07 0)
(0.00100187 1.3369e-06 0)
(0.00100126 1.51715e-06 0)
(0.00100062 1.06821e-06 0)
(0.00100019 3.1312e-07 0)
(0.000999994 -1.75909e-07 0)
(0.000999923 -3.54877e-07 0)
(0.00099999 5.26215e-09 0)
(0.000999896 1.18188e-07 0)
(0.000999904 -4.19679e-07 0)
(0.000999895 -5.47123e-07 0)
(0.00100004 -3.36846e-07 0)
(0.00100009 -4.67798e-07 0)
(0.00100026 -9.75888e-07 0)
(0.00100062 -1.28463e-06 0)
(0.00100103 -1.00238e-06 0)
(0.00100146 -4.83764e-07 0)
(0.00100197 -2.52099e-07 0)
(0.00100249 -2.56052e-07 0)
(0.00100284 1.20947e-08 0)
(0.00100281 8.06149e-07 0)
(0.00100228 1.66446e-06 0)
(0.00100135 1.91222e-06 0)
(0.00100036 1.38847e-06 0)
(0.000999769 5.09812e-07 0)
(0.000999666 -7.55156e-08 0)
(0.000999855 -2.41388e-07 0)
(0.00100011 2.07293e-07 0)
(0.00100014 3.47073e-07 0)
(0.000999932 -4.392e-07 0)
(0.000999938 -6.13699e-07 0)
(0.00100007 -4.62542e-07 0)
(0.00100016 -6.9706e-07 0)
(0.00100033 -1.33872e-06 0)
(0.00100069 -1.79487e-06 0)
(0.00100117 -1.68084e-06 0)
(0.00100178 -1.27864e-06 0)
(0.00100254 -1.01717e-06 0)
(0.00100327 -6.85856e-07 0)
(0.0010037 2.64404e-07 0)
(0.00100358 1.77992e-06 0)
(0.00100276 2.88564e-06 0)
(0.00100146 2.69722e-06 0)
(0.00100026 1.41602e-06 0)
(0.000999592 5.27072e-08 0)
(0.000999638 -5.95606e-07 0)
(0.000999954 -6.09608e-07 0)
(0.0010004 2.87289e-10 0)
(0.00100045 2.13803e-07 0)
(0.000999945 -4.08826e-07 0)
(0.000999945 -6.20648e-07 0)
(0.00100004 -5.51488e-07 0)
(0.00100013 -9.06191e-07 0)
(0.00100028 -1.65014e-06 0)
(0.00100059 -2.30116e-06 0)
(0.00100112 -2.43754e-06 0)
(0.001002 -2.49735e-06 0)
(0.00100332 -2.50288e-06 0)
(0.00100477 -2.44252e-06 0)
(0.00100563 -5.24946e-07 0)
(0.00100507 2.72747e-06 0)
(0.00100302 5.18021e-06 0)
(0.00100048 5.0577e-06 0)
(0.000998898 2.95976e-06 0)
(0.00099867 7.80214e-07 0)
(0.000999396 -1.26278e-07 0)
(0.00100013 -1.33782e-07 0)
(0.00100074 5.38504e-07 0)
(0.00100068 7.06425e-07 0)
(0.000999941 -3.35533e-07 0)
(0.000999923 -5.28056e-07 0)
(0.000999935 -5.72544e-07 0)
(0.000999985 -9.75939e-07 0)
(0.00100003 -1.86418e-06 0)
(0.00100029 -2.71575e-06 0)
(0.00100069 -3.43572e-06 0)
(0.00100171 -3.70187e-06 0)
(0.00100332 -3.81542e-06 0)
(0.00100617 -2.20971e-06 0)
(0.00100898 8.70798e-07 0)
(0.00100873 4.40265e-06 0)
(0.00100489 4.96807e-06 0)
(0.00099998 2.99135e-06 0)
(0.000997318 6.71574e-07 0)
(0.00099753 -6.66567e-07 0)
(0.00099919 -7.37638e-07 0)
(0.00100039 -3.64835e-07 0)
(0.00100116 2.18207e-07 0)
(0.00100103 2.71586e-07 0)
(0.000999934 -2.05971e-07 0)
(0.000999865 -3.66424e-07 0)
(0.000999778 -4.12645e-07 0)
(0.000999677 -8.03988e-07 0)
(0.0009995 -1.58574e-06 0)
(0.000999474 -2.77779e-06 0)
(0.000999994 -4.77028e-06 0)
(0.00100169 -7.84985e-06 0)
(0.00100521 -1.29433e-05 0)
(0.00100974 -1.46812e-05 0)
(0.00101178 3.91187e-06 0)
(0.00100846 1.88024e-05 0)
(0.00100149 1.59618e-05 0)
(0.000996717 5.89615e-06 0)
(0.000996002 -3.75311e-07 0)
(0.000997637 -1.54632e-06 0)
(0.000999585 -3.54773e-07 0)
(0.00100048 4.62367e-07 0)
(0.00100093 6.33856e-07 0)
(0.00100083 3.44551e-07 0)
(0.000999736 -7.74877e-08 0)
(0.00100012 -1.38049e-07 0)
(0.000999231 -1.95466e-07 0)
(0.00100006 -3.30184e-07 0)
(0.000997744 -7.42112e-07 0)
(0.000999107 -1.28212e-06 0)
(0.000993636 -2.94789e-06 0)
(0.000997857 -5.55215e-06 0)
(0.000992001 -1.14399e-05 0)
(0.000916052 -1.26071e-05 0)
(0.000951407 3.05883e-07 0)
(0.00100968 1.46342e-05 0)
(0.000990165 1.31173e-05 0)
(0.000983133 5.15606e-06 0)
(0.000988736 5.65739e-08 0)
(0.000995317 -9.63457e-07 0)
(0.000998431 -1.36347e-07 0)
(0.000999027 2.45645e-07 0)
(0.000998643 1.637e-07 0)
(0.0009988 -1.03112e-07 0)
(0.000999736 5.9429e-08 0)
(0.00100011 6.77088e-08 0)
(0.000999231 5.34389e-08 0)
(0.00100005 1.31011e-07 0)
(0.000997736 5.18035e-07 0)
(0.0009991 1.07527e-06 0)
(0.000993629 2.78295e-06 0)
(0.000997851 5.44654e-06 0)
(0.000991985 1.13476e-05 0)
(0.000916027 1.24992e-05 0)
(0.000951354 -4.73197e-07 0)
(0.00100965 -1.49626e-05 0)
(0.000990164 -1.35863e-05 0)
(0.000983125 -5.76606e-06 0)
(0.000988714 -7.55623e-07 0)
(0.000995294 2.27554e-07 0)
(0.000998394 -5.44305e-07 0)
(0.000998987 -1.0111e-06 0)
(0.000998616 -8.53832e-07 0)
(0.000998751 -7.88305e-07 0)
(0.000999934 1.89803e-07 0)
(0.000999856 3.0175e-07 0)
(0.000999773 2.79993e-07 0)
(0.00099967 6.14501e-07 0)
(0.000999481 1.3715e-06 0)
(0.000999447 2.57551e-06 0)
(0.000999955 4.61147e-06 0)
(0.00100166 7.73758e-06 0)
(0.00100518 1.28562e-05 0)
(0.00100976 1.45647e-05 0)
(0.00101178 -4.11125e-06 0)
(0.00100844 -1.91254e-05 0)
(0.00100144 -1.64088e-05 0)
(0.000996641 -6.47551e-06 0)
(0.000995956 -2.05852e-07 0)
(0.000997604 8.79194e-07 0)
(0.000999489 -3.14169e-07 0)
(0.00100032 -1.18116e-06 0)
(0.00100075 -1.28044e-06 0)
(0.00100066 -1.20584e-06 0)
(0.000999939 3.16805e-07 0)
(0.000999918 4.58375e-07 0)
(0.000999931 4.40321e-07 0)
(0.000999965 7.87586e-07 0)
(0.000999997 1.64776e-06 0)
(0.00100024 2.51575e-06 0)
(0.00100064 3.28489e-06 0)
(0.00100166 3.60659e-06 0)
(0.00100327 3.74476e-06 0)
(0.0010061 2.11111e-06 0)
(0.00100892 -1.06725e-06 0)
(0.00100867 -4.7087e-06 0)
(0.00100485 -5.38828e-06 0)
(0.000999967 -3.51256e-06 0)
(0.000997278 -1.26594e-06 0)
(0.000997361 -6.53997e-08 0)
(0.000998997 2.12662e-08 0)
(0.00100018 -4.15923e-07 0)
(0.00100089 -8.80253e-07 0)
(0.00100072 -1.08501e-06 0)
(0.000999942 3.82984e-07 0)
(0.000999938 5.36047e-07 0)
(0.00100003 4.12703e-07 0)
(0.00100011 7.2162e-07 0)
(0.00100023 1.44912e-06 0)
(0.00100053 2.12328e-06 0)
(0.00100106 2.31419e-06 0)
(0.00100194 2.42242e-06 0)
(0.00100327 2.45489e-06 0)
(0.00100475 2.36607e-06 0)
(0.00100563 4.07571e-07 0)
(0.00100505 -2.95927e-06 0)
(0.00100297 -5.54201e-06 0)
(0.00100037 -5.57616e-06 0)
(0.000998722 -3.62467e-06 0)
(0.000998436 -1.54171e-06 0)
(0.000999133 -5.53873e-07 0)
(0.000999798 -6.35746e-07 0)
(0.00100042 -1.20245e-06 0)
(0.00100028 -1.54449e-06 0)
(0.000999929 4.10707e-07 0)
(0.000999927 5.28084e-07 0)
(0.00100006 3.33794e-07 0)
(0.00100013 5.32296e-07 0)
(0.00100028 1.1587e-06 0)
(0.00100063 1.6352e-06 0)
(0.0010011 1.56972e-06 0)
(0.0010017 1.2191e-06 0)
(0.00100248 9.76678e-07 0)
(0.00100322 6.04017e-07 0)
(0.00100364 -4.23466e-07 0)
(0.00100348 -2.05416e-06 0)
(0.00100263 -3.26973e-06 0)
(0.00100129 -3.19028e-06 0)
(0.00100005 -1.94846e-06 0)
(0.000999326 -6.09092e-07 0)
(0.000999321 8.50935e-08 0)
(0.000999559 4.80457e-08 0)
(0.000999975 -4.94502e-07 0)
(0.000999919 -9.0076e-07 0)
(0.0009999 3.93557e-07 0)
(0.00099989 4.71009e-07 0)
(0.00100003 2.25668e-07 0)
(0.00100006 3.30931e-07 0)
(0.00100021 8.27261e-07 0)
(0.00100055 1.14976e-06 0)
(0.00100095 9.05369e-07 0)
(0.00100138 4.2534e-07 0)
(0.00100188 2.07569e-07 0)
(0.00100242 1.82705e-07 0)
(0.0010028 -1.47343e-07 0)
(0.00100275 -1.02484e-06 0)
(0.00100219 -1.96337e-06 0)
(0.00100121 -2.30133e-06 0)
(0.00100018 -1.83713e-06 0)
(0.000999499 -1.05886e-06 0)
(0.000999328 -5.02966e-07 0)
(0.000999385 -4.37831e-07 0)
(0.000999594 -8.29987e-07 0)
(0.000999515 -1.16434e-06 0)
(0.000999861 3.39058e-07 0)
(0.000999836 3.7963e-07 0)
(0.000999964 1.30174e-07 0)
(0.000999937 1.6275e-07 0)
(0.00100006 5.24904e-07 0)
(0.00100041 7.31849e-07 0)
(0.00100077 4.5838e-07 0)
(0.00100108 1.03401e-09 0)
(0.00100144 -1.43185e-07 0)
(0.00100183 -2.25167e-08 0)
(0.0010021 -1.55905e-07 0)
(0.0010021 -7.795e-07 0)
(0.00100172 -1.5024e-06 0)
(0.00100104 -1.76528e-06 0)
(0.00100031 -1.35644e-06 0)
(0.000999765 -6.76883e-07 0)
(0.000999515 -1.68032e-07 0)
(0.000999357 -6.12541e-08 0)
(0.00099939 -3.46879e-07 0)
(0.000999162 -6.23087e-07 0)
(0.000999821 2.55846e-07 0)
(0.000999781 2.63122e-07 0)
(0.00099989 4.43866e-08 0)
(0.0009998 2.98201e-08 0)
(0.000999906 2.76391e-07 0)
(0.00100028 3.88617e-07 0)
(0.00100062 1.1031e-07 0)
(0.00100087 -2.69481e-07 0)
(0.00100114 -3.66038e-07 0)
(0.00100144 -2.18053e-07 0)
(0.00100172 -2.25521e-07 0)
(0.00100177 -5.95128e-07 0)
(0.00100154 -1.05812e-06 0)
(0.00100103 -1.22001e-06 0)
(0.00100043 -9.43781e-07 0)
(0.000999908 -5.17823e-07 0)
(0.000999595 -2.19696e-07 0)
(0.000999321 -2.02166e-07 0)
(0.000999205 -4.30851e-07 0)
(0.000998841 -7.09021e-07 0)
(0.000999783 1.59979e-07 0)
(0.000999728 1.75055e-07 0)
(0.00099982 4.35697e-08 0)
(0.000999695 3.32109e-08 0)
(0.000999777 1.85946e-07 0)
(0.00100012 2.59104e-07 0)
(0.00100048 9.20358e-08 0)
(0.0010007 -1.38471e-07 0)
(0.0010009 -1.7787e-07 0)
(0.00100117 -3.98279e-08 0)
(0.00100143 9.45614e-09 0)
(0.00100154 -1.85333e-07 0)
(0.00100137 -4.54606e-07 0)
(0.00100091 -5.56886e-07 0)
(0.00100037 -3.94232e-07 0)
(0.0009999 -1.33934e-07 0)
(0.000999588 6.49823e-08 0)
(0.00099926 8.42123e-08 0)
(0.000999054 -4.70317e-08 0)
(0.000998592 -2.23812e-07 0)
(0.000999769 3.74958e-08 0)
(0.000999712 2.10793e-08 0)
(0.000999791 -4.82287e-08 0)
(0.000999634 -7.93059e-08 0)
(0.000999714 -6.29803e-08 0)
(0.0010001 -5.81554e-08 0)
(0.00100045 -1.13917e-07 0)
(0.00100066 -2.11402e-07 0)
(0.00100084 -2.39252e-07 0)
(0.00100109 -2.06337e-07 0)
(0.00100135 -1.94266e-07 0)
(0.00100146 -2.71329e-07 0)
(0.00100132 -3.8048e-07 0)
(0.00100093 -4.27238e-07 0)
(0.00100044 -3.69866e-07 0)
(0.000999967 -2.88438e-07 0)
(0.000999651 -2.18029e-07 0)
(0.000999242 -2.36954e-07 0)
(0.000999017 -2.78749e-07 0)
(0.000998409 -3.94912e-07 0)
)
;

boundaryField
{
    sides
    {
        type            slip;
    }
    inlet
    {
        type            fixedValue;
        value           uniform (0.001 0 0);
    }
    outlet
    {
        type            zeroGradient;
    }
    frontAndBack
    {
        type            empty;
    }
}


// ************************************************************************* //
