/*--------------------------------*- C++ -*----------------------------------*\
  =========                 |
  \\      /  F ield         | OpenFOAM: The Open Source CFD Toolbox
   \\    /   O peration     | Website:  https://openfoam.org
    \\  /    A nd           | Version:  9
     \\/     M anipulation  |
\*---------------------------------------------------------------------------*/
FoamFile
{
    format      ascii;
    class       surfaceScalarField;
    location    "13";
    object      phi_0;
}
// * * * * * * * * * * * * * * * * * * * * * * * * * * * * * * * * * * * * * //

dimensions      [0 4 -1 0 0 0 0];

internalField   nonuniform List<scalar> 
760
(
4.99904e-06
-5.29232e-10
4.99843e-06
-6.23201e-10
4.99824e-06
-1.98393e-10
4.99875e-06
-1.12526e-10
4.99998e-06
-5.35175e-10
5.00148e-06
-6.91953e-10
5.00298e-06
-1.59895e-10
5.00419e-06
7.62455e-10
5.00555e-06
8.89374e-10
5.00681e-06
3.25726e-10
5.00766e-06
1.68855e-10
5.00761e-06
7.06635e-10
5.00639e-06
1.5195e-09
5.00433e-06
1.75639e-09
5.00233e-06
1.20526e-09
5.00114e-06
1.75922e-10
5.00028e-06
-2.98233e-10
4.99948e-06
-6.20886e-10
4.99829e-06
-9.64594e-11
-2.1972e-10
4.9992e-06
-1.14237e-09
4.9987e-06
-1.32721e-09
4.9985e-06
-4.33036e-10
4.99911e-06
-3.85029e-10
5.00045e-06
-1.32318e-09
5.00206e-06
-1.77241e-09
5.00338e-06
-6.62016e-10
5.00481e-06
9.74304e-10
5.00629e-06
1.36052e-09
5.00756e-06
6.0169e-10
5.00828e-06
3.12623e-10
5.00813e-06
1.46443e-09
5.00669e-06
3.16457e-09
5.0044e-06
3.68169e-09
5.00235e-06
2.50951e-09
5.0012e-06
5.03985e-10
5.00043e-06
-7.36313e-10
4.99972e-06
-1.24828e-09
4.99858e-06
9.45518e-14
1.87439e-10
4.99931e-06
-1.63104e-09
4.99896e-06
-1.951e-09
4.99899e-06
-8.4064e-10
4.9997e-06
-9.00747e-10
5.00096e-06
-2.44678e-09
5.00247e-06
-3.19039e-09
5.00395e-06
-1.7327e-09
5.00556e-06
4.6241e-10
5.00713e-06
1.1976e-09
5.0087e-06
3.86271e-10
5.00935e-06
4.44639e-10
5.00879e-06
2.4318e-09
5.00687e-06
5.03791e-09
5.0041e-06
5.85189e-09
5.00174e-06
4.1305e-09
5.00043e-06
1.15056e-09
5.00003e-06
-6.99916e-10
4.99974e-06
-1.39239e-09
4.99898e-06
-3.60361e-11
3.55824e-10
4.99952e-06
-2.00094e-09
4.99934e-06
-2.52119e-09
4.99956e-06
-1.3769e-09
5.00037e-06
-1.74332e-09
5.00166e-06
-3.90473e-09
5.00328e-06
-5.13109e-09
5.00508e-06
-3.65535e-09
5.00706e-06
-1.21687e-09
5.0092e-06
-2.99169e-10
5.01075e-06
-6.02528e-10
5.0113e-06
3.03891e-10
5.01008e-06
3.79503e-09
5.00706e-06
7.68588e-09
5.00361e-06
8.54956e-09
5.00133e-06
5.73897e-09
5.00054e-06
1.6228e-09
5.00033e-06
-9.85422e-10
5.00029e-06
-1.92013e-09
4.99995e-06
2.71057e-10
9.92966e-10
4.99972e-06
-2.197e-09
4.99966e-06
-2.9364e-09
5.00003e-06
-2.00504e-09
5.00095e-06
-2.87275e-09
5.00227e-06
-5.66825e-09
5.00404e-06
-7.47198e-09
5.00625e-06
-6.39007e-09
5.00891e-06
-4.1145e-09
5.01202e-06
-3.2842e-09
5.01445e-06
-2.92308e-09
5.01467e-06
4.18501e-10
5.01244e-06
5.7985e-09
5.00744e-06
1.19287e-08
5.00233e-06
1.27448e-08
4.99932e-06
8.10579e-09
4.99901e-06
1.91866e-09
5.00005e-06
-1.34999e-09
5.00089e-06
-1.87502e-09
5.00077e-06
7.68991e-10
1.52097e-09
4.99989e-06
-2.196e-09
4.99984e-06
-3.09945e-09
5.00022e-06
-2.59357e-09
5.00109e-06
-4.01704e-09
5.00242e-06
-7.44469e-09
5.00453e-06
-1.01846e-08
5.00756e-06
-1.01035e-08
5.01164e-06
-8.82733e-09
5.01561e-06
-7.73829e-09
5.01894e-06
-6.67108e-09
5.01962e-06
-7.3069e-10
5.0148e-06
9.92348e-09
5.00751e-06
1.81838e-08
5.00145e-06
1.7742e-08
4.99899e-06
1.00123e-08
4.99938e-06
1.75346e-09
5.00096e-06
-2.02582e-09
5.00191e-06
-1.89855e-09
5.00213e-06
1.39706e-09
2.28801e-09
4.99995e-06
-1.92511e-09
4.99979e-06
-2.928e-09
5.00003e-06
-2.92831e-09
5.0007e-06
-4.77497e-09
5.00175e-06
-8.63895e-09
5.00345e-06
-1.2195e-08
5.00741e-06
-1.46194e-08
5.01457e-06
-1.68105e-08
5.02417e-06
-1.83033e-08
5.03082e-06
-1.42769e-08
5.02781e-06
1.35365e-09
5.0149e-06
2.17381e-08
5.00131e-06
3.04362e-08
4.99513e-06
2.27937e-08
4.99674e-06
8.00074e-09
4.99913e-06
1.05548e-11
5.00131e-06
-2.76396e-09
5.00228e-06
-1.31221e-09
5.00283e-06
2.11982e-09
2.5257e-09
4.99991e-06
-1.40872e-09
4.99946e-06
-2.3109e-09
4.99927e-06
-2.67251e-09
4.99951e-06
-4.83023e-09
5.00029e-06
-9.09495e-09
5.0013e-06
-1.30427e-08
5.00462e-06
-1.8177e-08
5.01106e-06
-2.40246e-08
5.02593e-06
-3.45164e-08
5.0562e-06
-4.59434e-08
5.0487e-06
7.23261e-09
5.02067e-06
4.83773e-08
4.99462e-06
5.4943e-08
4.98914e-06
2.71529e-08
4.99532e-06
1.76246e-09
5.00058e-06
-4.38527e-09
5.00188e-06
-2.28741e-09
5.00236e-06
4.31774e-10
5.00382e-06
2.38598e-09
1.67001e-09
4.99983e-06
-6.93725e-10
4.99902e-06
-1.28778e-09
4.99813e-06
-1.578e-09
4.99695e-06
-3.16072e-09
4.99529e-06
-6.65804e-09
4.99514e-06
-1.22256e-08
5.00101e-06
-2.38915e-08
5.01883e-06
-4.2458e-08
5.05696e-06
-7.40235e-08
5.06688e-06
-5.77766e-08
5.04827e-06
2.40688e-08
4.99345e-06
1.01175e-07
4.98525e-06
6.14974e-08
4.99131e-06
1.99255e-08
4.99555e-06
-2.82229e-09
4.9989e-06
-6.7932e-09
4.9994e-06
-8.57116e-10
5.00039e-06
2.03025e-09
5.00318e-06
1.58494e-09
4.3835e-10
4.9999e-06
-4.87176e-11
4.99904e-06
-1.82139e-10
4.99811e-06
-3.61354e-10
4.99616e-06
-5.1029e-10
4.99116e-06
-5.77384e-10
4.9805e-06
-5.39337e-10
4.95749e-06
-4.37678e-10
4.91484e-06
-2.89812e-10
4.83967e-06
-2.70698e-10
4.78028e-06
-3.28787e-10
4.80264e-06
-5.42433e-10
4.90267e-06
-8.89004e-10
4.9636e-06
-1.06863e-09
4.98382e-06
-1.41724e-09
4.98247e-06
-1.83339e-09
4.9785e-06
-1.92734e-09
4.98157e-06
-1.76845e-09
4.98821e-06
-1.90344e-09
4.99349e-06
-1.6271e-09
-2.17067e-09
4.99988e-06
6.01723e-10
4.99903e-06
9.37747e-10
4.9981e-06
8.80361e-10
4.99613e-06
2.14884e-09
4.99112e-06
5.51049e-09
4.98047e-06
1.11396e-08
4.95745e-06
2.30404e-08
4.9148e-06
4.19009e-08
4.83955e-06
7.35978e-08
4.78e-06
5.73058e-08
4.80256e-06
-2.51381e-08
4.90265e-06
-1.02921e-07
4.96358e-06
-6.36639e-08
4.98355e-06
-2.2477e-08
4.98253e-06
-1.04172e-09
4.97823e-06
3.23051e-09
4.98145e-06
-2.90123e-09
4.98811e-06
-5.96154e-09
4.99331e-06
-4.77436e-09
-4.61377e-09
4.99978e-06
1.33331e-09
4.99897e-06
1.93388e-09
4.99812e-06
1.97634e-09
4.99688e-06
3.84856e-09
4.99516e-06
7.99193e-09
4.99497e-06
1.20257e-08
5.00082e-06
1.74046e-08
5.0187e-06
2.35033e-08
5.05689e-06
3.41098e-08
5.06727e-06
4.52522e-08
5.04801e-06
-8.36995e-09
4.99316e-06
-4.98207e-08
4.98487e-06
-5.69555e-08
4.99128e-06
-2.99856e-08
4.99555e-06
-5.56305e-09
4.99837e-06
1.29907e-09
4.99861e-06
-1.16477e-09
4.9995e-06
-4.45211e-09
5.00235e-06
-5.69367e-09
-5.86958e-09
4.99986e-06
1.80896e-09
4.99942e-06
2.54907e-09
4.99922e-06
2.2296e-09
4.99939e-06
3.8316e-09
5.00008e-06
7.5941e-09
5.00106e-06
1.12602e-08
5.00436e-06
1.39491e-08
5.01081e-06
1.64109e-08
5.0257e-06
1.80558e-08
5.05566e-06
1.38507e-08
5.04859e-06
-2.09012e-09
5.02042e-06
-2.31737e-08
4.99458e-06
-3.25915e-08
4.98919e-06
-2.56944e-08
4.99444e-06
-1.10996e-08
4.99959e-06
-3.07232e-09
5.00109e-06
-9.02884e-10
5.00102e-06
-2.26586e-09
5.00241e-06
-5.43079e-09
-6.63252e-09
4.9999e-06
2.04147e-09
4.99971e-06
2.71002e-09
4.99995e-06
1.90924e-09
5.00056e-06
3.13159e-09
5.00151e-06
6.48646e-09
5.00313e-06
9.34732e-09
5.00707e-06
9.52749e-09
5.01431e-06
8.49398e-09
5.02404e-06
7.49056e-09
5.03074e-06
6.24345e-09
5.02779e-06
-1.07746e-10
5.01473e-06
-1.12121e-08
5.0009e-06
-2.00279e-08
4.99431e-06
-2.0195e-08
4.99566e-06
-1.2856e-08
4.99813e-06
-4.96131e-09
4.99971e-06
-1.12069e-09
5.00071e-06
-1.60294e-09
5.00103e-06
-4.45227e-09
-6.17914e-09
4.99982e-06
2.06696e-09
4.99977e-06
2.53303e-09
5.0001e-06
1.40584e-09
5.00094e-06
2.1161e-09
5.00217e-06
4.8487e-09
5.00419e-06
6.7493e-09
5.00717e-06
5.88547e-09
5.01129e-06
3.83013e-09
5.0153e-06
3.123e-09
5.01869e-06
2.54643e-09
5.01917e-06
-9.72741e-10
5.01426e-06
-6.88388e-09
5.00676e-06
-1.35162e-08
5.00048e-06
-1.49473e-08
4.99777e-06
-1.06174e-08
4.99801e-06
-4.8386e-09
4.99916e-06
-1.32746e-09
4.99982e-06
-1.1553e-09
4.99969e-06
-3.45237e-09
-5.242e-09
4.99969e-06
1.88254e-09
4.99959e-06
2.15037e-09
4.99991e-06
8.74697e-10
5.00076e-06
1.15367e-09
5.002e-06
3.23169e-09
5.00367e-06
4.50403e-09
5.00582e-06
3.23576e-09
5.00847e-06
1.01225e-09
5.01168e-06
1.5643e-10
5.01424e-06
3.31136e-10
5.01435e-06
-8.31563e-10
5.01206e-06
-4.73951e-09
5.0069e-06
-8.99945e-09
5.00152e-06
-1.04476e-08
4.99826e-06
-7.88506e-09
4.9975e-06
-3.99648e-09
4.99803e-06
-1.39079e-09
4.99836e-06
-9.84726e-10
4.99794e-06
-2.64242e-09
-4.35142e-09
4.99951e-06
1.51801e-09
4.99927e-06
1.66049e-09
4.99944e-06
4.40346e-10
5.00017e-06
4.43933e-10
5.00134e-06
1.91978e-09
5.00286e-06
2.71945e-09
5.0046e-06
1.42215e-09
5.0066e-06
-6.32673e-10
5.00868e-06
-1.18536e-09
5.01035e-06
-4.87184e-10
5.0109e-06
-7.32518e-10
5.00946e-06
-3.13451e-09
5.00619e-06
-6.09114e-09
5.00225e-06
-7.23259e-09
4.99943e-06
-5.64433e-09
4.99821e-06
-2.97307e-09
4.99779e-06
-1.00326e-09
4.9974e-06
-6.94056e-10
4.99661e-06
-1.97827e-09
-3.35381e-09
4.99936e-06
1.05108e-09
4.99893e-06
1.09435e-09
4.99887e-06
1.99898e-10
4.99945e-06
6.53471e-11
5.00065e-06
9.72737e-10
5.00218e-06
1.38365e-09
5.00359e-06
4.08501e-10
5.00521e-06
-1.14128e-09
5.0069e-06
-1.43309e-09
5.0083e-06
-6.52706e-10
5.00893e-06
-5.93779e-10
5.00829e-06
-2.03026e-09
5.0061e-06
-3.90018e-09
5.003e-06
-4.6285e-09
5.00025e-06
-3.54818e-09
4.99854e-06
-1.80598e-09
4.99753e-06
-5.17768e-10
4.99661e-06
-4.29502e-10
4.99533e-06
-1.31736e-09
-2.38839e-09
4.99915e-06
5.60262e-10
4.99863e-06
5.72293e-10
4.9984e-06
1.74707e-11
4.99887e-06
-8.64732e-11
4.99996e-06
3.99885e-10
5.00132e-06
6.27282e-10
5.00282e-06
-1.3185e-11
5.0041e-06
-7.5186e-10
5.00555e-06
-9.22263e-10
5.00687e-06
-5.4171e-10
5.00766e-06
-3.28862e-10
5.00729e-06
-9.41167e-10
5.00553e-06
-1.88775e-09
5.0028e-06
-2.25538e-09
5.00022e-06
-1.70804e-09
4.99845e-06
-8.76279e-10
4.99724e-06
-2.73979e-10
4.99595e-06
-2.6909e-10
4.99428e-06
-6.69872e-10
-1.4397e-09
4.99917e-06
4.9985e-06
4.99815e-06
4.99854e-06
4.99973e-06
5.00124e-06
5.00256e-06
5.00386e-06
5.00522e-06
5.00643e-06
5.00715e-06
5.00697e-06
5.00552e-06
5.00308e-06
5.00067e-06
4.99883e-06
4.99735e-06
4.99568e-06
4.99379e-06
)
;

boundaryField
{
    sides
    {
        type            calculated;
        value           uniform 0;
    }
    inlet
    {
        type            calculated;
        value           nonuniform List<scalar> 
20
(
-5e-06
-5e-06
-5e-06
-5e-06
-5e-06
-5e-06
-5e-06
-5e-06
-5e-06
-5e-06
-5e-06
-5e-06
-5e-06
-5e-06
-5e-06
-5e-06
-5e-06
-5e-06
-5e-06
-5e-06
)
;
    }
    outlet
    {
        type            calculated;
        value           nonuniform List<scalar> 
20
(
4.99799e-06
4.99777e-06
4.9985e-06
4.99927e-06
5.00037e-06
5.00172e-06
5.00309e-06
5.00533e-06
5.00512e-06
4.99684e-06
4.99653e-06
5.00434e-06
5.0038e-06
5.00106e-06
4.99908e-06
4.9972e-06
4.99556e-06
4.99411e-06
4.99292e-06
4.99185e-06
)
;
    }
    frontAndBack
    {
        type            empty;
        value           nonuniform List<scalar> 0();
    }
}


// ************************************************************************* //
