/*--------------------------------*- C++ -*----------------------------------*\
  =========                 |
  \\      /  F ield         | OpenFOAM: The Open Source CFD Toolbox
   \\    /   O peration     | Website:  https://openfoam.org
    \\  /    A nd           | Version:  9
     \\/     M anipulation  |
\*---------------------------------------------------------------------------*/
FoamFile
{
    format      ascii;
    class       volVectorField;
    location    "98";
    object      ddt0(hU);
}
// * * * * * * * * * * * * * * * * * * * * * * * * * * * * * * * * * * * * * //

dimensions      [0 2 -2 0 0 0 0];

internalField   nonuniform List<vector> 
400
(
(-8.60192e-10 1.23418e-09 0)
(9.56317e-10 4.38959e-10 0)
(5.32752e-10 -8.40277e-10 0)
(-1.65816e-09 -1.87423e-09 0)
(-3.69393e-09 -6.09817e-10 0)
(-1.68558e-09 1.10569e-09 0)
(1.92612e-09 3.15392e-09 0)
(3.06683e-09 3.31821e-09 0)
(1.60796e-09 1.15839e-09 0)
(-1.38158e-09 1.32176e-09 0)
(6.8598e-11 1.93191e-10 0)
(1.20708e-09 -2.24903e-09 0)
(-4.38451e-10 -2.60898e-09 0)
(1.0585e-09 -4.65368e-09 0)
(-2.61888e-10 -4.95525e-09 0)
(-4.22854e-09 -3.15936e-09 0)
(-5.92874e-09 -8.78467e-10 0)
(-6.29258e-09 -6.66344e-10 0)
(-6.29805e-09 -8.90437e-10 0)
(-3.71873e-09 6.00575e-11 0)
(-1.3313e-09 1.65966e-09 0)
(-1.48799e-09 4.05856e-10 0)
(-1.05115e-09 -2.22727e-09 0)
(-1.98555e-09 -3.6059e-09 0)
(-1.87372e-09 -4.3965e-11 0)
(1.12709e-10 4.34895e-09 0)
(2.9305e-09 8.23924e-09 0)
(2.22637e-09 4.27289e-09 0)
(1.30393e-09 9.20623e-10 0)
(1.19378e-09 -2.87544e-09 0)
(-1.94749e-09 -1.49544e-09 0)
(2.45016e-09 -8.45843e-09 0)
(-1.43081e-09 -6.98995e-09 0)
(2.84674e-10 -9.23859e-09 0)
(3.75911e-09 -1.23827e-08 0)
(2.37953e-09 -8.9569e-09 0)
(-8.70215e-10 -3.221e-09 0)
(-3.46543e-09 -4.73237e-10 0)
(-2.96045e-09 5.16931e-10 0)
(-1.14155e-09 5.51251e-10 0)
(-9.58089e-10 -1.25049e-11 0)
(-3.2495e-09 -9.8972e-10 0)
(-2.47155e-09 -2.39933e-09 0)
(-1.17519e-09 -1.83609e-09 0)
(7.63786e-10 2.68806e-09 0)
(2.73149e-09 7.1326e-09 0)
(7.79866e-10 6.46968e-09 0)
(1.97412e-09 -3.27219e-09 0)
(-2.89588e-09 -7.48617e-10 0)
(3.9068e-09 -8.52558e-09 0)
(-2.38522e-09 -4.56023e-09 0)
(-7.43577e-10 -4.97987e-09 0)
(3.35957e-09 -9.26283e-09 0)
(-4.64606e-09 -3.53854e-09 0)
(2.15312e-09 -7.18546e-09 0)
(9.6617e-09 -9.69569e-09 0)
(7.8268e-09 -6.99281e-09 0)
(3.04163e-09 -3.40622e-09 0)
(-1.11437e-10 -8.3141e-10 0)
(-9.81767e-10 -7.38956e-11 0)
(-6.5759e-10 -2.15199e-09 0)
(-3.7386e-09 -1.82743e-09 0)
(-2.05999e-09 -8.33495e-10 0)
(8.45356e-10 1.6134e-09 0)
(3.44605e-09 4.54236e-09 0)
(1.78936e-09 5.26664e-09 0)
(-1.65702e-09 -4.83882e-09 0)
(-1.32241e-09 -2.63243e-09 0)
(1.24283e-12 -5.32384e-09 0)
(-5.42007e-09 3.12309e-09 0)
(1.08286e-08 -9.01084e-09 0)
(-9.96295e-09 3.06186e-09 0)
(9.60387e-10 5.28849e-10 0)
(8.14585e-10 1.08602e-09 0)
(-7.70165e-09 5.61631e-09 0)
(1.62352e-09 1.70055e-10 0)
(8.6601e-09 -5.54534e-09 0)
(7.30306e-09 -6.39511e-09 0)
(4.19616e-09 -4.18045e-09 0)
(2.51144e-09 -1.17644e-09 0)
(2.36435e-10 -3.8755e-09 0)
(-2.05941e-09 -1.31262e-09 0)
(-3.15936e-10 1.60801e-09 0)
(2.76567e-09 3.44961e-09 0)
(3.40341e-09 3.38363e-09 0)
(-2.15133e-09 -3.11653e-09 0)
(-9.47602e-10 -7.16059e-09 0)
(-6.11062e-09 1.33316e-09 0)
(6.23814e-09 -5.53166e-10 0)
(-6.94798e-09 2.32124e-09 0)
(-1.07289e-08 8.13669e-09 0)
(1.39638e-08 -7.85466e-09 0)
(-9.07643e-09 7.26094e-09 0)
(3.11471e-10 6.63489e-09 0)
(-4.0208e-10 8.19388e-09 0)
(-7.03089e-09 8.5711e-09 0)
(-7.19211e-10 2.79803e-09 0)
(5.4461e-09 -1.53753e-09 0)
(5.58319e-09 -1.48032e-09 0)
(4.40624e-09 -3.68712e-10 0)
(1.70781e-09 -2.97623e-09 0)
(8.20902e-10 -1.02154e-10 0)
(1.43131e-09 2.41803e-09 0)
(2.84868e-09 2.05465e-09 0)
(1.16952e-10 -1.71872e-09 0)
(-1.7328e-09 -6.18973e-09 0)
(-4.03845e-09 -4.99905e-10 0)
(3.77514e-09 1.15244e-09 0)
(-1.06608e-08 6.72763e-09 0)
(2.00119e-08 -1.50516e-08 0)
(-1.97312e-08 2.49377e-08 0)
(-5.70097e-09 1.30835e-08 0)
(2.16018e-08 -8.66115e-09 0)
(-1.62655e-09 3.00838e-09 0)
(-3.48982e-09 4.63272e-09 0)
(-4.06941e-09 6.55935e-09 0)
(-4.78605e-09 6.90546e-09 0)
(-8.12024e-10 5.14993e-09 0)
(1.6209e-09 4.03994e-09 0)
(2.01804e-09 1.68146e-09 0)
(2.46005e-09 3.4981e-10 0)
(2.64178e-09 1.15875e-09 0)
(1.66725e-09 1.04943e-09 0)
(6.4266e-10 -1.58364e-09 0)
(-5.7075e-10 -4.43316e-09 0)
(-2.42143e-09 -1.90382e-09 0)
(3.05992e-10 2.41964e-09 0)
(-2.20847e-09 1.34377e-09 0)
(-1.04039e-09 -7.59373e-09 0)
(-1.33281e-08 2.13525e-08 0)
(7.4355e-08 9.17433e-09 0)
(-5.54308e-08 2.82399e-08 0)
(-1.63974e-08 6.50354e-10 0)
(2.00935e-08 -7.9138e-09 0)
(4.84465e-09 -2.7161e-09 0)
(-1.47484e-09 7.58962e-10 0)
(-1.93602e-09 4.0574e-09 0)
(-9.92572e-10 6.96174e-09 0)
(-2.20763e-09 6.73188e-09 0)
(-3.66107e-09 2.83952e-09 0)
(1.61267e-09 2.99082e-09 0)
(2.37914e-09 1.49478e-09 0)
(2.1451e-10 -5.40521e-10 0)
(-6.82532e-10 -3.07074e-09 0)
(-5.48405e-10 -2.70919e-09 0)
(3.14578e-10 2.37404e-09 0)
(-1.19591e-09 1.80529e-09 0)
(-4.42807e-09 -2.99223e-09 0)
(1.68124e-08 3.78705e-09 0)
(-2.16365e-09 -6.90834e-09 0)
(-2.00184e-07 -3.31022e-08 0)
(1.85419e-09 -3.32696e-08 0)
(-3.58007e-08 4.50304e-09 0)
(-5.09898e-09 1.63164e-09 0)
(8.67806e-09 -5.96706e-09 0)
(5.6275e-09 -6.19233e-09 0)
(4.42118e-09 -1.22556e-09 0)
(2.48628e-09 3.15615e-09 0)
(-3.01623e-09 3.69756e-09 0)
(-7.59893e-09 1.83319e-09 0)
(-3.12106e-11 2.6313e-09 0)
(1.20746e-09 4.75338e-10 0)
(-1.07658e-09 -9.36801e-10 0)
(-1.14866e-09 -7.80411e-10 0)
(1.44943e-09 2.79313e-11 0)
(2.6818e-10 2.00453e-09 0)
(-4.04208e-10 3.95872e-10 0)
(2.66332e-09 -4.05734e-09 0)
(-1.65434e-08 2.18447e-09 0)
(5.94945e-10 -4.87608e-09 0)
(2.01126e-07 -2.84705e-08 0)
(-5.03089e-09 -2.87677e-08 0)
(3.60448e-08 9.71869e-09 0)
(4.01224e-09 3.39018e-09 0)
(-7.31903e-09 -2.74112e-09 0)
(3.10229e-09 -5.4769e-09 0)
(1.78609e-08 -4.60849e-09 0)
(7.06317e-09 -3.39794e-09 0)
(-1.16962e-09 -2.08203e-09 0)
(-7.36533e-09 -8.4422e-10 0)
(-9.98975e-10 3.27885e-10 0)
(4.53678e-10 -9.87221e-10 0)
(-9.83645e-10 -9.93222e-11 0)
(-8.22838e-10 2.18775e-09 0)
(1.26683e-09 1.47876e-09 0)
(1.00888e-09 -2.20483e-09 0)
(-2.21342e-09 -8.87974e-10 0)
(-1.08858e-09 -3.89045e-10 0)
(2.91384e-09 -7.92067e-09 0)
(1.89905e-08 2.1417e-08 0)
(-7.65479e-08 1.20539e-08 0)
(5.80215e-08 4.40284e-08 0)
(1.05232e-08 5.33335e-09 0)
(-2.08103e-08 -3.89756e-09 0)
(-4.58089e-09 -9.15215e-10 0)
(2.58368e-09 1.44584e-09 0)
(-5.07214e-10 -8.1051e-10 0)
(5.91569e-09 -3.78423e-09 0)
(7.0579e-10 -4.74484e-09 0)
(-4.60814e-09 -2.41045e-09 0)
(-1.00648e-09 -1.365e-09 0)
(8.74812e-10 -1.30322e-09 0)
(7.19951e-11 4.69295e-10 0)
(-5.44477e-10 3.17305e-09 0)
(-2.65715e-10 9.27588e-10 0)
(-1.03912e-10 -3.7981e-09 0)
(-1.51524e-10 -2.1568e-09 0)
(-2.25119e-09 1.69652e-09 0)
(1.18585e-08 4.20367e-09 0)
(-3.13587e-08 3.79711e-09 0)
(6.12275e-08 6.14803e-08 0)
(-9.8918e-09 2.72583e-08 0)
(-3.46702e-08 -1.77783e-09 0)
(-2.91842e-09 2.98414e-09 0)
(5.88346e-10 4.0307e-09 0)
(4.18842e-09 6.23621e-09 0)
(3.12429e-09 3.87202e-09 0)
(1.21062e-10 -9.07532e-10 0)
(-2.13603e-09 -4.14227e-09 0)
(-2.4508e-09 -2.24681e-09 0)
(-2.82146e-10 -1.46014e-09 0)
(1.40482e-09 -5.61091e-10 0)
(1.15947e-09 4.23221e-10 0)
(-7.20454e-10 1.04823e-09 0)
(-1.7926e-09 2.15918e-10 0)
(-3.79468e-10 -2.25961e-09 0)
(4.09461e-10 -6.39762e-10 0)
(6.12341e-10 3.29003e-09 0)
(1.18144e-08 5.08051e-09 0)
(6.16402e-08 -2.20659e-08 0)
(5.62119e-08 -2.68217e-08 0)
(-3.3502e-08 -3.90818e-08 0)
(-1.75284e-08 -3.88157e-09 0)
(-9.76323e-09 3.73262e-09 0)
(9.18333e-10 5.99999e-09 0)
(2.5758e-09 5.60631e-09 0)
(-3.96445e-09 2.1629e-09 0)
(-5.90786e-09 -1.59337e-09 0)
(-3.62684e-09 -3.36173e-09 0)
(-1.38961e-10 -1.83783e-09 0)
(5.04764e-10 -7.15431e-10 0)
(1.74844e-09 1.87549e-10 0)
(9.5285e-10 5.2465e-11 0)
(-9.32014e-10 -9.38039e-10 0)
(-2.48814e-09 -1.48637e-09 0)
(9.74604e-10 1.37851e-09 0)
(1.32932e-09 8.26616e-10 0)
(5.80584e-09 4.50791e-09 0)
(-1.95795e-08 2.61289e-10 0)
(-3.81283e-08 -1.52031e-08 0)
(-4.8801e-08 -7.09579e-08 0)
(4.63984e-09 -2.81432e-08 0)
(2.40744e-08 -9.82695e-09 0)
(8.45179e-09 -2.71573e-09 0)
(4.23766e-09 2.54701e-09 0)
(-1.0428e-09 9.61027e-10 0)
(-6.56681e-09 -2.03628e-10 0)
(-6.48364e-09 -1.44507e-09 0)
(-2.05289e-09 -2.07839e-09 0)
(2.66104e-09 -1.11128e-09 0)
(1.43016e-09 -1.6347e-10 0)
(1.37644e-09 6.48199e-11 0)
(3.00442e-10 -2.91549e-10 0)
(-1.85051e-09 -2.5841e-10 0)
(-1.60687e-09 -1.02036e-09 0)
(7.26471e-10 1.19051e-09 0)
(4.84858e-09 3.86581e-09 0)
(-1.59333e-09 1.1445e-09 0)
(7.13429e-10 2.66945e-10 0)
(-1.71679e-09 1.63784e-08 0)
(-5.31215e-08 2.54376e-08 0)
(3.19044e-08 1.32602e-08 0)
(8.03999e-09 1.27713e-09 0)
(6.17962e-09 -6.48948e-10 0)
(5.62027e-09 -1.78617e-09 0)
(-1.97195e-09 -2.07962e-09 0)
(-5.14082e-09 -7.25462e-10 0)
(-4.96216e-09 -9.66322e-10 0)
(-1.89474e-10 -1.61475e-09 0)
(4.9073e-09 -8.73556e-10 0)
(2.10483e-09 1.94338e-10 0)
(7.02003e-10 -7.16664e-10 0)
(3.3476e-10 -7.05072e-10 0)
(-1.81782e-09 1.30757e-09 0)
(-1.81689e-09 2.6531e-09 0)
(1.43521e-09 3.24705e-10 0)
(2.82084e-09 2.00143e-09 0)
(1.99657e-09 2.7562e-10 0)
(-1.58583e-09 1.85429e-09 0)
(-9.89632e-09 -2.08721e-09 0)
(4.60647e-09 1.73612e-08 0)
(-1.38869e-09 9.34492e-09 0)
(5.96989e-09 1.15243e-09 0)
(5.65811e-09 4.48633e-10 0)
(4.28859e-10 -2.95348e-09 0)
(4.04662e-10 -1.87756e-09 0)
(-2.66474e-09 -1.40727e-09 0)
(-4.48485e-09 -2.0671e-09 0)
(5.44653e-10 -2.49495e-09 0)
(6.76876e-09 -1.23306e-09 0)
(1.67854e-09 1.06319e-09 0)
(-3.02383e-10 -1.05216e-09 0)
(1.14835e-09 -1.63698e-09 0)
(1.65376e-10 8.81445e-10 0)
(-1.63223e-09 5.04401e-09 0)
(4.05897e-11 2.80212e-09 0)
(1.26716e-09 -3.00397e-09 0)
(1.22958e-09 -1.89645e-09 0)
(-2.46682e-09 -4.63551e-09 0)
(2.73438e-09 1.69159e-09 0)
(3.81995e-09 3.98752e-09 0)
(1.4049e-09 2.60297e-09 0)
(2.27301e-09 3.09957e-09 0)
(-2.0157e-10 1.83421e-10 0)
(2.99563e-09 2.48952e-10 0)
(4.31365e-10 -1.47403e-09 0)
(-5.76756e-09 -3.16711e-09 0)
(-6.01866e-09 -2.79401e-09 0)
(1.59844e-09 -1.93987e-09 0)
(9.15486e-09 -8.04413e-10 0)
(-2.69745e-10 1.87736e-09 0)
(-1.65262e-09 1.74704e-11 0)
(1.7102e-09 -1.68774e-09 0)
(2.9267e-09 -1.58994e-09 0)
(1.76732e-10 2.37231e-09 0)
(-1.89394e-09 4.07538e-09 0)
(-1.26811e-09 -1.84346e-09 0)
(-1.27998e-09 -5.68241e-09 0)
(1.79401e-10 -3.56734e-09 0)
(-4.5443e-10 -2.77376e-09 0)
(-4.89842e-10 -2.68278e-09 0)
(8.2473e-10 8.86747e-10 0)
(-4.63034e-10 1.88821e-10 0)
(1.07116e-09 1.85255e-09 0)
(-9.61773e-10 2.85805e-10 0)
(-6.0117e-09 -3.56121e-09 0)
(-8.27079e-09 -3.70659e-09 0)
(-4.47417e-09 2.34645e-10 0)
(3.566e-09 2.90672e-09 0)
(9.79943e-09 1.66456e-09 0)
(-2.26071e-09 1.24204e-09 0)
(-2.22739e-09 2.25334e-09 0)
(1.02972e-09 3.28998e-10 0)
(3.88765e-09 -3.34879e-09 0)
(2.01301e-09 -3.70044e-09 0)
(-1.3949e-09 3.80666e-10 0)
(-3.16775e-09 6.23033e-10 0)
(-1.57717e-09 -1.66844e-09 0)
(-3.11107e-10 -8.2984e-10 0)
(-1.35452e-10 -3.55412e-10 0)
(1.30982e-09 -2.62228e-10 0)
(1.37235e-09 -2.26792e-10 0)
(8.37283e-10 5.82614e-10 0)
(-1.68354e-09 3.86991e-10 0)
(-5.47649e-09 -1.30521e-09 0)
(-7.49074e-09 -2.32886e-09 0)
(-4.9039e-09 4.90288e-10 0)
(6.58173e-10 6.56158e-09 0)
(4.86877e-09 9.64707e-09 0)
(5.55859e-09 4.7989e-09 0)
(-2.15516e-09 4.73464e-10 0)
(-1.1648e-09 3.48268e-09 0)
(-4.24838e-10 2.34009e-09 0)
(1.52102e-09 -3.0023e-09 0)
(1.99498e-09 -6.67782e-09 0)
(-1.60563e-10 -4.45343e-09 0)
(-1.96914e-09 1.39694e-10 0)
(-1.29569e-09 1.97362e-09 0)
(1.07104e-10 3.0647e-09 0)
(7.04001e-10 4.24501e-09 0)
(1.4764e-09 4.87662e-09 0)
(1.98429e-09 3.62306e-09 0)
(1.02219e-09 2.19716e-09 0)
(-1.35885e-09 1.03812e-09 0)
(-3.53759e-09 8.99425e-10 0)
(-2.24353e-09 1.95017e-09 0)
(2.67498e-09 5.12255e-09 0)
(5.49285e-09 9.50027e-09 0)
(2.82837e-09 1.11416e-08 0)
(-3.26666e-09 5.31181e-09 0)
(-1.11321e-09 2.60215e-10 0)
(-4.29823e-10 1.75013e-09 0)
(-1.91312e-09 1.40777e-09 0)
(-1.38644e-09 -1.17598e-09 0)
(8.62908e-10 -3.23706e-09 0)
(6.09676e-10 -2.97223e-09 0)
(-2.20456e-10 -3.97965e-10 0)
(-5.93767e-10 1.09928e-09 0)
(9.32403e-10 2.13029e-09 0)
(1.23666e-09 2.76697e-09 0)
(9.40865e-10 3.56024e-09 0)
(5.77999e-10 2.76509e-09 0)
(8.53689e-10 1.63755e-09 0)
(2.43492e-10 1.17381e-09 0)
(-8.1579e-10 1.2378e-09 0)
(2.55256e-09 1.94683e-09 0)
(7.01489e-09 3.19368e-09 0)
(6.25184e-09 4.4187e-09 0)
(-5.99525e-10 4.73573e-09 0)
(-1.02871e-08 2.24168e-09 0)
)
;

boundaryField
{
    sides
    {
        type            calculated;
        value           nonuniform List<vector> 
40
(
(-1.11321e-09 0 0)
(-4.29823e-10 0 0)
(-1.91312e-09 0 0)
(-1.38644e-09 0 0)
(8.62908e-10 0 0)
(6.09676e-10 0 0)
(-2.20456e-10 0 0)
(-5.93767e-10 0 0)
(9.32403e-10 0 0)
(1.23666e-09 0 0)
(9.40865e-10 0 0)
(5.77999e-10 0 0)
(8.53689e-10 0 0)
(2.43492e-10 0 0)
(-8.1579e-10 0 0)
(2.55256e-09 0 0)
(7.01489e-09 0 0)
(6.25184e-09 0 0)
(-5.99525e-10 0 0)
(-1.02871e-08 0 0)
(-8.60192e-10 0 0)
(9.56317e-10 0 0)
(5.32752e-10 0 0)
(-1.65816e-09 0 0)
(-3.69393e-09 0 0)
(-1.68558e-09 0 0)
(1.92612e-09 0 0)
(3.06683e-09 0 0)
(1.60796e-09 0 0)
(-1.38158e-09 0 0)
(6.8598e-11 0 0)
(1.20708e-09 0 0)
(-4.38451e-10 0 0)
(1.0585e-09 0 0)
(-2.61888e-10 0 0)
(-4.22854e-09 0 0)
(-5.92874e-09 0 0)
(-6.29258e-09 0 0)
(-6.29805e-09 0 0)
(-3.71873e-09 0 0)
)
;
    }
    inlet
    {
        type            calculated;
        value           uniform (0 0 0);
    }
    outlet
    {
        type            calculated;
        value           nonuniform List<vector> 
20
(
(-3.71873e-09 6.00575e-11 0)
(-1.14155e-09 5.51251e-10 0)
(-9.81767e-10 -7.38956e-11 0)
(2.51144e-09 -1.17644e-09 0)
(4.40624e-09 -3.68712e-10 0)
(2.01804e-09 1.68146e-09 0)
(-3.66107e-09 2.83952e-09 0)
(-7.59893e-09 1.83319e-09 0)
(-7.36533e-09 -8.4422e-10 0)
(-4.60814e-09 -2.41045e-09 0)
(-2.4508e-09 -2.24681e-09 0)
(-1.38961e-10 -1.83783e-09 0)
(2.66104e-09 -1.11128e-09 0)
(4.9073e-09 -8.73556e-10 0)
(6.76876e-09 -1.23306e-09 0)
(9.15486e-09 -8.04413e-10 0)
(9.79943e-09 1.66456e-09 0)
(5.55859e-09 4.7989e-09 0)
(-3.26666e-09 5.31181e-09 0)
(-1.02871e-08 2.24168e-09 0)
)
;
    }
    frontAndBack
    {
        type            empty;
    }
}


// ************************************************************************* //
