/*--------------------------------*- C++ -*----------------------------------*\
  =========                 |
  \\      /  F ield         | OpenFOAM: The Open Source CFD Toolbox
   \\    /   O peration     | Website:  https://openfoam.org
    \\  /    A nd           | Version:  9
     \\/     M anipulation  |
\*---------------------------------------------------------------------------*/
FoamFile
{
    format      ascii;
    class       volScalarField;
    location    "98";
    object      ddt0(h);
}
// * * * * * * * * * * * * * * * * * * * * * * * * * * * * * * * * * * * * * //

dimensions      [0 1 -1 0 0 0 0];

internalField   nonuniform List<scalar> 
400
(
-1.14504e-08
-3.73835e-09
-4.74438e-09
1.31791e-08
1.99075e-08
1.62676e-08
-1.88422e-09
-2.14379e-08
-2.03917e-08
-2.80675e-08
-2.62225e-08
-1.84556e-08
-7.67113e-09
-8.14484e-10
-9.62231e-09
-1.80102e-08
-2.78897e-08
-3.83973e-08
-3.29762e-08
-1.26494e-08
-9.22822e-09
-4.61051e-09
2.40628e-09
8.31167e-09
7.92001e-09
-4.05392e-09
-1.45214e-08
-9.51458e-09
-2.34547e-09
6.74439e-09
-1.11912e-08
2.20114e-08
6.0985e-09
1.5913e-08
1.60784e-08
6.82905e-09
-3.22345e-09
-9.64782e-09
-9.21067e-09
-3.66429e-09
1.64519e-09
2.43068e-09
5.65493e-09
-2.431e-09
-1.59477e-08
-2.42666e-08
-1.43002e-08
4.2883e-08
7.32177e-09
4.94778e-08
2.04956e-09
1.82422e-08
3.67594e-08
-2.28605e-09
1.37919e-08
2.82295e-08
2.24699e-08
1.78321e-08
1.33251e-08
4.10566e-09
1.2573e-08
9.17605e-09
2.72423e-09
-1.2856e-08
-2.97481e-08
-2.83681e-08
4.21014e-08
3.14948e-08
3.61143e-08
-1.82641e-08
7.69642e-08
-5.61198e-08
1.79823e-08
-5.54939e-10
-3.41414e-08
-2.49216e-09
2.63832e-08
3.61182e-08
2.57423e-08
7.84637e-09
1.51636e-08
7.8929e-09
-3.04876e-09
-1.52668e-08
-2.76581e-08
1.63499e-08
4.94107e-08
-3.30028e-08
4.49963e-08
-2.59781e-08
-7.64669e-08
6.27479e-08
-6.46014e-08
-1.19378e-09
-3.15771e-09
-2.64658e-08
7.44616e-10
2.76709e-08
1.96975e-08
4.29419e-09
1.33259e-08
-3.06969e-09
-4.57466e-09
-8.42594e-09
4.91866e-10
3.97391e-08
-2.57738e-08
1.54885e-08
-7.57309e-08
1.47936e-07
-1.30929e-07
4.37443e-10
7.34041e-08
-2.94111e-08
-1.00217e-08
-7.18904e-09
-9.08984e-09
-3.07976e-09
-6.43168e-09
-4.89528e-09
7.49997e-09
-9.47478e-09
-6.91048e-11
7.82871e-09
1.4012e-08
-3.25857e-10
-1.42599e-08
-6.38755e-08
1.32816e-07
-2.58247e-07
4.71156e-07
-2.8918e-07
-2.94766e-08
5.97048e-08
1.69361e-08
5.31382e-09
-7.32346e-10
-9.92848e-09
-1.89245e-08
-1.0209e-08
-2.27533e-09
-8.44373e-09
1.34568e-08
1.51288e-08
-3.40448e-09
-1.19263e-08
-3.20255e-08
3.45826e-08
2.42596e-09
-2.45884e-07
-1.96732e-06
1.44443e-07
-1.31934e-07
-2.66919e-08
2.38639e-08
2.15289e-08
1.79797e-08
2.26251e-10
-1.10913e-08
-7.27101e-09
-1.28644e-08
-2.24516e-09
1.93208e-08
1.5814e-08
-2.10702e-08
-2.25908e-08
3.16673e-08
-3.0726e-08
2.19396e-08
2.39427e-07
1.97252e-06
-1.54545e-07
1.37205e-07
1.0225e-08
-2.20868e-08
2.93233e-09
1.00183e-07
1.89801e-08
3.07075e-09
2.65536e-09
-1.62745e-08
-1.48373e-09
1.48079e-08
6.62984e-09
-1.38399e-08
-1.13952e-08
1.83701e-08
5.42066e-08
-1.27679e-07
2.54546e-07
-5.16947e-07
3.20112e-07
5.98894e-09
-5.61502e-08
-1.84466e-08
9.60363e-09
-5.3699e-08
8.24984e-09
1.60191e-09
-3.62881e-09
-1.37791e-08
-3.78438e-09
-2.10051e-10
6.32818e-09
5.20504e-09
-2.35124e-09
1.48955e-08
-1.11256e-08
5.95474e-08
-2.90391e-07
4.19058e-07
-1.35376e-07
-8.08635e-08
2.01971e-09
1.72918e-09
1.26129e-08
5.8178e-09
-1.07654e-08
-1.61292e-08
-6.57137e-09
-7.45119e-09
-5.27074e-09
-8.15694e-09
1.20739e-09
2.5607e-08
7.46293e-09
-1.07239e-08
6.22209e-09
-6.42216e-08
5.96585e-08
5.4282e-07
1.34016e-07
-2.03094e-08
-1.19415e-08
5.19513e-09
1.05503e-08
-1.70496e-08
-2.89381e-08
-2.4693e-08
-9.7232e-09
-2.3833e-10
-2.81764e-09
-8.06724e-09
2.03885e-09
1.63909e-08
1.91328e-08
-2.57626e-08
8.26604e-09
-6.79103e-09
-3.6476e-08
-4.98616e-07
-2.17264e-07
6.56276e-08
1.88431e-08
1.94044e-08
-1.53983e-09
-1.79326e-08
-2.032e-08
-1.34345e-08
-4.67513e-09
1.01449e-08
1.48651e-09
-7.23872e-09
2.38784e-09
5.42547e-09
-3.51899e-09
3.78911e-09
-1.43956e-08
1.30126e-08
1.3952e-07
-3.80644e-07
1.57855e-07
-2.46812e-08
2.51802e-08
1.33198e-08
-6.1745e-09
-2.75954e-09
6.15476e-10
1.67037e-09
1.52738e-09
2.18204e-08
3.40556e-09
-1.35109e-08
-3.14664e-09
1.00499e-08
-2.27366e-08
-1.03187e-08
6.30522e-09
2.40679e-08
-1.18704e-08
5.22854e-08
-3.01782e-08
2.9177e-08
1.75743e-08
-5.4932e-09
3.16687e-09
1.18946e-08
9.94994e-09
6.55852e-09
3.29353e-09
2.57691e-08
4.26465e-09
-2.1429e-08
-1.46358e-08
1.53691e-08
1.84445e-10
-3.12807e-08
1.38638e-08
2.51532e-09
3.29744e-08
6.45761e-08
2.21362e-08
8.52231e-09
-1.18716e-09
9.82568e-09
2.40704e-09
-4.44231e-09
2.29132e-09
7.45062e-09
4.03615e-09
1.73046e-08
7.59505e-09
-2.104e-08
-2.50835e-08
1.02309e-08
2.76464e-08
-1.62653e-09
-1.34309e-08
5.09135e-09
-5.85884e-09
-5.4645e-09
3.65325e-09
-1.15411e-08
-1.01504e-09
-5.18134e-09
-2.58377e-08
-2.77478e-08
-1.74807e-09
1.32526e-08
6.20783e-09
-9.7528e-10
1.06101e-08
-8.21489e-09
-1.89611e-08
-5.17294e-09
2.96159e-08
2.42355e-08
1.82943e-09
-8.53849e-09
-4.48181e-09
6.05587e-09
-5.8554e-09
-1.49649e-08
-1.97919e-08
-2.21279e-08
-3.51908e-08
-3.09712e-08
1.89954e-09
2.06908e-08
9.44514e-09
-1.71849e-08
4.6684e-09
1.22068e-08
1.53281e-09
-8.17449e-09
2.61624e-09
1.2687e-08
1.39352e-10
-1.11094e-08
-8.17963e-11
1.47576e-08
8.5518e-09
-3.42043e-09
-8.15441e-09
-4.57841e-09
-4.91097e-09
-5.05763e-09
4.18176e-09
1.74224e-08
1.08132e-08
-2.33971e-08
-5.28764e-09
2.59048e-08
1.94574e-08
-1.17264e-09
-1.76634e-08
-1.0798e-08
-1.83117e-08
-1.99007e-08
-9.04706e-09
9.49244e-09
1.41758e-08
1.09262e-08
1.15779e-08
1.47019e-08
2.3561e-08
1.39433e-08
-4.42109e-09
3.94194e-09
9.54962e-09
)
;

boundaryField
{
    sides
    {
        type            calculated;
        value           nonuniform List<scalar> 
40
(
-2.33971e-08
-5.28764e-09
2.59048e-08
1.94574e-08
-1.17264e-09
-1.76634e-08
-1.0798e-08
-1.83117e-08
-1.99007e-08
-9.04706e-09
9.49244e-09
1.41758e-08
1.09262e-08
1.15779e-08
1.47019e-08
2.3561e-08
1.39433e-08
-4.42109e-09
3.94194e-09
9.54962e-09
-1.14504e-08
-3.73835e-09
-4.74438e-09
1.31791e-08
1.99075e-08
1.62676e-08
-1.88422e-09
-2.14379e-08
-2.03917e-08
-2.80675e-08
-2.62225e-08
-1.84556e-08
-7.67113e-09
-8.14484e-10
-9.62231e-09
-1.80102e-08
-2.78897e-08
-3.83973e-08
-3.29762e-08
-1.26494e-08
)
;
    }
    inlet
    {
        type            calculated;
        value           nonuniform List<scalar> 
20
(
-1.14504e-08
-9.22822e-09
1.64519e-09
1.2573e-08
1.51636e-08
1.33259e-08
7.49997e-09
-2.27533e-09
-1.28644e-08
-1.62745e-08
-1.37791e-08
-7.45119e-09
-2.3833e-10
1.01449e-08
2.18204e-08
2.57691e-08
1.73046e-08
-9.7528e-10
-1.71849e-08
-2.33971e-08
)
;
    }
    outlet
    {
        type            calculated;
        value           uniform 0;
    }
    frontAndBack
    {
        type            empty;
    }
}


// ************************************************************************* //
