/*--------------------------------*- C++ -*----------------------------------*\
  =========                 |
  \\      /  F ield         | OpenFOAM: The Open Source CFD Toolbox
   \\    /   O peration     | Website:  https://openfoam.org
    \\  /    A nd           | Version:  9
     \\/     M anipulation  |
\*---------------------------------------------------------------------------*/
FoamFile
{
    format      ascii;
    class       volVectorField;
    location    "98";
    object      hU_0;
}
// * * * * * * * * * * * * * * * * * * * * * * * * * * * * * * * * * * * * * //

dimensions      [0 2 -1 0 0 0 0];

internalField   nonuniform List<vector> 
400
(
(0.001 -2.41626e-08 0)
(0.00100004 -7.04858e-08 0)
(0.00100012 -1.13179e-07 0)
(0.00100024 -1.52514e-07 0)
(0.00100039 -1.8757e-07 0)
(0.00100058 -2.17054e-07 0)
(0.00100078 -2.37006e-07 0)
(0.00100099 -2.45021e-07 0)
(0.00100118 -2.35746e-07 0)
(0.00100133 -2.10427e-07 0)
(0.0010014 -1.67585e-07 0)
(0.0010014 -1.27837e-07 0)
(0.00100129 -9.85078e-08 0)
(0.00100111 -9.26192e-08 0)
(0.00100087 -9.92045e-08 0)
(0.00100064 -1.35086e-07 0)
(0.00100044 -1.55909e-07 0)
(0.00100034 -2.00439e-07 0)
(0.00100026 -1.88111e-07 0)
(0.00100033 -2.68209e-07 0)
(0.001 -2.63686e-08 0)
(0.00100005 -7.86061e-08 0)
(0.00100013 -1.28242e-07 0)
(0.00100026 -1.74484e-07 0)
(0.00100042 -2.1403e-07 0)
(0.00100062 -2.40911e-07 0)
(0.00100084 -2.45759e-07 0)
(0.00100108 -2.19313e-07 0)
(0.0010013 -1.53233e-07 0)
(0.00100147 -4.60587e-08 0)
(0.00100156 9.51308e-08 0)
(0.00100154 2.48699e-07 0)
(0.00100141 3.90577e-07 0)
(0.00100119 4.77379e-07 0)
(0.00100092 5.05835e-07 0)
(0.00100067 4.52969e-07 0)
(0.00100048 3.79835e-07 0)
(0.00100036 2.58704e-07 0)
(0.00100033 2.06564e-07 0)
(0.00100029 8.15157e-08 0)
(0.001 -5.20944e-08 0)
(0.00100004 -1.58826e-07 0)
(0.00100013 -2.67045e-07 0)
(0.00100026 -3.74262e-07 0)
(0.00100043 -4.74249e-07 0)
(0.00100065 -5.55781e-07 0)
(0.0010009 -6.02923e-07 0)
(0.00100117 -5.96656e-07 0)
(0.00100143 -5.16835e-07 0)
(0.00100164 -3.50941e-07 0)
(0.00100176 -1.08974e-07 0)
(0.00100176 1.62752e-07 0)
(0.00100159 4.0223e-07 0)
(0.00100131 5.20343e-07 0)
(0.00100095 4.99709e-07 0)
(0.00100062 3.54517e-07 0)
(0.00100037 2.04357e-07 0)
(0.00100026 4.75514e-08 0)
(0.00100022 -2.08948e-09 0)
(0.0010003 -1.16752e-07 0)
(0.001 -7.32337e-08 0)
(0.00100004 -2.22338e-07 0)
(0.00100013 -3.75222e-07 0)
(0.00100026 -5.30838e-07 0)
(0.00100045 -6.80813e-07 0)
(0.00100069 -8.09647e-07 0)
(0.001001 -8.88692e-07 0)
(0.00100134 -8.85886e-07 0)
(0.00100171 -7.55409e-07 0)
(0.00100203 -4.75347e-07 0)
(0.00100222 -2.33983e-08 0)
(0.00100219 4.92808e-07 0)
(0.00100192 9.36294e-07 0)
(0.00100146 1.13959e-06 0)
(0.00100097 1.05466e-06 0)
(0.00100058 7.43049e-07 0)
(0.00100041 4.24155e-07 0)
(0.00100035 1.70609e-07 0)
(0.0010004 1.02427e-07 0)
(0.00100034 5.22814e-10 0)
(0.001 -9.09066e-08 0)
(0.00100004 -2.78233e-07 0)
(0.00100012 -4.77292e-07 0)
(0.00100025 -6.93956e-07 0)
(0.00100044 -9.20386e-07 0)
(0.00100072 -1.13888e-06 0)
(0.00100109 -1.2996e-06 0)
(0.00100155 -1.33801e-06 0)
(0.00100207 -1.17621e-06 0)
(0.00100257 -7.78597e-07 0)
(0.0010029 -1.71565e-07 0)
(0.00100288 5.78739e-07 0)
(0.00100244 1.23092e-06 0)
(0.00100167 1.5115e-06 0)
(0.00100086 1.37532e-06 0)
(0.00100031 9.64547e-07 0)
(0.00100013 5.80991e-07 0)
(0.00100022 3.13825e-07 0)
(0.00100036 2.61686e-07 0)
(0.00100043 1.67706e-07 0)
(0.001 -1.03481e-07 0)
(0.00100003 -3.18804e-07 0)
(0.00100009 -5.6218e-07 0)
(0.00100019 -8.44356e-07 0)
(0.00100038 -1.17247e-06 0)
(0.00100068 -1.52553e-06 0)
(0.00100115 -1.86032e-06 0)
(0.00100178 -2.05488e-06 0)
(0.00100254 -1.91222e-06 0)
(0.00100326 -1.20144e-06 0)
(0.00100377 8.56575e-08 0)
(0.00100378 1.54116e-06 0)
(0.00100309 2.43378e-06 0)
(0.00100192 2.30522e-06 0)
(0.00100082 1.43042e-06 0)
(0.00100019 4.92581e-07 0)
(0.00100017 1.2767e-08 0)
(0.00100037 -8.63413e-08 0)
(0.00100064 5.93101e-08 0)
(0.00100055 4.96147e-08 0)
(0.001 -1.02937e-07 0)
(0.001 -3.33708e-07 0)
(0.00100002 -6.01722e-07 0)
(0.00100008 -9.6173e-07 0)
(0.00100021 -1.39272e-06 0)
(0.00100048 -1.94731e-06 0)
(0.001001 -2.48998e-06 0)
(0.00100188 -3.08434e-06 0)
(0.00100321 -3.23365e-06 0)
(0.00100473 -2.88172e-06 0)
(0.00100573 -6.69896e-07 0)
(0.00100535 2.55496e-06 0)
(0.0010035 4.82707e-06 0)
(0.00100112 4.73677e-06 0)
(0.000999608 3.02885e-06 0)
(0.000999371 1.26428e-06 0)
(0.00100001 4.30954e-07 0)
(0.00100056 3.26112e-07 0)
(0.00100093 5.61505e-07 0)
(0.00100066 5.33721e-07 0)
(0.000999996 -9.29978e-08 0)
(0.000999968 -2.88903e-07 0)
(0.000999907 -5.76801e-07 0)
(0.000999876 -9.56796e-07 0)
(0.000999878 -1.57817e-06 0)
(0.0010001 -2.3457e-06 0)
(0.0010005 -3.40253e-06 0)
(0.00100152 -4.12434e-06 0)
(0.00100308 -4.37257e-06 0)
(0.00100601 -2.54709e-06 0)
(0.0010091 7.52328e-07 0)
(0.00100914 4.26854e-06 0)
(0.0010055 4.72025e-06 0)
(0.00100074 2.78259e-06 0)
(0.000998151 7.35322e-07 0)
(0.000998274 -2.74456e-07 0)
(0.000999797 -2.85543e-07 0)
(0.00100087 -9.87889e-09 0)
(0.00100133 2.11826e-07 0)
(0.00100085 1.02786e-07 0)
(0.000999995 -4.95542e-08 0)
(0.000999915 -2.03924e-07 0)
(0.000999756 -3.86539e-07 0)
(0.000999531 -7.35172e-07 0)
(0.000999287 -1.33895e-06 0)
(0.000999211 -2.48177e-06 0)
(0.000999707 -4.68731e-06 0)
(0.00100139 -8.06808e-06 0)
(0.00100491 -1.32855e-05 0)
(0.00100958 -1.49108e-05 0)
(0.00101189 3.84008e-06 0)
(0.00100893 1.8731e-05 0)
(0.00100221 1.57825e-05 0)
(0.000997565 5.74183e-06 0)
(0.000996886 -3.16427e-07 0)
(0.000998461 -1.2637e-06 0)
(0.00100027 -9.47945e-08 0)
(0.001001 6.3431e-07 0)
(0.00100107 6.51616e-07 0)
(0.00100054 2.43661e-07 0)
(0.000999804 -1.98498e-08 0)
(0.00100017 -6.67069e-08 0)
(0.000999216 -1.51603e-07 0)
(0.000999904 -2.48839e-07 0)
(0.000997521 -5.92163e-07 0)
(0.000998843 -1.13138e-06 0)
(0.000993347 -2.88386e-06 0)
(0.000997531 -5.59293e-06 0)
(0.000991668 -1.15428e-05 0)
(0.00091583 -1.27081e-05 0)
(0.000951469 2.74912e-07 0)
(0.00101023 1.46387e-05 0)
(0.000990948 1.30833e-05 0)
(0.000983974 5.14087e-06 0)
(0.000989586 1.94309e-07 0)
(0.000996281 -7.81688e-07 0)
(0.000999236 -1.12371e-07 0)
(0.000999412 2.47608e-07 0)
(0.000998647 1.73739e-07 0)
(0.000998504 -1.85098e-07 0)
(0.000999804 1.33293e-08 0)
(0.00100017 4.60362e-08 0)
(0.000999216 1.17265e-07 0)
(0.000999903 1.99914e-07 0)
(0.000997518 5.29706e-07 0)
(0.000998838 1.05148e-06 0)
(0.000993339 2.78591e-06 0)
(0.000997519 5.47281e-06 0)
(0.00099165 1.13963e-05 0)
(0.000915811 1.25472e-05 0)
(0.000951431 -4.69797e-07 0)
(0.0010102 -1.49081e-05 0)
(0.000990946 -1.34089e-05 0)
(0.000983967 -5.53557e-06 0)
(0.000989567 -6.48197e-07 0)
(0.000996243 2.48007e-07 0)
(0.000999194 -4.72917e-07 0)
(0.000999366 -1.00302e-06 0)
(0.000998633 -9.89098e-07 0)
(0.000998455 -8.88797e-07 0)
(0.000999995 4.31581e-08 0)
(0.000999915 1.84189e-07 0)
(0.000999755 3.53382e-07 0)
(0.000999531 6.8729e-07 0)
(0.000999285 1.27666e-06 0)
(0.00099921 2.40153e-06 0)
(0.000999702 4.58854e-06 0)
(0.00100139 7.94244e-06 0)
(0.0010049 1.31317e-05 0)
(0.00100958 1.4719e-05 0)
(0.00101189 -4.06976e-06 0)
(0.0010089 -1.90068e-05 0)
(0.00100214 -1.60956e-05 0)
(0.000997477 -6.12287e-06 0)
(0.000996814 -8.43849e-08 0)
(0.0009984 7.74961e-07 0)
(0.00100016 -4.27569e-07 0)
(0.00100085 -1.3051e-06 0)
(0.00100088 -1.37921e-06 0)
(0.00100037 -1.2507e-06 0)
(0.000999996 8.68784e-08 0)
(0.000999967 2.70399e-07 0)
(0.000999906 5.44875e-07 0)
(0.000999871 9.10178e-07 0)
(0.00099987 1.51345e-06 0)
(0.00100008 2.26122e-06 0)
(0.00100048 3.29364e-06 0)
(0.00100149 3.99117e-06 0)
(0.00100303 4.2123e-06 0)
(0.00100594 2.36552e-06 0)
(0.00100901 -9.82967e-07 0)
(0.00100906 -4.54032e-06 0)
(0.00100543 -5.01975e-06 0)
(0.00100066 -3.12933e-06 0)
(0.000998057 -1.13147e-06 0)
(0.000998133 -2.51651e-07 0)
(0.000999621 -3.22383e-07 0)
(0.00100064 -7.40799e-07 0)
(0.00100106 -9.66585e-07 0)
(0.00100055 -1.07364e-06 0)
(0.001 9.72168e-08 0)
(0.001 3.15874e-07 0)
(0.00100002 5.71508e-07 0)
(0.00100007 9.17365e-07 0)
(0.0010002 1.33335e-06 0)
(0.00100046 1.87047e-06 0)
(0.00100097 2.3989e-06 0)
(0.00100185 2.97556e-06 0)
(0.00100318 3.11247e-06 0)
(0.00100468 2.73306e-06 0)
(0.00100568 5.10992e-07 0)
(0.00100528 -2.75091e-06 0)
(0.00100338 -5.07663e-06 0)
(0.00100096 -5.07029e-06 0)
(0.000999409 -3.44953e-06 0)
(0.000999121 -1.79407e-06 0)
(0.000999744 -1.02039e-06 0)
(0.00100025 -1.05825e-06 0)
(0.00100061 -1.30639e-06 0)
(0.00100024 -1.51525e-06 0)
(0.001 9.82276e-08 0)
(0.00100002 3.02644e-07 0)
(0.00100008 5.3515e-07 0)
(0.00100018 8.0537e-07 0)
(0.00100036 1.12131e-06 0)
(0.00100066 1.45916e-06 0)
(0.00100112 1.77819e-06 0)
(0.00100174 1.95145e-06 0)
(0.00100248 1.78305e-06 0)
(0.00100317 1.03547e-06 0)
(0.00100366 -2.76462e-07 0)
(0.00100363 -1.7805e-06 0)
(0.00100292 -2.70932e-06 0)
(0.00100171 -2.6314e-06 0)
(0.00100058 -1.77895e-06 0)
(0.000999904 -8.95432e-07 0)
(0.000999859 -4.27037e-07 0)
(0.000999982 -4.47506e-07 0)
(0.00100022 -6.16003e-07 0)
(0.00100001 -8.48413e-07 0)
(0.001 8.60196e-08 0)
(0.00100004 2.64128e-07 0)
(0.00100011 4.53881e-07 0)
(0.00100024 6.61081e-07 0)
(0.00100043 8.77484e-07 0)
(0.0010007 1.08455e-06 0)
(0.00100106 1.23012e-06 0)
(0.0010015 1.25298e-06 0)
(0.001002 1.07363e-06 0)
(0.00100248 6.56886e-07 0)
(0.0010028 1.809e-08 0)
(0.00100274 -7.69831e-07 0)
(0.00100227 -1.44984e-06 0)
(0.00100146 -1.77443e-06 0)
(0.00100062 -1.66834e-06 0)
(0.00100001 -1.34867e-06 0)
(0.000999794 -1.02981e-06 0)
(0.000999767 -9.3711e-07 0)
(0.000999886 -9.45344e-07 0)
(0.000999767 -1.10844e-06 0)
(0.001 6.88765e-08 0)
(0.00100004 2.09721e-07 0)
(0.00100012 3.54103e-07 0)
(0.00100025 5.01145e-07 0)
(0.00100043 6.43661e-07 0)
(0.00100066 7.6567e-07 0)
(0.00100095 8.37756e-07 0)
(0.00100129 8.25775e-07 0)
(0.00100163 6.91026e-07 0)
(0.00100191 4.0586e-07 0)
(0.00100206 -4.7193e-08 0)
(0.001002 -5.76221e-07 0)
(0.00100171 -1.03579e-06 0)
(0.0010012 -1.28165e-06 0)
(0.00100065 -1.23e-06 0)
(0.00100016 -9.94796e-07 0)
(0.000999916 -7.02456e-07 0)
(0.000999742 -5.57219e-07 0)
(0.000999753 -4.87566e-07 0)
(0.000999561 -5.98408e-07 0)
(0.001 4.98992e-08 0)
(0.00100004 1.49855e-07 0)
(0.00100012 2.47214e-07 0)
(0.00100025 3.38963e-07 0)
(0.00100041 4.211e-07 0)
(0.00100062 4.82599e-07 0)
(0.00100086 5.08225e-07 0)
(0.00100112 4.72993e-07 0)
(0.00100137 3.61025e-07 0)
(0.00100157 1.55566e-07 0)
(0.00100167 -1.16786e-07 0)
(0.0010016 -4.21132e-07 0)
(0.00100139 -6.81481e-07 0)
(0.00100103 -8.42277e-07 0)
(0.00100064 -8.50108e-07 0)
(0.00100022 -7.70628e-07 0)
(0.000999951 -6.38048e-07 0)
(0.000999691 -5.97244e-07 0)
(0.000999629 -5.61998e-07 0)
(0.000999387 -6.8488e-07 0)
(0.001 3.42273e-08 0)
(0.00100004 1.0465e-07 0)
(0.00100011 1.75036e-07 0)
(0.00100023 2.42133e-07 0)
(0.00100038 3.01865e-07 0)
(0.00100056 3.48752e-07 0)
(0.00100077 3.74385e-07 0)
(0.00100097 3.68124e-07 0)
(0.00100116 3.19335e-07 0)
(0.0010013 2.23686e-07 0)
(0.00100136 8.58436e-08 0)
(0.00100131 -7.05586e-08 0)
(0.00100115 -2.05876e-07 0)
(0.00100086 -2.96776e-07 0)
(0.00100054 -3.11675e-07 0)
(0.00100017 -2.81168e-07 0)
(0.000999901 -2.02586e-07 0)
(0.000999614 -1.69408e-07 0)
(0.000999517 -1.19346e-07 0)
(0.000999249 -1.98581e-07 0)
(0.001 -4.20876e-09 0)
(0.00100004 -9.96528e-09 0)
(0.00100012 -1.27289e-08 0)
(0.00100024 -1.45631e-08 0)
(0.00100038 -1.72252e-08 0)
(0.00100056 -2.33522e-08 0)
(0.00100075 -3.43017e-08 0)
(0.00100094 -5.38725e-08 0)
(0.00100111 -8.21263e-08 0)
(0.00100123 -1.22503e-07 0)
(0.00100128 -1.7033e-07 0)
(0.00100121 -2.31526e-07 0)
(0.00100107 -2.90401e-07 0)
(0.00100081 -3.40937e-07 0)
(0.00100053 -3.59256e-07 0)
(0.00100018 -3.67617e-07 0)
(0.000999946 -3.42345e-07 0)
(0.000999609 -3.53233e-07 0)
(0.000999522 -3.28334e-07 0)
(0.00099913 -4.10725e-07 0)
)
;

boundaryField
{
    sides
    {
        type            slip;
    }
    inlet
    {
        type            fixedValue;
        value           uniform (0.001 0 0);
    }
    outlet
    {
        type            zeroGradient;
    }
    frontAndBack
    {
        type            empty;
    }
}


// ************************************************************************* //
