/*--------------------------------*- C++ -*----------------------------------*\
  =========                 |
  \\      /  F ield         | OpenFOAM: The Open Source CFD Toolbox
   \\    /   O peration     | Website:  https://openfoam.org
    \\  /    A nd           | Version:  9
     \\/     M anipulation  |
\*---------------------------------------------------------------------------*/
FoamFile
{
    format      ascii;
    class       surfaceScalarField;
    location    "98";
    object      phi;
}
// * * * * * * * * * * * * * * * * * * * * * * * * * * * * * * * * * * * * * //

dimensions      [0 4 -1 0 0 0 0];

internalField   nonuniform List<scalar> 
760
(
5.00009e-06
-9.16548e-11
5.0004e-06
-3.05021e-10
5.00091e-06
-5.13382e-10
5.00162e-06
-7.0833e-10
5.00249e-06
-8.77495e-10
5.00349e-06
-1.00388e-09
5.00456e-06
-1.05566e-09
5.00557e-06
-1.00691e-09
5.0064e-06
-8.26368e-10
5.00692e-06
-5.18628e-10
5.00705e-06
-1.20972e-10
5.00665e-06
3.97501e-10
5.00579e-06
8.53966e-10
5.00469e-06
1.10079e-09
5.00352e-06
1.16924e-09
5.00256e-06
9.52022e-10
5.00185e-06
7.173e-10
5.00161e-06
2.48107e-10
5.00151e-06
1.09739e-10
-3.91045e-10
5.00012e-06
-2.11803e-10
5.00045e-06
-6.32579e-10
5.00098e-06
-1.04721e-09
5.00172e-06
-1.44775e-09
5.00265e-06
-1.80916e-09
5.00374e-06
-2.09232e-09
5.00493e-06
-2.23882e-09
5.00611e-06
-2.18472e-09
5.00713e-06
-1.84723e-09
5.00777e-06
-1.16785e-09
5.00774e-06
-9.09875e-11
5.00725e-06
8.82436e-10
5.00626e-06
1.83948e-09
5.00495e-06
2.41038e-09
5.00368e-06
2.43944e-09
5.00277e-06
1.85466e-09
5.00224e-06
1.24517e-09
5.00191e-06
5.82172e-10
5.00165e-06
3.70232e-10
-1.46306e-10
5.00011e-06
-3.20798e-10
5.00043e-06
-9.53059e-10
5.00096e-06
-1.57901e-09
5.00172e-06
-2.20828e-09
5.00272e-06
-2.80557e-09
5.00395e-06
-3.31125e-09
5.00532e-06
-3.61906e-09
5.00672e-06
-3.59303e-09
5.00793e-06
-3.05845e-09
5.00872e-06
-1.96421e-09
5.00893e-06
-3.10275e-10
5.00825e-06
1.56498e-09
5.00687e-06
3.21917e-09
5.00515e-06
4.13014e-09
5.00351e-06
4.08978e-09
5.00231e-06
3.05252e-09
5.00166e-06
1.88627e-09
5.00147e-06
7.67584e-10
5.00144e-06
3.96359e-10
-2.22024e-10
5.0001e-06
-4.22289e-10
5.0004e-06
-1.26331e-09
5.00094e-06
-2.11398e-09
5.00175e-06
-3.00787e-09
5.00286e-06
-3.9089e-09
5.00429e-06
-4.74516e-09
5.00601e-06
-5.35597e-09
5.00795e-06
-5.53037e-09
5.00983e-06
-4.95437e-09
5.01107e-06
-3.19374e-09
5.0112e-06
-4.37266e-10
5.00999e-06
2.771e-09
5.00765e-06
5.56934e-09
5.00514e-06
6.6368e-09
5.00347e-06
5.76548e-09
5.00271e-06
3.83116e-09
5.00248e-06
2.10928e-09
5.00231e-06
9.34129e-10
5.00199e-06
7.07375e-10
3.38654e-10
5.00008e-06
-5.05081e-10
5.00034e-06
-1.52259e-09
5.00083e-06
-2.60603e-09
5.00164e-06
-3.80819e-09
5.00286e-06
-5.13098e-09
5.00457e-06
-6.46876e-09
5.0068e-06
-7.5797e-09
5.00942e-06
-8.15113e-09
5.01239e-06
-7.9191e-09
5.01477e-06
-5.59716e-09
5.01483e-06
-4.6048e-10
5.01285e-06
4.74264e-09
5.00867e-06
9.74622e-09
5.00459e-06
1.0718e-08
5.00224e-06
8.12188e-09
5.00174e-06
4.3286e-09
5.00205e-06
1.80851e-09
5.00226e-06
7.25153e-10
5.00201e-06
9.5163e-10
6.27377e-10
5.00004e-06
-5.46148e-10
5.0002e-06
-1.67809e-09
5.00054e-06
-2.94578e-09
5.00121e-06
-4.48122e-09
5.00241e-06
-6.33495e-09
5.00452e-06
-8.58181e-09
5.0076e-06
-1.0656e-08
5.01167e-06
-1.2219e-08
5.01552e-06
-1.17762e-08
5.01901e-06
-9.0792e-09
5.0202e-06
-1.66436e-09
5.01602e-06
8.9559e-09
5.00951e-06
1.62516e-08
5.00421e-06
1.60059e-08
5.00217e-06
1.01628e-08
5.00249e-06
4.00409e-09
5.00327e-06
1.03505e-09
5.00339e-06
6.02291e-10
5.0028e-06
1.55078e-09
1.42439e-09
4.99998e-06
-5.2519e-10
4.99994e-06
-1.63529e-09
5.00003e-06
-3.03843e-09
5.00036e-06
-4.81367e-09
5.00122e-06
-7.19626e-09
5.00292e-06
-1.02804e-08
5.0068e-06
-1.45333e-08
5.01392e-06
-1.93374e-08
5.02374e-06
-2.16116e-08
5.03095e-06
-1.62223e-08
5.02872e-06
5.04947e-10
5.01672e-06
2.09429e-08
5.00419e-06
2.88216e-08
4.99874e-06
2.14571e-08
5.00057e-06
8.31357e-09
5.00284e-06
1.72897e-09
5.00371e-06
1.64553e-10
5.00366e-06
6.56068e-10
5.00304e-06
2.16776e-09
1.68363e-09
4.99987e-06
-3.90423e-10
4.99955e-06
-1.32109e-09
4.99912e-06
-2.6123e-09
4.99885e-06
-4.54422e-09
4.99933e-06
-7.67016e-09
5.00036e-06
-1.1305e-08
5.00365e-06
-1.78242e-08
5.00982e-06
-2.55122e-08
5.02489e-06
-3.66509e-08
5.05611e-06
-4.74968e-08
5.05009e-06
5.60669e-09
5.02317e-06
4.7784e-08
4.99818e-06
5.38153e-08
4.9935e-06
2.61449e-08
4.99947e-06
2.3446e-09
5.00407e-06
-2.87938e-09
5.0049e-06
-6.71811e-10
5.00372e-06
1.83509e-09
5.0035e-06
2.38228e-09
9.70715e-10
4.99977e-06
-1.58581e-10
4.99915e-06
-7.0604e-10
4.99792e-06
-1.38027e-09
4.99611e-06
-2.73236e-09
4.99402e-06
-5.57681e-09
4.99374e-06
-1.10287e-08
4.99945e-06
-2.35332e-08
5.01714e-06
-4.32009e-08
5.0557e-06
-7.52415e-08
5.06684e-06
-5.85782e-08
5.04967e-06
2.36829e-08
4.9965e-06
1.01036e-07
4.98931e-06
6.1021e-08
4.9959e-06
1.95408e-08
5.00019e-06
-1.93807e-09
5.00293e-06
-5.61865e-09
5.00252e-06
-2.41459e-10
5.00184e-06
2.51182e-09
5.00254e-06
1.67468e-09
7.31954e-11
4.99986e-06
-1.65192e-11
4.99921e-06
-5.24757e-11
4.99791e-06
-8.6976e-11
4.9953e-06
-1.25984e-10
4.9899e-06
-1.66878e-10
4.97909e-06
-2.19947e-10
4.95582e-06
-2.72481e-10
4.91296e-06
-3.34418e-10
4.83815e-06
-4.11201e-10
4.77996e-06
-4.59496e-10
4.80429e-06
-5.87991e-10
4.90605e-06
-7.05679e-10
4.96777e-06
-7.47835e-10
4.98822e-06
-9.01131e-10
4.98745e-06
-1.16202e-09
4.98326e-06
-1.42634e-09
4.98456e-06
-1.55852e-09
4.9889e-06
-1.83151e-09
4.99247e-06
-1.89978e-09
-2.5869e-09
4.99986e-06
1.26547e-10
4.99921e-06
6.01742e-10
4.99791e-06
1.21123e-09
4.9953e-06
2.48417e-09
4.98988e-06
5.25224e-09
4.97906e-06
1.05998e-08
4.95577e-06
2.30092e-08
4.9129e-06
4.25406e-08
4.83804e-06
7.44577e-08
4.77974e-06
5.78488e-08
4.80426e-06
-2.50889e-08
4.90597e-06
-1.02478e-07
4.96776e-06
-6.25135e-08
4.98806e-06
-2.11973e-08
4.98736e-06
-4.50487e-10
4.98293e-06
2.99972e-09
4.98442e-06
-3.05191e-09
4.98888e-06
-6.2885e-09
4.99235e-06
-5.36178e-09
-4.98577e-09
4.99977e-06
3.596e-10
4.99915e-06
1.22376e-09
4.99792e-06
2.44341e-09
4.9961e-06
4.29632e-09
4.99402e-06
7.3334e-09
4.99373e-06
1.08863e-08
4.99943e-06
1.73147e-08
5.01707e-06
2.4897e-08
5.05563e-06
3.5916e-08
5.06711e-06
4.63435e-08
5.04949e-06
-7.87484e-09
4.99609e-06
-4.9115e-08
4.98884e-06
-5.52722e-08
4.99569e-06
-2.80462e-08
5.0001e-06
-4.86443e-09
5.00231e-06
7.90195e-10
5.00165e-06
-2.39238e-09
5.0009e-06
-5.53558e-09
5.00168e-06
-6.13921e-09
-5.95253e-09
4.99987e-06
4.95353e-10
4.99955e-06
1.54262e-09
4.99911e-06
2.8791e-09
4.99883e-06
4.57764e-09
4.99927e-06
6.88618e-09
5.00027e-06
9.8933e-09
5.00348e-06
1.41063e-08
5.0096e-06
1.87717e-08
5.02458e-06
2.09184e-08
5.05556e-06
1.54283e-08
5.04972e-06
-1.71542e-09
5.02283e-06
-2.21694e-08
4.99787e-06
-3.03066e-08
4.99316e-06
-2.3336e-08
4.99864e-06
-1.03463e-08
5.00344e-06
-4.02155e-09
5.00372e-06
-2.67138e-09
5.00235e-06
-4.16061e-09
5.00216e-06
-5.94487e-09
-6.53611e-09
4.99998e-06
5.1716e-10
4.99993e-06
1.59151e-09
5.00001e-06
2.80177e-09
5.00031e-06
4.27484e-09
5.00113e-06
6.06292e-09
5.00279e-06
8.2313e-09
5.00668e-06
1.02211e-08
5.01378e-06
1.16682e-08
5.02357e-06
1.11314e-08
5.03069e-06
8.28002e-09
5.0284e-06
6.46955e-10
5.01626e-06
-1.00193e-08
5.0035e-06
-1.75548e-08
4.99777e-06
-1.76081e-08
4.99941e-06
-1.19879e-08
5.0016e-06
-6.21983e-09
5.0024e-06
-3.46607e-09
5.00213e-06
-3.88979e-09
5.0012e-06
-5.00921e-09
-5.97813e-09
5.00003e-06
4.78066e-10
5.00018e-06
1.44572e-09
5.0005e-06
2.47988e-09
5.00115e-06
3.62914e-09
5.00232e-06
4.89589e-09
5.0044e-06
6.15966e-09
5.00742e-06
7.19729e-09
5.0114e-06
7.68952e-09
5.01513e-06
7.38593e-09
5.01852e-06
4.88289e-09
5.01956e-06
-3.96492e-10
5.01523e-06
-5.69612e-09
5.00854e-06
-1.08662e-08
5.00311e-06
-1.2179e-08
5.00088e-06
-9.75567e-09
5.00101e-06
-6.3517e-09
5.00155e-06
-4.01295e-09
5.00131e-06
-3.65482e-09
5.00035e-06
-4.04863e-09
-4.9787e-09
5.00007e-06
3.98588e-10
5.00032e-06
1.19949e-09
5.0008e-06
2.00966e-09
5.00157e-06
2.85678e-09
5.00275e-06
3.71421e-09
5.00441e-06
4.50178e-09
5.00656e-06
5.04999e-09
5.00909e-06
5.14884e-09
5.01203e-06
4.44834e-09
5.0144e-06
2.50584e-09
5.01414e-06
-1.40424e-10
5.01208e-06
-3.63823e-09
5.00775e-06
-6.53877e-09
5.00349e-06
-7.91321e-09
5.00093e-06
-7.19381e-09
5.00013e-06
-5.55625e-09
5.0001e-06
-3.98944e-09
4.99987e-06
-3.42554e-09
4.99917e-06
-3.344e-09
-4.17356e-09
5.00009e-06
2.98737e-10
5.00039e-06
9.02606e-10
5.00091e-06
1.50087e-09
5.00168e-06
2.09032e-09
5.00274e-06
2.64905e-09
5.00412e-06
3.11466e-09
5.00579e-06
3.38276e-09
5.00763e-06
3.30794e-09
5.00933e-06
2.75024e-09
5.01027e-06
1.56745e-09
5.01043e-06
-3.05962e-10
5.00903e-06
-2.23802e-09
5.0065e-06
-4.01153e-09
5.00367e-06
-5.08304e-09
5.00154e-06
-5.0628e-09
5.00034e-06
-4.35701e-09
4.9997e-06
-3.34603e-09
4.99917e-06
-2.88725e-09
4.99845e-06
-2.62422e-09
-3.21527e-09
5.0001e-06
1.95422e-10
5.00041e-06
5.95141e-10
5.00093e-06
9.87371e-10
5.00166e-06
1.35789e-09
5.00262e-06
1.6907e-09
5.00378e-06
1.94685e-09
5.00509e-06
2.06447e-09
5.00645e-06
1.95454e-09
5.00765e-06
1.55533e-09
5.00839e-06
8.2921e-10
5.00821e-06
-1.28695e-10
5.00733e-06
-1.35727e-09
5.0057e-06
-2.37443e-09
5.00368e-06
-3.06286e-09
5.00179e-06
-3.16707e-09
5.00033e-06
-2.89495e-09
4.99932e-06
-2.32192e-09
4.99852e-06
-2.08969e-09
4.99773e-06
-1.82816e-09
-2.27644e-09
5.00009e-06
1.12258e-10
5.00037e-06
3.05331e-10
5.00086e-06
4.96014e-10
5.00155e-06
6.74837e-10
5.00241e-06
8.29914e-10
5.00341e-06
9.4359e-10
5.00448e-06
9.91164e-10
5.00551e-06
9.3257e-10
5.00633e-06
7.35343e-10
5.0068e-06
3.61887e-10
5.00681e-06
-1.40141e-10
5.00607e-06
-6.25003e-10
5.00479e-06
-1.08751e-09
5.00315e-06
-1.42412e-09
5.00148e-06
-1.49604e-09
5.00002e-06
-1.43251e-09
4.99889e-06
-1.18212e-09
4.99793e-06
-1.13046e-09
4.99706e-06
-9.72639e-10
-1.42347e-09
5.00012e-06
5.00042e-06
5.00091e-06
5.00158e-06
5.00242e-06
5.00337e-06
5.00436e-06
5.00529e-06
5.00603e-06
5.00639e-06
5.00625e-06
5.00562e-06
5.00453e-06
5.0031e-06
5.0016e-06
5.00017e-06
4.99898e-06
4.99785e-06
4.99687e-06
)
;

boundaryField
{
    sides
    {
        type            calculated;
        value           uniform 0;
    }
    inlet
    {
        type            calculated;
        value           nonuniform List<scalar> 
20
(
-5e-06
-5e-06
-5e-06
-5e-06
-5e-06
-5e-06
-5e-06
-5e-06
-5e-06
-5e-06
-5e-06
-5e-06
-5e-06
-5e-06
-5e-06
-5e-06
-5e-06
-5e-06
-5e-06
-5e-06
)
;
    }
    outlet
    {
        type            calculated;
        value           nonuniform List<scalar> 
20
(
5.0019e-06
5.00141e-06
5.00152e-06
5.00143e-06
5.00172e-06
5.002e-06
5.00278e-06
5.00421e-06
5.00343e-06
4.99513e-06
4.99475e-06
5.00265e-06
5.00275e-06
5.00064e-06
4.99936e-06
4.99837e-06
4.9975e-06
4.99679e-06
4.99621e-06
4.99544e-06
)
;
    }
    frontAndBack
    {
        type            empty;
        value           nonuniform List<scalar> 0();
    }
}


// ************************************************************************* //
