/*--------------------------------*- C++ -*----------------------------------*\
  =========                 |
  \\      /  F ield         | OpenFOAM: The Open Source CFD Toolbox
   \\    /   O peration     | Website:  https://openfoam.org
    \\  /    A nd           | Version:  9
     \\/     M anipulation  |
\*---------------------------------------------------------------------------*/
FoamFile
{
    format      ascii;
    class       surfaceScalarField;
    location    "98";
    object      phi_0;
}
// * * * * * * * * * * * * * * * * * * * * * * * * * * * * * * * * * * * * * //

dimensions      [0 4 -1 0 0 0 0];

internalField   nonuniform List<scalar> 
760
(
5.00009e-06
-9.19008e-11
5.0004e-06
-3.05312e-10
5.00091e-06
-5.12358e-10
5.00162e-06
-7.07235e-10
5.00249e-06
-8.77901e-10
5.00349e-06
-1.00625e-09
5.00455e-06
-1.05915e-09
5.00557e-06
-1.00865e-09
5.0064e-06
-8.25636e-10
5.00692e-06
-5.16401e-10
5.00705e-06
-1.19825e-10
5.00665e-06
4.02129e-10
5.00579e-06
8.57625e-10
5.00469e-06
1.10581e-09
5.00352e-06
1.17499e-09
5.00256e-06
9.56432e-10
5.00185e-06
7.19912e-10
5.00161e-06
2.49839e-10
5.00151e-06
1.10738e-10
-3.90526e-10
5.00012e-06
-2.11544e-10
5.00045e-06
-6.32045e-10
5.00098e-06
-1.0458e-09
5.00172e-06
-1.44684e-09
5.00265e-06
-1.81088e-09
5.00374e-06
-2.09638e-09
5.00493e-06
-2.24306e-09
5.00611e-06
-2.1833e-09
5.00713e-06
-1.8457e-09
5.00777e-06
-1.16253e-09
5.00774e-06
-8.82863e-11
5.00725e-06
8.86618e-10
5.00626e-06
1.8449e-09
5.00495e-06
2.41429e-09
5.00368e-06
2.44534e-09
5.00277e-06
1.86053e-09
5.00224e-06
1.24909e-09
5.00191e-06
5.84858e-10
5.00165e-06
3.71876e-10
-1.46037e-10
5.00011e-06
-3.19868e-10
5.00043e-06
-9.51841e-10
5.00096e-06
-1.57817e-09
5.00172e-06
-2.2087e-09
5.00272e-06
-2.80816e-09
5.00395e-06
-3.31474e-09
5.00532e-06
-3.61787e-09
5.00672e-06
-3.59009e-09
5.00793e-06
-3.05624e-09
5.00872e-06
-1.96357e-09
5.00893e-06
-3.05505e-10
5.00825e-06
1.56244e-09
5.00687e-06
3.22111e-09
5.00515e-06
4.12973e-09
5.00351e-06
4.08797e-09
5.00231e-06
3.05367e-09
5.00166e-06
1.88955e-09
5.00147e-06
7.7088e-10
5.00144e-06
3.98306e-10
-2.21504e-10
5.0001e-06
-4.20732e-10
5.00041e-06
-1.26246e-09
5.00094e-06
-2.11435e-09
5.00175e-06
-3.00949e-09
5.00286e-06
-3.91087e-09
5.00429e-06
-4.74411e-09
5.00601e-06
-5.35112e-09
5.00795e-06
-5.53283e-09
5.00984e-06
-4.95189e-09
5.01108e-06
-3.19789e-09
5.01119e-06
-4.41341e-10
5.01e-06
2.7729e-09
5.00765e-06
5.56351e-09
5.00514e-06
6.63529e-09
5.00348e-06
5.76225e-09
5.0027e-06
3.82708e-09
5.00248e-06
2.10802e-09
5.00231e-06
9.34843e-10
5.00199e-06
7.08074e-10
3.38771e-10
5.00008e-06
-5.03462e-10
5.00034e-06
-1.52256e-09
5.00083e-06
-2.6073e-09
5.00163e-06
-3.80942e-09
5.00286e-06
-5.13032e-09
5.00458e-06
-6.46438e-09
5.00679e-06
-7.58133e-09
5.00942e-06
-8.15013e-09
5.01238e-06
-7.92578e-09
5.01478e-06
-5.5875e-09
5.01483e-06
-4.72196e-10
5.01284e-06
4.74428e-09
5.00867e-06
9.7496e-09
5.00459e-06
1.07135e-08
5.00224e-06
8.11904e-09
5.00175e-06
4.32595e-09
5.00205e-06
1.80528e-09
5.00225e-06
7.22301e-10
5.00201e-06
9.49383e-10
6.26457e-10
5.00004e-06
-5.45822e-10
5.0002e-06
-1.67861e-09
5.00054e-06
-2.94645e-09
5.00121e-06
-4.48069e-09
5.00241e-06
-6.33225e-09
5.00452e-06
-8.58157e-09
5.0076e-06
-1.06563e-08
5.01167e-06
-1.2223e-08
5.01553e-06
-1.17692e-08
5.019e-06
-9.09108e-09
5.02021e-06
-1.65245e-09
5.01602e-06
8.93234e-09
5.0095e-06
1.62519e-08
5.00421e-06
1.60114e-08
5.00217e-06
1.01634e-08
5.00249e-06
4.00326e-09
5.00327e-06
1.0328e-09
5.00339e-06
5.98658e-10
5.0028e-06
1.54711e-09
1.42284e-09
4.99998e-06
-5.26576e-10
4.99994e-06
-1.636e-09
5.00003e-06
-3.03788e-09
5.00036e-06
-4.81178e-09
5.00122e-06
-7.1954e-09
5.00292e-06
-1.0281e-08
5.0068e-06
-1.45352e-08
5.01393e-06
-1.93331e-08
5.02374e-06
-2.16118e-08
5.03095e-06
-1.6242e-08
5.0287e-06
4.8334e-10
5.01674e-06
2.09614e-08
5.00419e-06
2.88114e-08
4.99873e-06
2.14554e-08
5.00057e-06
8.31679e-09
5.00284e-06
1.73057e-09
5.00371e-06
1.64786e-10
5.00366e-06
6.54768e-10
5.00304e-06
2.16565e-09
1.68262e-09
4.99987e-06
-3.92325e-10
4.99955e-06
-1.32149e-09
4.99912e-06
-2.61154e-09
4.99885e-06
-4.54323e-09
4.99933e-06
-7.67027e-09
5.00036e-06
-1.13072e-08
5.00365e-06
-1.78209e-08
5.00982e-06
-2.55148e-08
5.02486e-06
-3.66528e-08
5.05613e-06
-4.74517e-08
5.05002e-06
7.08848e-09
5.02317e-06
4.77779e-08
4.99818e-06
5.38293e-08
4.9935e-06
2.61455e-08
4.99947e-06
2.34565e-09
5.00407e-06
-2.87895e-09
5.0049e-06
-6.7006e-10
5.00372e-06
1.8366e-09
5.0035e-06
2.38278e-09
9.71158e-10
4.99977e-06
-1.59387e-10
4.99916e-06
-7.0594e-10
4.99792e-06
-1.38022e-09
4.99611e-06
-2.73317e-09
4.99402e-06
-5.57715e-09
4.99374e-06
-1.10278e-08
4.99945e-06
-2.35339e-08
5.01714e-06
-4.31954e-08
5.05572e-06
-7.52433e-08
5.06681e-06
-5.85995e-08
5.04974e-06
2.36628e-08
4.99651e-06
1.01051e-07
4.9893e-06
6.10053e-08
4.9959e-06
1.95358e-08
5.00019e-06
-1.93673e-09
5.00293e-06
-5.61781e-09
5.00252e-06
-2.79893e-10
5.00183e-06
2.51335e-09
5.00254e-06
1.67593e-09
7.69025e-11
4.99986e-06
-1.60193e-11
4.99921e-06
-5.19368e-11
4.99791e-06
-8.78196e-11
4.9953e-06
-1.27525e-10
4.9899e-06
-1.66433e-10
4.97909e-06
-2.18092e-10
4.95582e-06
-2.71678e-10
4.91295e-06
-3.37796e-10
4.83815e-06
-4.06098e-10
4.77996e-06
-4.75527e-10
4.80432e-06
-5.64574e-10
4.90602e-06
-7.37988e-10
4.96778e-06
-7.48164e-10
4.98822e-06
-8.98473e-10
4.98745e-06
-1.16134e-09
4.98326e-06
-1.42775e-09
4.98456e-06
-1.5604e-09
4.9889e-06
-1.83194e-09
4.99247e-06
-1.89906e-09
-2.58596e-09
4.99986e-06
1.27555e-10
4.99921e-06
6.02196e-10
4.99791e-06
1.21067e-09
4.9953e-06
2.48287e-09
4.98988e-06
5.25289e-09
4.97906e-06
1.06018e-08
4.95577e-06
2.30086e-08
4.9129e-06
4.25403e-08
4.83803e-06
7.445e-08
4.77977e-06
5.78574e-08
4.80423e-06
-2.51313e-08
4.90598e-06
-1.02459e-07
4.96777e-06
-6.25123e-08
4.98807e-06
-2.11987e-08
4.98736e-06
-4.52412e-10
4.98293e-06
2.99618e-09
4.98442e-06
-3.05493e-09
4.98888e-06
-6.28915e-09
4.99235e-06
-5.36073e-09
-4.98498e-09
4.99977e-06
3.60392e-10
4.99915e-06
1.22401e-09
4.99792e-06
2.44338e-09
4.9961e-06
4.29657e-09
4.99402e-06
7.33325e-09
4.99373e-06
1.08867e-08
4.99943e-06
1.73139e-08
5.01707e-06
2.48957e-08
5.05562e-06
3.59179e-08
5.06709e-06
4.63688e-08
5.04945e-06
-7.62813e-09
4.99609e-06
-4.91277e-08
4.98884e-06
-5.52613e-08
4.99569e-06
-2.80437e-08
5.0001e-06
-4.86555e-09
5.00231e-06
7.88664e-10
5.00165e-06
-2.39277e-09
5.0009e-06
-5.5344e-09
5.00169e-06
-6.13741e-09
-5.95157e-09
4.99986e-06
4.95986e-10
4.99955e-06
1.54276e-09
4.99911e-06
2.87933e-09
4.99883e-06
4.5782e-09
4.99927e-06
6.88653e-09
5.00026e-06
9.89124e-09
5.00348e-06
1.41062e-08
5.0096e-06
1.87696e-08
5.0246e-06
2.09204e-08
5.05556e-06
1.5424e-08
5.04976e-06
-1.71003e-09
5.02284e-06
-2.21501e-08
4.99787e-06
-3.03092e-08
4.99316e-06
-2.33347e-08
4.99863e-06
-1.03469e-08
5.00344e-06
-4.02173e-09
5.00373e-06
-2.67034e-09
5.00236e-06
-4.1589e-09
5.00216e-06
-5.94326e-09
-6.53535e-09
4.99998e-06
5.17739e-10
4.99993e-06
1.59182e-09
5.00001e-06
2.80169e-09
5.00031e-06
4.27432e-09
5.00113e-06
6.0628e-09
5.00279e-06
8.23045e-09
5.00668e-06
1.02183e-08
5.01378e-06
1.16691e-08
5.02357e-06
1.11292e-08
5.03068e-06
8.27637e-09
5.02841e-06
6.55664e-10
5.01625e-06
-1.00288e-08
5.0035e-06
-1.7552e-08
4.99777e-06
-1.7609e-08
4.99941e-06
-1.19874e-08
5.00161e-06
-6.21827e-09
5.0024e-06
-3.46484e-09
5.00213e-06
-3.88865e-09
5.00119e-06
-5.008e-09
-5.97753e-09
5.00003e-06
4.78088e-10
5.00018e-06
1.44621e-09
5.0005e-06
2.48002e-09
5.00115e-06
3.62784e-09
5.00232e-06
4.89408e-09
5.00439e-06
6.15997e-09
5.00742e-06
7.1972e-09
5.0114e-06
7.68916e-09
5.01513e-06
7.38692e-09
5.01853e-06
4.88278e-09
5.01956e-06
-3.84675e-10
5.01523e-06
-5.69612e-09
5.00854e-06
-1.08689e-08
5.00311e-06
-1.21793e-08
5.00087e-06
-9.75435e-09
5.00101e-06
-6.35121e-09
5.00155e-06
-4.01281e-09
5.00131e-06
-3.65397e-09
5.00035e-06
-4.04736e-09
-4.97807e-09
5.00007e-06
3.9756e-10
5.00032e-06
1.19988e-09
5.00079e-06
2.01054e-09
5.00157e-06
2.85636e-09
5.00275e-06
3.71185e-09
5.00441e-06
4.50113e-09
5.00656e-06
5.05278e-09
5.00909e-06
5.15067e-09
5.01203e-06
4.45003e-09
5.0144e-06
2.5051e-09
5.01414e-06
-1.42805e-10
5.01208e-06
-3.64085e-09
5.00775e-06
-6.5404e-09
5.00349e-06
-7.91463e-09
5.00092e-06
-7.19519e-09
5.00013e-06
-5.55656e-09
5.00011e-06
-3.98902e-09
4.99988e-06
-3.42503e-09
4.99917e-06
-3.34369e-09
-4.17351e-09
5.0001e-06
2.97108e-10
5.00039e-06
9.02066e-10
5.00091e-06
1.50184e-09
5.00168e-06
2.09191e-09
5.00274e-06
2.64878e-09
5.00412e-06
3.11328e-09
5.00579e-06
3.38374e-09
5.00763e-06
3.3107e-09
5.00933e-06
2.75151e-09
5.01027e-06
1.56896e-09
5.01043e-06
-3.04802e-10
5.00903e-06
-2.23803e-09
5.0065e-06
-4.01196e-09
5.00367e-06
-5.08423e-09
5.00154e-06
-5.06289e-09
5.00034e-06
-4.35568e-09
4.99971e-06
-3.34512e-09
4.99917e-06
-2.88849e-09
4.99845e-06
-2.62681e-09
-3.21668e-09
5.0001e-06
1.94282e-10
5.00041e-06
5.9333e-10
5.00093e-06
9.87552e-10
5.00166e-06
1.36055e-09
5.00262e-06
1.69354e-09
5.00378e-06
1.94683e-09
5.00509e-06
2.06324e-09
5.00645e-06
1.95365e-09
5.00765e-06
1.55455e-09
5.00839e-06
8.28633e-10
5.00821e-06
-1.29603e-10
5.00733e-06
-1.35704e-09
5.0057e-06
-2.37413e-09
5.00368e-06
-3.06211e-09
5.00179e-06
-3.16578e-09
5.00034e-06
-2.89323e-09
4.99932e-06
-2.32187e-09
4.99852e-06
-2.09344e-09
4.99773e-06
-1.83361e-09
-2.27907e-09
5.00009e-06
1.11767e-10
5.00038e-06
3.03572e-10
5.00086e-06
4.95599e-10
5.00155e-06
6.76788e-10
5.00241e-06
8.32953e-10
5.00341e-06
9.44834e-10
5.00448e-06
9.89967e-10
5.0055e-06
9.30491e-10
5.00633e-06
7.33256e-10
5.0068e-06
3.59574e-10
5.00681e-06
-1.41664e-10
5.00607e-06
-6.26171e-10
5.00479e-06
-1.08773e-09
5.00315e-06
-1.42367e-09
5.00148e-06
-1.49551e-09
5.00002e-06
-1.43198e-09
4.99888e-06
-1.18299e-09
4.99792e-06
-1.13411e-09
4.99706e-06
-9.77252e-10
-1.42562e-09
5.00012e-06
5.00042e-06
5.00091e-06
5.00158e-06
5.00242e-06
5.00337e-06
5.00436e-06
5.00529e-06
5.00603e-06
5.00639e-06
5.00625e-06
5.00562e-06
5.00453e-06
5.0031e-06
5.0016e-06
5.00017e-06
4.99898e-06
4.99785e-06
4.99687e-06
)
;

boundaryField
{
    sides
    {
        type            calculated;
        value           uniform 0;
    }
    inlet
    {
        type            calculated;
        value           nonuniform List<scalar> 
20
(
-5e-06
-5e-06
-5e-06
-5e-06
-5e-06
-5e-06
-5e-06
-5e-06
-5e-06
-5e-06
-5e-06
-5e-06
-5e-06
-5e-06
-5e-06
-5e-06
-5e-06
-5e-06
-5e-06
-5e-06
)
;
    }
    outlet
    {
        type            calculated;
        value           nonuniform List<scalar> 
20
(
5.0019e-06
5.00141e-06
5.00152e-06
5.00143e-06
5.00172e-06
5.002e-06
5.00279e-06
5.00422e-06
5.00343e-06
4.99514e-06
4.99475e-06
5.00265e-06
5.00275e-06
5.00064e-06
4.99935e-06
4.99837e-06
4.99749e-06
4.99679e-06
4.99621e-06
4.99544e-06
)
;
    }
    frontAndBack
    {
        type            empty;
        value           nonuniform List<scalar> 0();
    }
}


// ************************************************************************* //
