/*--------------------------------*- C++ -*----------------------------------*\
  =========                 |
  \\      /  F ield         | OpenFOAM: The Open Source CFD Toolbox
   \\    /   O peration     | Website:  https://openfoam.org
    \\  /    A nd           | Version:  9
     \\/     M anipulation  |
\*---------------------------------------------------------------------------*/
FoamFile
{
    format      ascii;
    class       volVectorField;
    location    "98";
    object      U;
}
// * * * * * * * * * * * * * * * * * * * * * * * * * * * * * * * * * * * * * //

dimensions      [0 1 -1 0 0 0 0];

internalField   nonuniform List<vector> 
400
(
(0.0999964 -2.40727e-06 0)
(0.100001 -7.04432e-06 0)
(0.10001 -1.13273e-05 0)
(0.100023 -1.5265e-05 0)
(0.10004 -1.87574e-05 0)
(0.100061 -2.16872e-05 0)
(0.100083 -2.36688e-05 0)
(0.100107 -2.44809e-05 0)
(0.100128 -2.35716e-05 0)
(0.100144 -2.10496e-05 0)
(0.100153 -1.67681e-05 0)
(0.100152 -1.28186e-05 0)
(0.10014 -9.88491e-06 0)
(0.10012 -9.30941e-06 0)
(0.100093 -9.97537e-06 0)
(0.100068 -1.35509e-05 0)
(0.100045 -1.56141e-05 0)
(0.100034 -2.00648e-05 0)
(0.100025 -1.88312e-05 0)
(0.100033 -2.68255e-05 0)
(0.099997 -2.62951e-06 0)
(0.100002 -7.86014e-06 0)
(0.100011 -1.2847e-05 0)
(0.100025 -1.74722e-05 0)
(0.100044 -2.13888e-05 0)
(0.100066 -2.40355e-05 0)
(0.100091 -2.45029e-05 0)
(0.100117 -2.19175e-05 0)
(0.100141 -1.53299e-05 0)
(0.100161 -4.65869e-06 0)
(0.100171 9.47718e-06 0)
(0.100169 2.47899e-05 0)
(0.100154 3.89769e-05 0)
(0.100129 4.76584e-05 0)
(0.1001 5.04727e-05 0)
(0.100071 4.51971e-05 0)
(0.10005 3.79249e-05 0)
(0.100037 2.5835e-05 0)
(0.100033 2.06366e-05 0)
(0.100029 8.14747e-06 0)
(0.0999968 -5.22003e-06 0)
(0.100002 -1.58974e-05 0)
(0.100011 -2.67254e-05 0)
(0.100025 -3.74326e-05 0)
(0.100044 -4.73864e-05 0)
(0.100069 -5.55088e-05 0)
(0.100097 -6.02627e-05 0)
(0.100127 -5.9705e-05 0)
(0.100156 -5.17212e-05 0)
(0.10018 -3.51587e-05 0)
(0.100193 -1.0974e-05 0)
(0.100192 1.62502e-05 0)
(0.100174 4.01522e-05 0)
(0.100142 5.20049e-05 0)
(0.100102 4.99298e-05 0)
(0.100066 3.53753e-05 0)
(0.100038 2.03596e-05 0)
(0.100026 4.69974e-06 0)
(0.100021 -2.36711e-07 0)
(0.100029 -1.16829e-05 0)
(0.0999963 -7.34776e-06 0)
(0.100001 -2.2253e-05 0)
(0.10001 -3.75261e-05 0)
(0.100025 -5.30643e-05 0)
(0.100046 -6.80381e-05 0)
(0.100073 -8.0941e-05 0)
(0.100107 -8.89291e-05 0)
(0.100146 -8.86012e-05 0)
(0.100186 -7.56009e-05 0)
(0.100222 -4.75131e-05 0)
(0.100243 -2.36609e-06 0)
(0.10024 4.92904e-05 0)
(0.100211 9.36819e-05 0)
(0.100159 0.000113989 0)
(0.100104 0.000105522 0)
(0.100061 7.43303e-05 0)
(0.100041 4.23816e-05 0)
(0.100035 1.7002e-05 0)
(0.10004 1.02001e-05 0)
(0.100035 3.97275e-08 0)
(0.0999953 -9.12195e-06 0)
(0.0999994 -2.7832e-05 0)
(0.100008 -4.77123e-05 0)
(0.100023 -6.93667e-05 0)
(0.100045 -9.20235e-05 0)
(0.100076 -0.000113939 0)
(0.100117 -0.000130004 0)
(0.100168 -0.000133804 0)
(0.100225 -0.000117609 0)
(0.100281 -7.79041e-05 0)
(0.100318 -1.70454e-05 0)
(0.100316 5.785e-05 0)
(0.100267 0.00012315 0)
(0.100181 0.000151234 0)
(0.100091 0.000137603 0)
(0.100029 9.65288e-05 0)
(0.10001 5.81394e-05 0)
(0.100019 3.13894e-05 0)
(0.100036 2.61713e-05 0)
(0.100043 1.67733e-05 0)
(0.0999939 -1.0367e-05 0)
(0.0999968 -3.18753e-05 0)
(0.100003 -5.61969e-05 0)
(0.100015 -8.44246e-05 0)
(0.100036 -0.000117275 0)
(0.10007 -0.000152599 0)
(0.100122 -0.000186031 0)
(0.100193 -0.000205494 0)
(0.100277 -0.000191249 0)
(0.100357 -0.000120178 0)
(0.100414 8.57621e-06 0)
(0.100415 0.000154382 0)
(0.100339 0.000243413 0)
(0.100208 0.000230559 0)
(0.100085 0.000143076 0)
(0.100015 4.93019e-05 0)
(0.100012 1.338e-06 0)
(0.100035 -8.57126e-06 0)
(0.100065 5.98581e-06 0)
(0.100055 4.9846e-06 0)
(0.0999923 -1.02823e-05 0)
(0.0999928 -3.33562e-05 0)
(0.0999949 -6.01659e-05 0)
(0.100001 -9.61888e-05 0)
(0.100016 -0.0001393 0)
(0.100046 -0.000194726 0)
(0.100103 -0.000248987 0)
(0.100202 -0.000308473 0)
(0.100349 -0.000323527 0)
(0.10052 -0.000288051 0)
(0.100632 -6.74383e-05 0)
(0.10059 0.000255721 0)
(0.100383 0.000482939 0)
(0.100118 0.000473653 0)
(0.0999479 0.000302809 0)
(0.0999219 0.000126402 0)
(0.0999926 4.31152e-05 0)
(0.100056 3.2669e-05 0)
(0.100095 5.62144e-05 0)
(0.100067 5.34003e-05 0)
(0.0999905 -9.26572e-06 0)
(0.0999874 -2.8875e-05 0)
(0.0999807 -5.76854e-05 0)
(0.0999769 -9.56976e-05 0)
(0.0999774 -0.000157812 0)
(0.100001 -0.000234526 0)
(0.100047 -0.000340243 0)
(0.10016 -0.000412499 0)
(0.100335 -0.000437313 0)
(0.100659 -0.000255071 0)
(0.101006 7.5656e-05 0)
(0.101014 0.000427045 0)
(0.100606 0.00047224 0)
(0.100072 0.000278276 0)
(0.0997821 7.3478e-05 0)
(0.0997969 -2.74891e-05 0)
(0.0999672 -2.85707e-05 0)
(0.100089 -9.73077e-07 0)
(0.100138 2.12074e-05 0)
(0.100087 1.02883e-05 0)
(0.0999895 -4.92741e-06 0)
(0.0999806 -2.03861e-05 0)
(0.0999628 -3.86563e-05 0)
(0.0999377 -7.35096e-05 0)
(0.0999106 -0.000133867 0)
(0.0999019 -0.000248115 0)
(0.0999567 -0.000468681 0)
(0.100145 -0.000806888 0)
(0.100537 -0.00132909 0)
(0.101062 -0.0014928 0)
(0.101323 0.000384912 0)
(0.100996 0.00187483 0)
(0.100241 0.00157856 0)
(0.09972 0.000574005 0)
(0.0996445 -3.16333e-05 0)
(0.099822 -0.00012638 0)
(0.100024 -9.52435e-06 0)
(0.100107 6.34007e-05 0)
(0.100113 6.51408e-05 0)
(0.100055 2.43591e-05 0)
(0.0999703 -1.98137e-06 0)
(0.100006 -6.67636e-06 0)
(0.0999077 -1.51514e-05 0)
(0.0999717 -2.48575e-05 0)
(0.0997258 -5.9198e-05 0)
(0.0998441 -0.000113117 0)
(0.0992765 -0.000288224 0)
(0.0996751 -0.000558867 0)
(0.0991183 -0.00115377 0)
(0.102003 -0.00141506 0)
(0.10628 3.02711e-05 0)
(0.101267 0.00146765 0)
(0.0990077 0.00130732 0)
(0.0982224 0.000513163 0)
(0.0988553 1.93953e-05 0)
(0.0996051 -7.81431e-05 0)
(0.0999351 -1.12404e-05 0)
(0.0999522 2.47425e-05 0)
(0.0998669 1.73406e-05 0)
(0.0998489 -1.85254e-05 0)
(0.099971 1.31786e-06 0)
(0.100006 4.593e-06 0)
(0.0999084 1.17375e-05 0)
(0.0999722 2.0016e-05 0)
(0.0997262 5.29513e-05 0)
(0.0998441 0.000105068 0)
(0.0992763 0.000278421 0)
(0.0996744 0.000546883 0)
(0.0991171 0.0011391 0)
(0.102001 0.00139761 0)
(0.106277 -5.25453e-05 0)
(0.101265 -0.00149418 0)
(0.0990077 -0.00133968 0)
(0.0982222 -0.00055256 0)
(0.0988538 -6.47257e-05 0)
(0.0996015 2.48466e-05 0)
(0.099931 -4.72443e-05 0)
(0.0999478 -0.000100302 0)
(0.0998658 -9.89358e-05 0)
(0.0998442 -8.8898e-05 0)
(0.0999915 4.29684e-06 0)
(0.0999826 1.84103e-05 0)
(0.0999648 3.5341e-05 0)
(0.0999397 6.87311e-05 0)
(0.0999124 0.000127642 0)
(0.0999038 0.000240086 0)
(0.0999582 0.000458807 0)
(0.100146 0.000794327 0)
(0.100537 0.00131383 0)
(0.101064 0.00147321 0)
(0.101325 -0.000407254 0)
(0.100995 -0.00190287 0)
(0.100235 -0.00161 0)
(0.099712 -0.000612059 0)
(0.0996386 -8.39319e-06 0)
(0.0998173 7.75334e-05 0)
(0.100014 -4.2724e-05 0)
(0.100092 -0.000130526 0)
(0.100093 -0.000137958 0)
(0.100038 -0.000125089 0)
(0.0999938 8.67264e-06 0)
(0.0999906 2.70352e-05 0)
(0.0999838 5.44837e-05 0)
(0.0999799 9.10046e-05 0)
(0.0999799 0.00015133 0)
(0.100003 0.000226124 0)
(0.100048 0.000329371 0)
(0.100159 0.000399201 0)
(0.100332 0.00042133 0)
(0.100654 0.000236517 0)
(0.101 -9.83679e-05 0)
(0.101007 -0.000454701 0)
(0.100601 -0.000502367 0)
(0.100067 -0.00031298 0)
(0.0997751 -0.000113101 0)
(0.0997846 -2.51416e-05 0)
(0.0999509 -3.22388e-05 0)
(0.100066 -7.41052e-05 0)
(0.100111 -9.66948e-05 0)
(0.100057 -0.000107382 0)
(0.0999971 9.70987e-06 0)
(0.0999974 3.15831e-05 0)
(0.0999992 5.71487e-05 0)
(0.100005 9.17348e-05 0)
(0.100019 0.000133331 0)
(0.100049 0.000187077 0)
(0.100105 0.000239936 0)
(0.100203 0.000297624 0)
(0.100351 0.000311345 0)
(0.100519 0.000273545 0)
(0.100631 5.09092e-05 0)
(0.100586 -0.000275256 0)
(0.100375 -0.000507835 0)
(0.100105 -0.000507076 0)
(0.0999304 -0.000344923 0)
(0.0998989 -0.000179401 0)
(0.0999681 -0.000102052 0)
(0.100026 -0.00010585 0)
(0.100065 -0.00013067 0)
(0.100025 -0.00015154 0)
(0.1 9.81752e-06 0)
(0.100003 3.02572e-05 0)
(0.100009 5.35146e-05 0)
(0.10002 8.05558e-05 0)
(0.10004 0.000112155 0)
(0.100074 0.000145934 0)
(0.100124 0.000177869 0)
(0.100194 0.00019518 0)
(0.100276 0.00017837 0)
(0.100353 0.00010362 0)
(0.100407 -2.76764e-05 0)
(0.100405 -0.000178023 0)
(0.100326 -0.000271009 0)
(0.10019 -0.000263177 0)
(0.100064 -0.000177924 0)
(0.099989 -8.95616e-05 0)
(0.0999835 -4.27173e-05 0)
(0.0999982 -4.47715e-05 0)
(0.100024 -6.1627e-05 0)
(0.100002 -8.48551e-05 0)
(0.100003 8.61258e-06 0)
(0.100007 2.64051e-05 0)
(0.100015 4.53793e-05 0)
(0.100029 6.61267e-05 0)
(0.10005 8.77956e-05 0)
(0.10008 0.000108474 0)
(0.10012 0.000123005 0)
(0.10017 0.000125308 0)
(0.100225 0.000107362 0)
(0.100279 6.57198e-05 0)
(0.100315 1.8685e-06 0)
(0.100309 -7.69852e-05 0)
(0.100256 -0.000144986 0)
(0.100166 -0.000177462 0)
(0.100072 -0.000166846 0)
(0.100003 -0.000134873 0)
(0.0999793 -0.000102992 0)
(0.0999767 -9.37295e-05 0)
(0.0999894 -9.45535e-05 0)
(0.0999775 -0.000110853 0)
(0.100005 6.91459e-06 0)
(0.10001 2.09745e-05 0)
(0.100019 3.53941e-05 0)
(0.100033 5.01059e-05 0)
(0.100053 6.4397e-05 0)
(0.100079 7.65976e-05 0)
(0.100111 8.37551e-05 0)
(0.100148 8.25505e-05 0)
(0.100186 6.90898e-05 0)
(0.100218 4.05864e-05 0)
(0.100235 -4.729e-06 0)
(0.100228 -5.76218e-05 0)
(0.100195 -0.000103589 0)
(0.100139 -0.000128166 0)
(0.100077 -0.000123001 0)
(0.100023 -9.95e-05 0)
(0.0999951 -7.02673e-05 0)
(0.0999764 -5.57198e-05 0)
(0.0999769 -4.87359e-05 0)
(0.0999569 -5.98278e-05 0)
(0.100007 5.01654e-06 0)
(0.100012 1.50087e-05 0)
(0.100021 2.47142e-05 0)
(0.100035 3.38603e-05 0)
(0.100053 4.20884e-05 0)
(0.100076 4.82751e-05 0)
(0.100103 5.08294e-05 0)
(0.100131 4.72906e-05 0)
(0.100159 3.61085e-05 0)
(0.100182 1.55582e-05 0)
(0.100193 -1.1689e-05 0)
(0.100186 -4.2125e-05 0)
(0.100162 -6.81606e-05 0)
(0.100122 -8.42372e-05 0)
(0.100078 -8.50321e-05 0)
(0.100032 -7.70966e-05 0)
(0.100001 -6.38138e-05 0)
(0.0999728 -5.96736e-05 0)
(0.099965 -5.61178e-05 0)
(0.0999396 -6.84465e-05 0)
(0.100009 3.43924e-06 0)
(0.100013 1.05011e-05 0)
(0.100021 1.75123e-05 0)
(0.100034 2.41754e-05 0)
(0.100051 3.01315e-05 0)
(0.100071 3.48582e-05 0)
(0.100094 3.74566e-05 0)
(0.100117 3.68431e-05 0)
(0.100138 3.1972e-05 0)
(0.100153 2.2413e-05 0)
(0.10016 8.62848e-06 0)
(0.100155 -7.03054e-06 0)
(0.100137 -2.05808e-05 0)
(0.100105 -2.96843e-05 0)
(0.100068 -3.11786e-05 0)
(0.100027 -2.81273e-05 0)
(0.0999972 -2.02363e-05 0)
(0.0999659 -1.68592e-05 0)
(0.0999542 -1.18299e-05 0)
(0.0999257 -1.98093e-05 0)
(0.10001 -4.14696e-07 0)
(0.100015 -9.78366e-07 0)
(0.100023 -1.26629e-06 0)
(0.100036 -1.47338e-06 0)
(0.100053 -1.75319e-06 0)
(0.100072 -2.35351e-06 0)
(0.100094 -3.42669e-06 0)
(0.100115 -5.37238e-06 0)
(0.100134 -8.19267e-06 0)
(0.100147 -1.22257e-05 0)
(0.100152 -1.70026e-05 0)
(0.100145 -2.31348e-05 0)
(0.100129 -2.90364e-05 0)
(0.1001 -3.40972e-05 0)
(0.100069 -3.59287e-05 0)
(0.10003 -3.67616e-05 0)
(0.100003 -3.42189e-05 0)
(0.099967 -3.52845e-05 0)
(0.0999558 -3.2787e-05 0)
(0.0999144 -4.10517e-05 0)
)
;

boundaryField
{
    sides
    {
        type            calculated;
        value           nonuniform List<vector> 
40
(
(0.10001 0 0)
(0.100015 0 0)
(0.100023 0 0)
(0.100036 0 0)
(0.100053 0 0)
(0.100072 0 0)
(0.100094 0 0)
(0.100115 0 0)
(0.100134 0 0)
(0.100147 0 0)
(0.100152 0 0)
(0.100145 0 0)
(0.100129 0 0)
(0.1001 0 0)
(0.100069 0 0)
(0.10003 0 0)
(0.100003 0 0)
(0.099967 0 0)
(0.0999558 0 0)
(0.0999144 0 0)
(0.0999964 0 0)
(0.100001 0 0)
(0.10001 0 0)
(0.100023 0 0)
(0.10004 0 0)
(0.100061 0 0)
(0.100083 0 0)
(0.100107 0 0)
(0.100128 0 0)
(0.100144 0 0)
(0.100153 0 0)
(0.100152 0 0)
(0.10014 0 0)
(0.10012 0 0)
(0.100093 0 0)
(0.100068 0 0)
(0.100045 0 0)
(0.100034 0 0)
(0.100025 0 0)
(0.100033 0 0)
)
;
    }
    inlet
    {
        type            calculated;
        value           nonuniform List<vector> 
20
(
(0.0999962 0 0)
(0.0999968 0 0)
(0.0999967 0 0)
(0.0999961 0 0)
(0.0999951 0 0)
(0.0999938 0 0)
(0.0999923 0 0)
(0.0999909 0 0)
(0.0999899 0 0)
(0.0999899 0 0)
(0.0999906 0 0)
(0.099992 0 0)
(0.0999943 0 0)
(0.099997 0 0)
(0.0999999 0 0)
(0.100003 0 0)
(0.100005 0 0)
(0.100007 0 0)
(0.100009 0 0)
(0.10001 0 0)
)
;
    }
    outlet
    {
        type            calculated;
        value           nonuniform List<vector> 
20
(
(0.100033 -2.68256e-05 0)
(0.100029 8.14746e-06 0)
(0.10003 -1.16829e-05 0)
(0.100034 3.97274e-08 0)
(0.100043 1.67733e-05 0)
(0.100055 4.98456e-06 0)
(0.100066 5.33996e-05 0)
(0.100085 1.02881e-05 0)
(0.100054 2.43588e-05 0)
(0.0998504 -1.85257e-05 0)
(0.0998455 -8.88992e-05 0)
(0.100037 -0.000125088 0)
(0.100055 -0.00010738 0)
(0.100024 -0.000151538 0)
(0.100001 -8.48541e-05 0)
(0.0999768 -0.000110852 0)
(0.0999562 -5.98274e-05 0)
(0.0999388 -6.84459e-05 0)
(0.0999249 -1.98091e-05 0)
(0.099913 -4.10511e-05 0)
)
;
    }
    frontAndBack
    {
        type            empty;
    }
}


// ************************************************************************* //
