/*--------------------------------*- C++ -*----------------------------------*\
  =========                 |
  \\      /  F ield         | OpenFOAM: The Open Source CFD Toolbox
   \\    /   O peration     | Website:  https://openfoam.org
    \\  /    A nd           | Version:  9
     \\/     M anipulation  |
\*---------------------------------------------------------------------------*/
FoamFile
{
    format      ascii;
    class       volScalarField;
    location    "80";
    object      ddt0(h);
}
// * * * * * * * * * * * * * * * * * * * * * * * * * * * * * * * * * * * * * //

dimensions      [0 1 -1 0 0 0 0];

internalField   nonuniform List<scalar> 
400
(
-4.85429e-09
-1.11814e-08
5.83197e-09
2.92058e-08
2.26463e-08
-4.23128e-09
-2.90878e-08
-2.62551e-08
-2.00133e-08
-1.04338e-09
-5.59483e-09
1.40632e-08
1.38691e-08
1.78652e-08
3.21648e-08
2.1417e-08
-5.38274e-09
-1.96828e-08
-2.78348e-08
-1.67824e-08
-5.30373e-09
-1.86792e-09
1.23586e-08
1.49486e-08
-6.92006e-09
-1.38405e-08
-9.24671e-09
7.31844e-09
1.02347e-09
9.82148e-09
2.15957e-08
-3.4149e-09
2.30462e-08
3.54815e-09
4.77689e-09
7.66918e-09
6.9115e-09
8.29519e-09
2.45834e-09
-2.49974e-10
3.0446e-09
1.32182e-08
1.20396e-08
-2.0194e-08
-3.17563e-08
-5.62423e-09
4.3386e-08
1.24932e-08
3.55376e-08
-1.78189e-08
2.13488e-08
-1.26061e-08
-1.03119e-08
2.45922e-10
-3.70887e-08
-3.38153e-08
3.53707e-09
3.33219e-08
3.82861e-08
1.57898e-08
1.7505e-08
1.7326e-08
-6.4433e-09
-4.26364e-08
-2.44543e-08
3.57201e-08
3.40126e-08
6.57244e-09
1.46758e-08
1.08115e-08
-7.32024e-08
3.37889e-08
-3.8483e-08
-1.19581e-08
-1.59215e-08
-4.31498e-08
-1.8427e-08
1.71007e-08
3.06959e-08
1.65108e-08
2.45118e-08
7.09374e-09
-2.29416e-08
-3.63946e-08
1.40019e-08
4.09463e-08
-2.18698e-08
3.73075e-08
-3.09991e-08
2.14033e-08
2.68152e-08
-8.13378e-08
3.59516e-08
-1.75e-08
-1.98799e-08
-1.33526e-08
-1.45595e-08
-6.72352e-09
2.9782e-09
3.71248e-09
1.33583e-08
-2.70546e-09
-2.10384e-08
-8.4673e-09
3.35685e-08
-1.88807e-09
-3.8451e-09
-3.17954e-08
7.80896e-08
-1.63101e-07
1.25629e-07
-4.10233e-08
-8.51766e-08
3.56843e-08
1.90091e-08
2.85479e-09
-5.24742e-09
-2.05022e-08
-2.28721e-08
-8.84797e-09
-2.9789e-09
-6.579e-09
-3.98972e-09
9.18176e-09
1.62212e-08
-3.13031e-09
-4.52958e-08
4.96598e-08
-1.2407e-07
1.70232e-07
-1.91844e-07
2.95764e-07
-1.60795e-08
-5.15371e-08
2.37481e-08
2.62711e-08
4.45047e-09
-1.62437e-08
-1.82245e-08
-6.19696e-09
-1.38809e-08
-5.0436e-10
9.44183e-09
6.7115e-09
4.85618e-09
-2.34923e-08
-7.35653e-09
-3.1617e-08
-1.99986e-08
3.86818e-07
-4.78189e-06
-3.90961e-08
1.32565e-07
2.89257e-08
1.32928e-08
2.84578e-08
1.33088e-08
-5.88816e-09
-1.24877e-09
3.14855e-09
-1.68734e-08
4.87763e-09
1.85469e-08
-1.20378e-09
-1.17416e-08
-5.66801e-09
-2.60737e-08
3.69232e-08
3.22372e-08
-3.36376e-07
4.74682e-06
5.43624e-08
-1.32021e-07
-3.27049e-10
2.03742e-08
1.70055e-08
-3.74068e-08
9.0364e-09
1.31771e-08
-1.2416e-09
-1.72963e-08
5.3307e-09
1.78584e-08
-2.83253e-10
-2.60962e-08
-5.60883e-09
3.18937e-08
-2.84936e-08
1.1018e-07
-2.01023e-07
2.5486e-07
-3.80045e-07
4.35035e-09
1.10433e-08
-2.09491e-08
-6.03073e-09
5.80726e-08
1.46443e-08
1.30813e-08
1.66052e-08
-1.53062e-08
-3.52141e-09
1.45806e-08
5.96836e-09
-2.56864e-08
-9.72873e-09
3.70933e-08
2.79813e-08
-1.15151e-07
7.91793e-08
-4.62828e-07
1.87446e-07
-3.84615e-09
-7.2084e-08
-5.05078e-08
-1.29442e-08
1.41316e-08
1.75866e-08
6.12241e-09
-8.56229e-10
-9.40285e-09
-1.23468e-08
2.38418e-09
1.97069e-08
-1.18927e-08
-1.68394e-08
1.70915e-08
1.50411e-08
-9.80048e-08
3.11997e-08
2.80271e-06
-6.08188e-08
1.17768e-08
-4.29311e-08
-2.43533e-08
1.12337e-08
2.30127e-08
5.43291e-09
-1.52214e-08
-1.23244e-08
-2.32176e-09
-1.5247e-08
-9.28458e-09
1.94642e-08
1.98317e-08
-2.68111e-08
-1.17495e-08
-2.61043e-08
1.2754e-07
-1.45573e-07
-2.58481e-06
6.18766e-08
-5.39546e-08
5.07739e-08
3.73238e-08
2.73237e-08
7.03568e-09
-2.05612e-08
-3.90503e-08
-2.23003e-08
4.20429e-09
-1.17519e-08
-1.49445e-08
1.15313e-08
2.40525e-08
2.41957e-09
-5.45378e-08
-3.23662e-09
2.8611e-08
1.10557e-07
6.53788e-08
-1.43447e-07
9.97402e-08
4.55552e-08
4.7352e-08
2.3801e-08
-8.0701e-09
-2.86814e-08
-3.55328e-08
-1.84077e-08
1.06266e-08
-5.24765e-09
-1.55313e-08
-9.11323e-10
1.27423e-08
1.39797e-08
-1.89978e-08
-3.33158e-08
1.07579e-08
6.17649e-08
4.50524e-09
9.83387e-08
2.21206e-08
3.23282e-08
1.72637e-08
-1.2174e-08
-2.04466e-08
-1.47738e-08
-1.32702e-08
-7.30373e-09
2.0343e-08
-3.25656e-09
-1.94898e-08
-1.03094e-08
-1.9366e-09
1.4904e-08
1.569e-08
-1.32134e-08
-5.37552e-09
-1.43016e-08
-1.95418e-08
3.10495e-09
4.31467e-10
-5.21356e-09
-2.99745e-08
-3.43021e-08
-1.21219e-08
3.53082e-09
1.39852e-09
-1.08123e-09
2.65256e-08
-2.78776e-09
-2.7541e-08
-1.75825e-08
-1.35715e-10
8.86273e-09
3.49666e-08
1.18607e-08
-1.8367e-09
-1.42984e-08
-5.14828e-09
-2.04984e-08
-2.00598e-08
-2.66378e-08
-4.47221e-08
-3.28144e-08
-1.57213e-10
1.04664e-08
7.06523e-10
-2.55726e-09
1.74548e-08
6.24247e-10
-1.97712e-08
-1.82529e-08
8.67139e-09
1.0829e-08
2.08685e-08
1.33724e-08
9.31623e-10
-3.58456e-10
2.41709e-10
-8.3714e-09
-1.22343e-08
-1.86483e-08
-2.33181e-08
-1.19405e-08
1.34887e-09
3.41048e-09
9.65746e-10
3.37541e-10
-1.32066e-08
8.00798e-09
1.19286e-08
1.51279e-09
1.59081e-09
6.0429e-09
-2.50047e-09
-6.97236e-09
-1.00413e-08
6.46301e-09
1.70627e-08
1.17207e-08
1.93422e-09
-1.17694e-09
9.74247e-09
6.19582e-09
-7.5199e-09
1.75736e-09
2.13723e-08
1.40262e-08
-4.28269e-08
1.01718e-08
4.29404e-08
2.67516e-08
-4.9845e-09
-8.99797e-09
-2.13719e-08
-2.92034e-08
-2.4282e-08
3.1637e-10
1.66963e-08
1.86646e-08
7.45658e-09
9.97196e-09
2.97307e-08
1.73487e-08
-1.16811e-08
1.34125e-09
3.5751e-08
2.48712e-08
)
;

boundaryField
{
    sides
    {
        type            calculated;
        value           nonuniform List<scalar> 
40
(
-4.28269e-08
1.01718e-08
4.29404e-08
2.67516e-08
-4.9845e-09
-8.99797e-09
-2.13719e-08
-2.92034e-08
-2.4282e-08
3.1637e-10
1.66963e-08
1.86646e-08
7.45658e-09
9.97196e-09
2.97307e-08
1.73487e-08
-1.16811e-08
1.34125e-09
3.5751e-08
2.48712e-08
-4.85429e-09
-1.11814e-08
5.83197e-09
2.92058e-08
2.26463e-08
-4.23128e-09
-2.90878e-08
-2.62551e-08
-2.00133e-08
-1.04338e-09
-5.59483e-09
1.40632e-08
1.38691e-08
1.78652e-08
3.21648e-08
2.1417e-08
-5.38274e-09
-1.96828e-08
-2.78348e-08
-1.67824e-08
)
;
    }
    inlet
    {
        type            calculated;
        value           nonuniform List<scalar> 
20
(
-4.85429e-09
-5.30373e-09
3.0446e-09
1.7505e-08
2.45118e-08
1.33583e-08
-2.9789e-09
-1.38809e-08
-1.68734e-08
-1.72963e-08
-1.53062e-08
-9.40285e-09
-2.32176e-09
4.20429e-09
1.06266e-08
2.0343e-08
2.65256e-08
1.74548e-08
-1.32066e-08
-4.28269e-08
)
;
    }
    outlet
    {
        type            calculated;
        value           uniform 0;
    }
    frontAndBack
    {
        type            empty;
    }
}


// ************************************************************************* //
