/*--------------------------------*- C++ -*----------------------------------*\
  =========                 |
  \\      /  F ield         | OpenFOAM: The Open Source CFD Toolbox
   \\    /   O peration     | Website:  https://openfoam.org
    \\  /    A nd           | Version:  9
     \\/     M anipulation  |
\*---------------------------------------------------------------------------*/
FoamFile
{
    format      ascii;
    class       volVectorField;
    location    "80";
    object      ddtCorrDdt0(hU);
}
// * * * * * * * * * * * * * * * * * * * * * * * * * * * * * * * * * * * * * //

dimensions      [0 2 -2 0 0 0 0];

internalField   nonuniform List<vector> 
400
(
(-5.48873e-10 6.50956e-10 0)
(-1.64378e-09 7.84185e-10 0)
(-2.21217e-09 -1.07888e-09 0)
(-2.14352e-09 -1.50172e-09 0)
(-1.17063e-09 5.25883e-10 0)
(-2.10051e-10 3.09517e-09 0)
(2.1574e-10 2.93213e-09 0)
(6.14006e-10 3.87836e-12 0)
(2.69638e-10 -6.13563e-10 0)
(1.73634e-09 -3.28483e-09 0)
(-6.58543e-10 -3.07729e-09 0)
(1.43498e-09 -2.64388e-09 0)
(2.9689e-09 -4.0957e-09 0)
(1.7093e-09 -4.09005e-09 0)
(2.84048e-09 -5.38342e-09 0)
(3.45536e-09 -5.52479e-09 0)
(2.07238e-09 -4.99506e-09 0)
(-1.2293e-09 -4.67112e-09 0)
(-7.73925e-09 -4.01692e-09 0)
(-1.08202e-08 -1.21636e-09 0)
(-6.1694e-10 6.09918e-10 0)
(-2.58232e-09 7.84469e-10 0)
(-3.55429e-09 -2.68373e-09 0)
(-1.82961e-09 -1.75461e-09 0)
(2.70504e-10 3.3108e-09 0)
(9.91274e-10 7.08178e-09 0)
(-8.94209e-10 3.65492e-09 0)
(6.46077e-10 -1.62868e-09 0)
(-6.03507e-10 -4.0026e-09 0)
(2.41031e-10 -5.9931e-09 0)
(2.43835e-09 -7.71693e-09 0)
(-1.53311e-09 -3.64623e-09 0)
(2.48848e-09 -7.9573e-09 0)
(-6.87651e-10 -7.68248e-09 0)
(-1.20046e-09 -7.94794e-09 0)
(2.33012e-09 -9.81678e-09 0)
(3.84075e-09 -1.01036e-08 0)
(2.41083e-09 -8.62483e-09 0)
(-7.72297e-10 -6.27751e-09 0)
(-3.40413e-09 -2.30884e-09 0)
(-1.84258e-10 -1.36583e-09 0)
(-3.10702e-09 -1.03094e-09 0)
(-3.47173e-09 -1.91435e-09 0)
(-6.59839e-10 1.95642e-09 0)
(1.79006e-09 5.65986e-09 0)
(-6.5306e-10 4.45756e-09 0)
(-1.37152e-09 -2.05175e-09 0)
(-2.55598e-09 -1.97938e-11 0)
(2.16051e-09 -6.79771e-09 0)
(-3.75367e-09 -9.36638e-10 0)
(3.57339e-09 -4.88096e-09 0)
(-1.8755e-09 -1.31898e-09 0)
(-3.47596e-09 2.19697e-10 0)
(7.16485e-10 -4.67759e-09 0)
(-5.75049e-09 -1.94406e-09 0)
(-4.5605e-09 -2.35022e-09 0)
(3.28074e-09 -6.01122e-09 0)
(7.59178e-09 -8.20231e-09 0)
(6.44484e-09 -7.29047e-09 0)
(2.34676e-09 -3.39601e-09 0)
(1.08714e-09 -3.1857e-09 0)
(-2.08773e-09 -2.08532e-09 0)
(-1.5596e-09 1.37478e-09 0)
(7.12266e-10 4.93031e-09 0)
(3.96474e-10 3.62688e-09 0)
(-2.82865e-09 -3.38895e-09 0)
(-1.34557e-09 -4.83836e-10 0)
(-2.9925e-09 1.75643e-09 0)
(5.38036e-10 1.61511e-09 0)
(2.44865e-09 -3.00138e-09 0)
(-8.74938e-09 9.62315e-09 0)
(6.56416e-09 -1.35565e-10 0)
(-6.73333e-09 4.37266e-09 0)
(-3.61185e-09 3.94939e-09 0)
(-1.10144e-10 1.71672e-09 0)
(-7.19565e-09 4.19077e-09 0)
(-5.846e-09 1.86389e-09 0)
(1.53401e-09 -3.86045e-09 0)
(7.99738e-09 -6.73319e-09 0)
(9.27621e-09 -3.63041e-09 0)
(2.31649e-09 -3.15924e-09 0)
(5.26021e-10 -8.68804e-10 0)
(1.20717e-09 3.45637e-09 0)
(8.5198e-10 3.76805e-09 0)
(-2.82583e-09 -1.90511e-09 0)
(-1.68384e-09 -4.24333e-09 0)
(-2.7581e-09 3.82675e-09 0)
(3.31865e-09 2.7226e-09 0)
(-8.05026e-09 5.29511e-09 0)
(7.77105e-09 3.25894e-09 0)
(6.16345e-09 7.26326e-10 0)
(-1.56323e-08 1.3626e-08 0)
(5.80571e-09 1.86279e-10 0)
(-2.49397e-09 3.53967e-09 0)
(-3.02527e-09 4.92333e-09 0)
(-2.72317e-09 5.54294e-09 0)
(-8.12902e-09 6.24766e-09 0)
(-5.53481e-09 4.83518e-09 0)
(3.84353e-09 1.84338e-09 0)
(9.81488e-09 -1.74232e-10 0)
(2.55688e-09 -1.06023e-09 0)
(3.34137e-09 1.27395e-09 0)
(2.95879e-09 2.47299e-09 0)
(-3.74765e-10 -7.40774e-10 0)
(-2.93142e-09 -4.00525e-09 0)
(-2.45296e-09 2.59682e-11 0)
(1.96263e-09 3.44749e-09 0)
(-4.12544e-09 4.52385e-09 0)
(8.92766e-09 -2.43918e-09 0)
(-1.98502e-08 2.43991e-08 0)
(1.98015e-08 -2.16366e-08 0)
(-2.15398e-09 3.28237e-10 0)
(-2.17471e-08 1.48456e-08 0)
(7.52406e-09 1.70333e-09 0)
(6.34477e-09 2.07569e-09 0)
(-1.81431e-09 3.90319e-09 0)
(-6.92005e-09 6.02393e-09 0)
(-6.96959e-09 8.93318e-09 0)
(-1.44059e-09 8.19482e-09 0)
(3.66807e-09 2.853e-09 0)
(1.76005e-09 2.22521e-09 0)
(4.29091e-09 2.56461e-09 0)
(2.55701e-09 -1.35364e-10 0)
(-3.9606e-10 -3.77035e-09 0)
(-2.92847e-09 -2.42942e-09 0)
(3.49666e-12 1.92839e-09 0)
(-6.65322e-10 2.43859e-09 0)
(1.08323e-10 4.04668e-10 0)
(3.47429e-09 6.75813e-09 0)
(4.73877e-09 -1.19343e-08 0)
(-4.36287e-08 5.32291e-09 0)
(5.85266e-08 -3.95983e-08 0)
(2.70458e-09 -1.68518e-09 0)
(-1.79371e-08 4.38198e-09 0)
(4.65393e-09 -1.91409e-09 0)
(4.69973e-09 -6.45872e-10 0)
(-2.89679e-09 2.80806e-09 0)
(-4.51076e-09 7.29984e-09 0)
(-2.81523e-09 7.67767e-09 0)
(-2.01604e-09 2.66354e-09 0)
(2.55304e-10 4.67391e-09 0)
(2.6755e-09 2.73635e-09 0)
(1.19823e-09 -1.70114e-09 0)
(-6.53094e-10 -4.0463e-09 0)
(-9.58696e-10 -6.78114e-10 0)
(-9.29392e-10 2.22451e-09 0)
(3.49141e-11 7.58541e-10 0)
(1.42419e-09 -5.37847e-10 0)
(-1.04052e-08 -3.66222e-09 0)
(3.29384e-08 -1.21622e-08 0)
(-5.06902e-07 1.05111e-08 0)
(-1.14911e-08 2.7729e-08 0)
(4.7122e-08 -1.24123e-08 0)
(7.38499e-09 -6.16066e-09 0)
(1.32018e-09 -2.48357e-09 0)
(5.10083e-09 -3.48381e-09 0)
(1.39046e-09 -1.8637e-09 0)
(-7.66828e-10 3.37026e-09 0)
(-1.96176e-09 3.72197e-09 0)
(-4.30302e-09 1.15967e-09 0)
(-1.25118e-09 4.29587e-09 0)
(-7.84964e-11 1.94175e-09 0)
(-5.68125e-10 -1.12629e-09 0)
(-5.77941e-11 -3.01118e-09 0)
(-4.58581e-11 -5.72737e-11 0)
(2.70649e-10 3.16236e-09 0)
(-1.66683e-09 -1.22209e-09 0)
(-4.66134e-09 -3.15113e-09 0)
(7.28791e-09 -5.95113e-09 0)
(-3.14577e-08 -1.26454e-08 0)
(4.98039e-07 1.77143e-08 0)
(9.56643e-09 3.31862e-08 0)
(-4.54486e-08 -1.12813e-08 0)
(-9.19387e-10 -7.472e-09 0)
(7.71324e-09 -3.6481e-09 0)
(3.94941e-09 -6.55278e-09 0)
(-1.42294e-09 -4.69172e-09 0)
(3.56894e-09 -1.92782e-09 0)
(-1.25658e-10 -4.65982e-11 0)
(-5.16586e-09 2.47795e-10 0)
(-1.98899e-09 1.40695e-09 0)
(-1.76476e-09 5.73327e-10 0)
(-1.91001e-09 4.43598e-10 0)
(-1.08719e-10 -8.89361e-10 0)
(1.78616e-09 -1.02698e-09 0)
(-7.89733e-10 2.6847e-09 0)
(-2.49077e-09 -9.58092e-10 0)
(-2.31587e-09 -6.22039e-09 0)
(-7.89525e-09 2.97157e-09 0)
(-6.04627e-09 4.95731e-09 0)
(5.00087e-08 3.70857e-09 0)
(-7.49221e-08 -1.81661e-08 0)
(-9.2046e-09 1.20832e-08 0)
(1.44307e-08 5.99955e-09 0)
(-6.24338e-10 -2.19408e-09 0)
(3.40349e-10 -6.24891e-09 0)
(9.9269e-09 -4.2779e-09 0)
(5.90277e-09 -2.34444e-09 0)
(2.55996e-09 -7.81087e-10 0)
(-2.91132e-09 -1.02206e-10 0)
(-1.53156e-09 -1.69683e-09 0)
(-1.69953e-09 -1.11604e-09 0)
(-2.09514e-09 1.82331e-09 0)
(-8.00911e-10 1.51615e-09 0)
(2.02123e-09 -1.5356e-09 0)
(-2.60962e-12 -1.58678e-09 0)
(-4.21037e-09 1.01182e-09 0)
(-1.5341e-09 8.11831e-10 0)
(5.97387e-09 7.82451e-12 0)
(1.11942e-08 2.40282e-08 0)
(-5.62785e-08 7.77763e-09 0)
(2.94242e-08 7.02767e-09 0)
(-5.78835e-09 2.42094e-08 0)
(-2.26738e-08 7.84476e-09 0)
(-1.14487e-08 1.24101e-09 0)
(-1.14974e-09 -1.29332e-10 0)
(7.60764e-09 1.47226e-09 0)
(8.07662e-09 1.99614e-09 0)
(1.53078e-09 5.30872e-11 0)
(-5.12194e-09 -6.54565e-10 0)
(-4.17973e-10 -3.24276e-09 0)
(-1.52014e-10 -2.36046e-09 0)
(-1.22757e-09 1.51916e-09 0)
(-1.62059e-09 3.63322e-09 0)
(2.83666e-10 -1.0735e-09 0)
(1.02998e-09 -5.16691e-09 0)
(-1.36902e-09 6.37905e-10 0)
(7.85646e-10 7.99088e-09 0)
(-3.35394e-09 5.15653e-09 0)
(2.92368e-08 -1.18053e-08 0)
(2.90412e-07 -3.54309e-08 0)
(-2.72119e-08 -5.84678e-09 0)
(-7.93343e-09 -1.76006e-08 0)
(-1.4375e-08 -2.08898e-09 0)
(-8.95841e-09 5.56373e-09 0)
(2.43354e-09 1.00628e-08 0)
(8.95512e-09 8.23174e-09 0)
(3.89448e-09 2.74887e-09 0)
(-3.41163e-09 -1.51474e-09 0)
(-6.76294e-09 -1.73782e-09 0)
(6.4665e-10 -2.90671e-09 0)
(1.3695e-09 -2.48604e-09 0)
(4.69192e-10 2.55768e-10 0)
(-2.2901e-09 3.42841e-09 0)
(-1.77174e-09 1.55709e-09 0)
(7.05602e-10 -5.19588e-09 0)
(4.42461e-09 -1.98781e-09 0)
(-2.4545e-09 6.40086e-09 0)
(1.04538e-08 5.93198e-09 0)
(-5.1564e-08 -2.07006e-08 0)
(-2.6585e-07 -1.0124e-08 0)
(3.59541e-08 -2.77924e-08 0)
(-7.6967e-09 -1.47013e-08 0)
(1.22973e-08 -9.19763e-10 0)
(9.05272e-09 6.18502e-09 0)
(5.94645e-09 1.07926e-08 0)
(5.37261e-10 5.18501e-09 0)
(-5.16053e-09 -1.79931e-09 0)
(-8.55873e-09 -5.32307e-09 0)
(-6.08974e-09 -2.95852e-09 0)
(1.25748e-09 -1.64473e-09 0)
(2.21619e-09 -1.68174e-09 0)
(1.491e-09 -8.13417e-10 0)
(-1.55345e-09 1.72375e-09 0)
(-3.92804e-09 3.27154e-09 0)
(4.24204e-10 -8.71556e-11 0)
(3.43147e-09 -4.82715e-09 0)
(6.32292e-09 -9.1936e-10 0)
(-1.76768e-08 1.76068e-09 0)
(1.95051e-08 3.85022e-09 0)
(5.68047e-09 3.21743e-08 0)
(-3.92995e-08 -3.99812e-10 0)
(2.83618e-08 9.32926e-09 0)
(1.42862e-08 5.82346e-09 0)
(9.15726e-09 5.36145e-09 0)
(3.35605e-09 2.06185e-09 0)
(-5.35149e-09 -3.14191e-09 0)
(-9.6394e-09 -7.49982e-09 0)
(-7.85187e-09 -7.64109e-09 0)
(-7.97e-10 -3.09615e-09 0)
(1.78119e-09 -4.38995e-10 0)
(2.07619e-09 -9.84078e-10 0)
(1.59808e-09 -1.18556e-09 0)
(-8.63772e-10 5.14842e-10 0)
(-3.23734e-09 2.97094e-09 0)
(-1.83118e-09 4.07509e-09 0)
(3.04697e-09 -2.39188e-09 0)
(2.37876e-09 -6.7402e-09 0)
(1.67728e-09 -5.5248e-09 0)
(-2.74961e-10 1.71203e-08 0)
(-4.66127e-09 -1.8591e-08 0)
(1.58041e-08 1.86663e-08 0)
(5.85374e-09 9.00663e-09 0)
(5.06992e-09 2.70534e-09 0)
(2.44805e-09 1.56403e-10 0)
(-5.87893e-09 -4.33853e-09 0)
(-1.00345e-08 -7.26849e-09 0)
(-8.64006e-09 -8.5654e-09 0)
(-2.60929e-09 -6.11723e-09 0)
(5.56975e-09 -1.7384e-09 0)
(2.30618e-09 6.42373e-10 0)
(1.08049e-09 -8.00123e-10 0)
(9.1401e-10 -1.29293e-09 0)
(-3.35138e-10 4.15229e-10 0)
(-1.87516e-09 1.97439e-09 0)
(-1.91374e-09 3.60517e-09 0)
(-1.11549e-10 1.18046e-09 0)
(8.61992e-10 -6.6201e-09 0)
(1.32304e-09 -5.92678e-09 0)
(-5.0099e-09 -6.20215e-09 0)
(-1.78981e-09 1.22187e-09 0)
(5.69092e-09 -9.31102e-10 0)
(1.20576e-09 -3.84577e-09 0)
(-1.24136e-09 -3.71491e-09 0)
(-6.48083e-09 -6.26965e-09 0)
(-9.21275e-09 -6.83526e-09 0)
(-8.03387e-09 -5.53254e-09 0)
(-4.77236e-09 -4.3981e-09 0)
(1.7374e-09 -1.76458e-09 0)
(9.00303e-09 2.62171e-10 0)
(2.13879e-09 2.02989e-09 0)
(-6.16108e-10 -2.65812e-10 0)
(1.67097e-10 -1.90227e-09 0)
(-4.49409e-11 -4.75906e-10 0)
(-3.09078e-10 7.62671e-10 0)
(-1.40441e-09 4.65382e-10 0)
(-1.38868e-09 1.10625e-09 0)
(-1.62009e-09 -1.9527e-09 0)
(-3.83626e-10 -3.43233e-09 0)
(-7.79528e-10 -4.16981e-09 0)
(1.25397e-09 -6.15269e-10 0)
(-3.32198e-10 -5.51992e-09 0)
(-1.80698e-09 -5.56139e-09 0)
(-4.68754e-09 -4.85065e-09 0)
(-7.88831e-09 -4.60374e-09 0)
(-6.49024e-09 -2.62628e-09 0)
(-3.59571e-09 2.56301e-10 0)
(-1.80551e-09 2.33603e-09 0)
(2.53835e-09 3.83359e-09 0)
(8.05521e-09 2.38136e-09 0)
(2.28219e-10 2.87614e-09 0)
(-2.63131e-09 1.11542e-09 0)
(-5.28233e-10 -1.78207e-09 0)
(7.91131e-10 -3.20297e-09 0)
(1.05871e-09 -1.23911e-09 0)
(-5.16065e-10 -1.73323e-09 0)
(-1.62785e-09 -4.7041e-10 0)
(-2.19629e-09 1.30948e-09 0)
(-1.45366e-09 2.17119e-09 0)
(-7.44214e-10 1.81226e-09 0)
(2.56971e-10 -7.63036e-10 0)
(3.01996e-10 -2.76618e-09 0)
(1.24127e-10 -2.05039e-09 0)
(-2.965e-09 -1.9036e-10 0)
(-4.46459e-09 1.08947e-09 0)
(-1.45427e-09 2.04098e-09 0)
(3.48375e-11 3.89205e-09 0)
(-6.29444e-10 7.38319e-09 0)
(1.10258e-09 8.86278e-09 0)
(3.76914e-09 4.39991e-09 0)
(-2.91205e-09 2.04386e-09 0)
(-3.1032e-09 2.26325e-09 0)
(-1.17142e-09 -5.00091e-10 0)
(1.69804e-09 -4.38805e-09 0)
(2.17012e-09 -3.4408e-09 0)
(2.30596e-10 -1.83154e-09 0)
(-1.85942e-09 -1.15495e-09 0)
(-1.76375e-09 2.033e-09 0)
(-1.63527e-09 4.24854e-09 0)
(-1.51762e-09 5.3502e-09 0)
(-1.43823e-10 4.2157e-09 0)
(2.27957e-09 2.06885e-09 0)
(2.55069e-09 1.90068e-09 0)
(-6.72695e-11 3.17641e-09 0)
(-8.56397e-10 4.24606e-09 0)
(7.44414e-10 3.03662e-09 0)
(2.37115e-09 3.34261e-09 0)
(2.85671e-09 7.92007e-09 0)
(1.54985e-09 1.01365e-08 0)
(-1.98785e-09 4.8227e-09 0)
(-5.02303e-09 6.02844e-10 0)
(-2.40316e-09 1.245e-09 0)
(-1.52797e-09 1.54804e-10 0)
(1.78871e-09 -2.02832e-09 0)
(2.7539e-09 -2.05715e-09 0)
(5.53468e-10 -9.07362e-10 0)
(-1.89046e-09 -4.79211e-10 0)
(-1.5716e-09 9.05242e-10 0)
(-1.23719e-09 2.07534e-09 0)
(-6.38841e-10 2.90807e-09 0)
(-7.82376e-10 3.57557e-09 0)
(1.09395e-09 2.10685e-09 0)
(2.94704e-09 1.5901e-09 0)
(1.60311e-09 2.00848e-09 0)
(3.32403e-10 2.32094e-09 0)
(8.34751e-10 1.31514e-09 0)
(4.39962e-09 1.26221e-09 0)
(6.43865e-09 3.54167e-09 0)
(1.80711e-09 4.67155e-09 0)
(-7.11451e-09 2.15666e-09 0)
)
;

boundaryField
{
    sides
    {
        type            calculated;
        value           nonuniform List<vector> 
40
(
(-5.02303e-09 0 0)
(-2.40316e-09 0 0)
(-1.52797e-09 0 0)
(1.78871e-09 0 0)
(2.7539e-09 0 0)
(5.53468e-10 0 0)
(-1.89046e-09 0 0)
(-1.5716e-09 0 0)
(-1.23719e-09 0 0)
(-6.38841e-10 0 0)
(-7.82376e-10 0 0)
(1.09395e-09 0 0)
(2.94704e-09 0 0)
(1.60311e-09 0 0)
(3.32403e-10 0 0)
(8.34751e-10 0 0)
(4.39962e-09 0 0)
(6.43865e-09 0 0)
(1.80711e-09 0 0)
(-7.11451e-09 0 0)
(-5.48873e-10 0 0)
(-1.64378e-09 0 0)
(-2.21217e-09 0 0)
(-2.14352e-09 0 0)
(-1.17063e-09 0 0)
(-2.10051e-10 0 0)
(2.1574e-10 0 0)
(6.14006e-10 0 0)
(2.69638e-10 0 0)
(1.73634e-09 0 0)
(-6.58543e-10 0 0)
(1.43498e-09 0 0)
(2.9689e-09 0 0)
(1.7093e-09 0 0)
(2.84048e-09 0 0)
(3.45536e-09 0 0)
(2.07238e-09 0 0)
(-1.2293e-09 0 0)
(-7.73925e-09 0 0)
(-1.08202e-08 0 0)
)
;
    }
    inlet
    {
        type            calculated;
        value           uniform (0 0 0);
    }
    outlet
    {
        type            calculated;
        value           nonuniform List<vector> 
20
(
(-1.08202e-08 -1.21636e-09 0)
(-3.40413e-09 -2.30884e-09 0)
(2.34676e-09 -3.39601e-09 0)
(9.27621e-09 -3.63041e-09 0)
(9.81488e-09 -1.74232e-10 0)
(3.66807e-09 2.853e-09 0)
(-2.01604e-09 2.66354e-09 0)
(-4.30302e-09 1.15967e-09 0)
(-5.16586e-09 2.47795e-10 0)
(-2.91132e-09 -1.02206e-10 0)
(-5.12194e-09 -6.54565e-10 0)
(-6.76294e-09 -1.73782e-09 0)
(-6.08974e-09 -2.95852e-09 0)
(-7.97e-10 -3.09615e-09 0)
(5.56975e-09 -1.7384e-09 0)
(9.00303e-09 2.62171e-10 0)
(8.05521e-09 2.38136e-09 0)
(3.76914e-09 4.39991e-09 0)
(-1.98785e-09 4.8227e-09 0)
(-7.11451e-09 2.15666e-09 0)
)
;
    }
    frontAndBack
    {
        type            empty;
    }
}


// ************************************************************************* //
