/*--------------------------------*- C++ -*----------------------------------*\
  =========                 |
  \\      /  F ield         | OpenFOAM: The Open Source CFD Toolbox
   \\    /   O peration     | Website:  https://openfoam.org
    \\  /    A nd           | Version:  9
     \\/     M anipulation  |
\*---------------------------------------------------------------------------*/
FoamFile
{
    format      ascii;
    class       surfaceScalarField;
    location    "80";
    object      phi;
}
// * * * * * * * * * * * * * * * * * * * * * * * * * * * * * * * * * * * * * //

dimensions      [0 4 -1 0 0 0 0];

internalField   nonuniform List<scalar> 
760
(
5.00009e-06
-9.21572e-11
5.0004e-06
-3.05741e-10
5.00091e-06
-5.15615e-10
5.00162e-06
-7.09806e-10
5.00249e-06
-8.75793e-10
5.00349e-06
-9.9913e-10
5.00456e-06
-1.05353e-09
5.00557e-06
-1.01052e-09
5.0064e-06
-8.3031e-10
5.00693e-06
-5.25133e-10
5.00705e-06
-1.26129e-10
5.00665e-06
3.9335e-10
5.0058e-06
8.47832e-10
5.00469e-06
1.09538e-09
5.00352e-06
1.16286e-09
5.00257e-06
9.45274e-10
5.00185e-06
7.11029e-10
5.00161e-06
2.42737e-10
5.0015e-06
1.05255e-10
-3.92687e-10
5.00012e-06
-2.12684e-10
5.00045e-06
-6.34459e-10
5.00098e-06
-1.05122e-09
5.00172e-06
-1.44934e-09
5.00265e-06
-1.80544e-09
5.00374e-06
-2.08709e-09
5.00493e-06
-2.2408e-09
5.00611e-06
-2.19032e-09
5.00713e-06
-1.85469e-09
5.00778e-06
-1.17147e-09
5.00774e-06
-9.89305e-11
5.00726e-06
8.83451e-10
5.00627e-06
1.83503e-09
5.00495e-06
2.40505e-09
5.00368e-06
2.43596e-09
5.00278e-06
1.8507e-09
5.00225e-06
1.24026e-09
5.00191e-06
5.76125e-10
5.00165e-06
3.63992e-10
-1.48911e-10
5.00011e-06
-3.22154e-10
5.00042e-06
-9.56205e-10
5.00096e-06
-1.58317e-09
5.00172e-06
-2.20869e-09
5.00273e-06
-2.80248e-09
5.00394e-06
-3.312e-09
5.00532e-06
-3.62493e-09
5.00672e-06
-3.59347e-09
5.00793e-06
-3.06403e-09
5.00872e-06
-1.96202e-09
5.00894e-06
-3.08156e-10
5.00825e-06
1.56612e-09
5.00687e-06
3.22408e-09
5.00515e-06
4.12742e-09
5.00351e-06
4.08869e-09
5.00231e-06
3.05553e-09
5.00167e-06
1.88824e-09
5.00148e-06
7.64222e-10
5.00145e-06
3.89276e-10
-2.24831e-10
5.0001e-06
-4.23223e-10
5.0004e-06
-1.26663e-09
5.00094e-06
-2.11717e-09
5.00175e-06
-3.00869e-09
5.00286e-06
-3.90975e-09
5.00429e-06
-4.75077e-09
5.00602e-06
-5.35349e-09
5.00795e-06
-5.53226e-09
5.00984e-06
-4.95026e-09
5.01107e-06
-3.19836e-09
5.0112e-06
-4.22721e-10
5.00999e-06
2.77411e-09
5.00765e-06
5.56949e-09
5.00514e-06
6.63925e-09
5.00347e-06
5.7638e-09
5.0027e-06
3.83274e-09
5.00248e-06
2.1141e-09
5.00232e-06
9.35622e-10
5.002e-06
7.0413e-10
3.36696e-10
5.00008e-06
-5.05303e-10
5.00034e-06
-1.52452e-09
5.00083e-06
-2.60908e-09
5.00164e-06
-3.8111e-09
5.00286e-06
-5.13549e-09
5.00457e-06
-6.4681e-09
5.0068e-06
-7.57854e-09
5.00942e-06
-8.15106e-09
5.01238e-06
-7.92257e-09
5.01479e-06
-5.58456e-09
5.01482e-06
-4.76197e-10
5.01285e-06
4.76337e-09
5.00867e-06
9.74808e-09
5.00459e-06
1.07138e-08
5.00224e-06
8.12317e-09
5.00174e-06
4.33142e-09
5.00205e-06
1.81332e-09
5.00226e-06
7.29164e-10
5.00202e-06
9.5161e-10
6.26846e-10
5.00004e-06
-5.4561e-10
5.0002e-06
-1.67911e-09
5.00054e-06
-2.94907e-09
5.00121e-06
-4.48599e-09
5.00241e-06
-6.33616e-09
5.00452e-06
-8.5803e-09
5.0076e-06
-1.06557e-08
5.01167e-06
-1.22224e-08
5.01553e-06
-1.17791e-08
5.019e-06
-9.05727e-09
5.02022e-06
-1.67892e-09
5.01601e-06
8.93353e-09
5.00951e-06
1.62682e-08
5.00422e-06
1.60104e-08
5.00217e-06
1.01612e-08
5.00249e-06
4.0052e-09
5.00327e-06
1.03839e-09
5.0034e-06
6.05385e-10
5.0028e-06
1.55103e-09
1.42423e-09
4.99998e-06
-5.23729e-10
4.99994e-06
-1.63587e-09
5.00003e-06
-3.04198e-09
5.00036e-06
-4.81701e-09
5.00122e-06
-7.19684e-09
5.00292e-06
-1.02788e-08
5.0068e-06
-1.45361e-08
5.01392e-06
-1.93409e-08
5.02377e-06
-2.16001e-08
5.03091e-06
-1.6273e-08
5.02874e-06
6.2228e-10
5.01674e-06
2.09323e-08
5.00417e-06
2.88009e-08
4.99873e-06
2.1457e-08
5.00058e-06
8.31477e-09
5.00285e-06
1.72994e-09
5.00371e-06
1.66526e-10
5.00366e-06
6.57625e-10
5.00305e-06
2.16683e-09
1.68294e-09
4.99987e-06
-3.88394e-10
4.99955e-06
-1.32119e-09
4.99912e-06
-2.61454e-09
4.99885e-06
-4.54722e-09
4.99933e-06
-7.67035e-09
5.00036e-06
-1.13064e-08
5.00365e-06
-1.78242e-08
5.00983e-06
-2.55133e-08
5.02488e-06
-3.66761e-08
5.05612e-06
-4.74671e-08
5.04995e-06
6.60595e-09
5.02319e-06
4.78203e-08
4.99819e-06
5.38094e-08
4.9935e-06
2.61331e-08
4.99947e-06
2.33963e-09
5.00407e-06
-2.87996e-09
5.0049e-06
-6.7186e-10
5.00372e-06
1.83638e-09
5.00351e-06
2.38147e-09
9.69996e-10
4.99977e-06
-1.57136e-10
4.99915e-06
-7.0563e-10
4.99792e-06
-1.38081e-09
4.99611e-06
-2.73482e-09
4.99402e-06
-5.57984e-09
4.99374e-06
-1.10269e-08
4.99945e-06
-2.35354e-08
5.01713e-06
-4.32021e-08
5.05571e-06
-7.52311e-08
5.06683e-06
-5.86347e-08
5.04982e-06
2.37966e-08
4.99649e-06
1.01026e-07
4.9893e-06
6.09953e-08
4.99591e-06
1.95324e-08
5.00019e-06
-1.94498e-09
5.00293e-06
-5.62406e-09
5.00252e-06
-2.80319e-10
5.00184e-06
2.51325e-09
5.00254e-06
1.6757e-09
7.01515e-11
4.99986e-06
-1.66258e-11
4.99921e-06
-5.23432e-11
4.99791e-06
-8.61787e-11
4.9953e-06
-1.27536e-10
4.9899e-06
-1.69973e-10
4.97909e-06
-2.2002e-10
4.95582e-06
-2.70258e-10
4.91296e-06
-3.3801e-10
4.83812e-06
-4.13977e-10
4.78e-06
-4.29449e-10
4.80427e-06
-6.04816e-10
4.90602e-06
-7.1683e-10
4.96779e-06
-7.23223e-10
4.98823e-06
-8.95497e-10
4.98745e-06
-1.16422e-09
4.98327e-06
-1.43012e-09
4.98456e-06
-1.56153e-09
4.9889e-06
-1.83083e-09
4.99247e-06
-1.89892e-09
-2.5867e-09
4.99986e-06
1.24789e-10
4.99921e-06
6.00648e-10
4.9979e-06
1.21266e-09
4.99529e-06
2.48542e-09
4.98988e-06
5.25039e-09
4.97906e-06
1.05978e-08
4.95577e-06
2.30093e-08
4.9129e-06
4.25438e-08
4.83804e-06
7.44603e-08
4.77974e-06
5.78432e-08
4.80424e-06
-2.50919e-08
4.90599e-06
-1.02459e-07
4.96775e-06
-6.25133e-08
4.98806e-06
-2.11959e-08
4.98736e-06
-4.48422e-10
4.98294e-06
2.99934e-09
4.98443e-06
-3.05185e-09
4.98889e-06
-6.28815e-09
4.99235e-06
-5.36197e-09
-4.98612e-09
4.99977e-06
3.56879e-10
4.99915e-06
1.22208e-09
4.99792e-06
2.44457e-09
4.9961e-06
4.30037e-09
4.99402e-06
7.335e-09
4.99373e-06
1.08823e-08
4.99943e-06
1.73129e-08
5.01707e-06
2.49012e-08
5.05563e-06
3.59158e-08
5.06713e-06
4.63597e-08
5.0494e-06
-6.49384e-09
4.99609e-06
-4.91094e-08
4.98884e-06
-5.52723e-08
4.99569e-06
-2.80422e-08
5.00011e-06
-4.85748e-09
5.00232e-06
7.93323e-10
5.00166e-06
-2.39159e-09
5.0009e-06
-5.53822e-09
5.00168e-06
-6.1423e-09
-5.95391e-09
4.99987e-06
4.92947e-10
4.99955e-06
1.54179e-09
4.99911e-06
2.88075e-09
4.99883e-06
4.58119e-09
4.99927e-06
6.89045e-09
5.00027e-06
9.8916e-09
5.00348e-06
1.41024e-08
5.00961e-06
1.87712e-08
5.02459e-06
2.09252e-08
5.05552e-06
1.54068e-08
5.04983e-06
-1.61272e-09
5.02283e-06
-2.21751e-08
4.99788e-06
-3.03035e-08
4.99316e-06
-2.33286e-08
4.99864e-06
-1.03415e-08
5.00345e-06
-4.02115e-09
5.00372e-06
-2.67556e-09
5.00235e-06
-4.16721e-09
5.00216e-06
-5.94894e-09
-6.53745e-09
4.99998e-06
5.16176e-10
4.99993e-06
1.59273e-09
5.00001e-06
2.80426e-09
5.00031e-06
4.27663e-09
5.00113e-06
6.0644e-09
5.00279e-06
8.23426e-09
5.00669e-06
1.02192e-08
5.01379e-06
1.16668e-08
5.02356e-06
1.11257e-08
5.03071e-06
8.29481e-09
5.02838e-06
6.28754e-10
5.01627e-06
-1.00166e-08
5.00351e-06
-1.75477e-08
4.99778e-06
-1.76054e-08
4.99941e-06
-1.19858e-08
5.0016e-06
-6.22308e-09
5.0024e-06
-3.47328e-09
5.00213e-06
-3.89547e-09
5.0012e-06
-5.01043e-09
-5.97788e-09
5.00004e-06
4.78819e-10
5.00018e-06
1.44819e-09
5.00051e-06
2.48342e-09
5.00115e-06
3.63025e-09
5.00232e-06
4.89363e-09
5.00439e-06
6.16008e-09
5.00742e-06
7.20143e-09
5.0114e-06
7.68892e-09
5.01513e-06
7.38594e-09
5.01852e-06
4.87734e-09
5.01956e-06
-4.05109e-10
5.01523e-06
-5.69873e-09
5.00854e-06
-1.08705e-08
5.00311e-06
-1.21802e-08
5.00087e-06
-9.75922e-09
5.001e-06
-6.35734e-09
5.00155e-06
-4.01783e-09
5.00131e-06
-3.65616e-09
5.00036e-06
-4.04602e-09
-4.97681e-09
5.00007e-06
4.00323e-10
5.00032e-06
1.20216e-09
5.0008e-06
2.01326e-09
5.00157e-06
2.8592e-09
5.00275e-06
3.7115e-09
5.00441e-06
4.49783e-09
5.00656e-06
5.05274e-09
5.0091e-06
5.15438e-09
5.01203e-06
4.45119e-09
5.0144e-06
2.50469e-09
5.01415e-06
-1.42883e-10
5.01208e-06
-3.64432e-09
5.00775e-06
-6.54228e-09
5.00348e-06
-7.91624e-09
5.00092e-06
-7.19687e-09
5.00013e-06
-5.55739e-09
5.0001e-06
-3.98914e-09
4.99988e-06
-3.42365e-09
4.99918e-06
-3.33999e-09
-4.17134e-09
5.00009e-06
3.00677e-10
5.00039e-06
9.04975e-10
5.00091e-06
1.50367e-09
5.00168e-06
2.09295e-09
5.00274e-06
2.64923e-09
5.00412e-06
3.10997e-09
5.00579e-06
3.3804e-09
5.00763e-06
3.3118e-09
5.00933e-06
2.75557e-09
5.01027e-06
1.57116e-09
5.01043e-06
-3.0487e-10
5.00903e-06
-2.23867e-09
5.0065e-06
-4.01125e-09
5.00367e-06
-5.08078e-09
5.00154e-06
-5.0589e-09
5.00035e-06
-4.35319e-09
4.99971e-06
-3.34386e-09
4.99917e-06
-2.88494e-09
4.99846e-06
-2.62064e-09
-3.21347e-09
5.0001e-06
1.9663e-10
5.00041e-06
5.97243e-10
5.00093e-06
9.89234e-10
5.00166e-06
1.35905e-09
5.00262e-06
1.69216e-09
5.00378e-06
1.94625e-09
5.00509e-06
2.06177e-09
5.00645e-06
1.95466e-09
5.00765e-06
1.55818e-09
5.00839e-06
8.31965e-10
5.00821e-06
-1.27574e-10
5.00734e-06
-1.3567e-09
5.0057e-06
-2.37238e-09
5.00368e-06
-3.05839e-09
5.00179e-06
-3.16215e-09
5.00034e-06
-2.89331e-09
4.99932e-06
-2.32334e-09
4.99852e-06
-2.08925e-09
4.99773e-06
-1.82524e-09
-2.27487e-09
5.00008e-06
1.12195e-10
5.00037e-06
3.06655e-10
5.00087e-06
4.97163e-10
5.00155e-06
6.75081e-10
5.00241e-06
8.30519e-10
5.00341e-06
9.44855e-10
5.00448e-06
9.90497e-10
5.00551e-06
9.3215e-10
5.00633e-06
7.36011e-10
5.0068e-06
3.63243e-10
5.00681e-06
-1.39628e-10
5.00608e-06
-6.24872e-10
5.00479e-06
-1.08661e-09
5.00315e-06
-1.42194e-09
5.00148e-06
-1.49383e-09
5.00003e-06
-1.43335e-09
4.99889e-06
-1.18488e-09
4.99793e-06
-1.13067e-09
4.99707e-06
-9.70521e-10
-1.42226e-09
5.00012e-06
5.00042e-06
5.00091e-06
5.00159e-06
5.00242e-06
5.00336e-06
5.00436e-06
5.0053e-06
5.00603e-06
5.0064e-06
5.00625e-06
5.00562e-06
5.00453e-06
5.00311e-06
5.00161e-06
5.00017e-06
4.99899e-06
4.99785e-06
4.99687e-06
)
;

boundaryField
{
    sides
    {
        type            calculated;
        value           uniform 0;
    }
    inlet
    {
        type            calculated;
        value           nonuniform List<scalar> 
20
(
-5e-06
-5e-06
-5e-06
-5e-06
-5e-06
-5e-06
-5e-06
-5e-06
-5e-06
-5e-06
-5e-06
-5e-06
-5e-06
-5e-06
-5e-06
-5e-06
-5e-06
-5e-06
-5e-06
-5e-06
)
;
    }
    outlet
    {
        type            calculated;
        value           nonuniform List<scalar> 
20
(
5.0019e-06
5.00141e-06
5.00152e-06
5.00144e-06
5.00173e-06
5.00201e-06
5.00279e-06
5.00422e-06
5.00343e-06
4.99513e-06
4.99474e-06
5.00265e-06
5.00275e-06
5.00064e-06
4.99936e-06
4.99838e-06
4.9975e-06
4.99679e-06
4.99621e-06
4.99544e-06
)
;
    }
    frontAndBack
    {
        type            empty;
        value           nonuniform List<scalar> 0();
    }
}


// ************************************************************************* //
