/*--------------------------------*- C++ -*----------------------------------*\
  =========                 |
  \\      /  F ield         | OpenFOAM: The Open Source CFD Toolbox
   \\    /   O peration     | Website:  https://openfoam.org
    \\  /    A nd           | Version:  9
     \\/     M anipulation  |
\*---------------------------------------------------------------------------*/
FoamFile
{
    format      ascii;
    class       volVectorField;
    location    "80";
    object      U;
}
// * * * * * * * * * * * * * * * * * * * * * * * * * * * * * * * * * * * * * //

dimensions      [0 1 -1 0 0 0 0];

internalField   nonuniform List<vector> 
400
(
(0.0999965 -2.41356e-06 0)
(0.100001 -7.05198e-06 0)
(0.10001 -1.13525e-05 0)
(0.100023 -1.52839e-05 0)
(0.10004 -1.87457e-05 0)
(0.100061 -2.16428e-05 0)
(0.100083 -2.36414e-05 0)
(0.100107 -2.45e-05 0)
(0.100128 -2.36014e-05 0)
(0.100144 -2.11077e-05 0)
(0.100153 -1.68303e-05 0)
(0.100152 -1.28615e-05 0)
(0.10014 -9.94624e-06 0)
(0.10012 -9.36878e-06 0)
(0.100093 -1.00454e-05 0)
(0.100068 -1.36224e-05 0)
(0.100045 -1.56789e-05 0)
(0.100034 -2.01215e-05 0)
(0.100025 -1.88738e-05 0)
(0.100033 -2.68398e-05 0)
(0.099997 -2.64508e-06 0)
(0.100002 -7.88519e-06 0)
(0.100011 -1.29101e-05 0)
(0.100025 -1.75081e-05 0)
(0.100044 -2.13446e-05 0)
(0.100066 -2.39413e-05 0)
(0.100091 -2.44867e-05 0)
(0.100117 -2.19825e-05 0)
(0.100141 -1.5429e-05 0)
(0.100161 -4.76716e-06 0)
(0.100171 9.34955e-06 0)
(0.100169 2.4724e-05 0)
(0.100154 3.88593e-05 0)
(0.100129 4.75412e-05 0)
(0.1001 5.03639e-05 0)
(0.100071 4.50727e-05 0)
(0.100051 3.78019e-05 0)
(0.100037 2.5715e-05 0)
(0.100033 2.05286e-05 0)
(0.100029 8.10971e-06 0)
(0.0999969 -5.24219e-06 0)
(0.100002 -1.59455e-05 0)
(0.100011 -2.68062e-05 0)
(0.100025 -3.74565e-05 0)
(0.100045 -4.73243e-05 0)
(0.100069 -5.54616e-05 0)
(0.100096 -6.03277e-05 0)
(0.100127 -5.97594e-05 0)
(0.100156 -5.18508e-05 0)
(0.10018 -3.51923e-05 0)
(0.100193 -1.10251e-05 0)
(0.100192 1.62369e-05 0)
(0.100174 4.01428e-05 0)
(0.100142 5.19164e-05 0)
(0.100102 4.98804e-05 0)
(0.100066 3.53517e-05 0)
(0.100038 2.03113e-05 0)
(0.100026 4.59748e-06 0)
(0.100021 -3.64181e-07 0)
(0.100029 -1.17383e-05 0)
(0.0999963 -7.36946e-06 0)
(0.100001 -2.23165e-05 0)
(0.10001 -3.76021e-05 0)
(0.100025 -5.30814e-05 0)
(0.100046 -6.80151e-05 0)
(0.100073 -8.09954e-05 0)
(0.100107 -8.89632e-05 0)
(0.100146 -8.86302e-05 0)
(0.100186 -7.5624e-05 0)
(0.100222 -4.75451e-05 0)
(0.100243 -2.20585e-06 0)
(0.10024 4.93317e-05 0)
(0.100211 9.37278e-05 0)
(0.100159 0.000113987 0)
(0.100104 0.000105494 0)
(0.100061 7.4382e-05 0)
(0.100041 4.24481e-05 0)
(0.100035 1.69675e-05 0)
(0.100041 1.00757e-05 0)
(0.100035 -2.19855e-08 0)
(0.0999953 -9.13311e-06 0)
(0.0999994 -2.78851e-05 0)
(0.100008 -4.77773e-05 0)
(0.100023 -6.94055e-05 0)
(0.100045 -9.20715e-05 0)
(0.100076 -0.000113988 0)
(0.100117 -0.000129976 0)
(0.100168 -0.000133833 0)
(0.100225 -0.000117601 0)
(0.100281 -7.78471e-05 0)
(0.100318 -1.69838e-05 0)
(0.100316 5.80595e-05 0)
(0.100267 0.00012316 0)
(0.100182 0.000151232 0)
(0.100091 0.000137614 0)
(0.100029 9.65922e-05 0)
(0.10001 5.82551e-05 0)
(0.100019 3.14475e-05 0)
(0.100036 2.61217e-05 0)
(0.100043 1.67396e-05 0)
(0.0999939 -1.03642e-05 0)
(0.0999968 -3.19068e-05 0)
(0.100003 -5.62621e-05 0)
(0.100015 -8.44998e-05 0)
(0.100036 -0.000117329 0)
(0.10007 -0.000152582 0)
(0.100122 -0.00018602 0)
(0.100193 -0.000205531 0)
(0.100277 -0.000191326 0)
(0.100357 -0.000119859 0)
(0.100414 8.40583e-06 0)
(0.100415 0.000154475 0)
(0.100339 0.000243627 0)
(0.100208 0.000230567 0)
(0.100085 0.000143077 0)
(0.100015 4.93479e-05 0)
(0.100012 1.42935e-06 0)
(0.100035 -8.49041e-06 0)
(0.100065 5.99579e-06 0)
(0.100055 4.9796e-06 0)
(0.0999924 -1.0262e-05 0)
(0.0999928 -3.33722e-05 0)
(0.0999949 -6.02344e-05 0)
(0.100001 -9.62697e-05 0)
(0.100016 -0.00013932 0)
(0.100046 -0.000194696 0)
(0.100103 -0.000249011 0)
(0.100202 -0.000308538 0)
(0.10035 -0.000323492 0)
(0.100519 -0.000288185 0)
(0.100632 -6.67621e-05 0)
(0.100591 0.000255388 0)
(0.100383 0.000482926 0)
(0.100117 0.000473697 0)
(0.0999479 0.000302793 0)
(0.0999219 0.000126413 0)
(0.0999926 4.31626e-05 0)
(0.100056 3.27123e-05 0)
(0.100095 5.62059e-05 0)
(0.100067 5.33922e-05 0)
(0.0999905 -9.22899e-06 0)
(0.0999874 -2.88791e-05 0)
(0.0999807 -5.77422e-05 0)
(0.099977 -9.57627e-05 0)
(0.0999774 -0.000157822 0)
(0.100001 -0.000234519 0)
(0.100047 -0.000340279 0)
(0.10016 -0.000412533 0)
(0.100335 -0.00043739 0)
(0.100659 -0.00025525 0)
(0.101006 7.51994e-05 0)
(0.101013 0.00042725 0)
(0.100606 0.000472032 0)
(0.100072 0.000278153 0)
(0.0997821 7.34648e-05 0)
(0.0997969 -2.748e-05 0)
(0.0999672 -2.85504e-05 0)
(0.100089 -9.37485e-07 0)
(0.100138 2.11995e-05 0)
(0.100087 1.0277e-05 0)
(0.0999895 -4.89177e-06 0)
(0.0999806 -2.03816e-05 0)
(0.0999629 -3.86838e-05 0)
(0.0999377 -7.35637e-05 0)
(0.0999106 -0.000133899 0)
(0.0999019 -0.000248109 0)
(0.0999568 -0.000468698 0)
(0.100145 -0.000806913 0)
(0.100537 -0.00132918 0)
(0.101061 -0.00149301 0)
(0.101323 0.000384435 0)
(0.100997 0.00187501 0)
(0.100241 0.00157832 0)
(0.0997201 0.000573834 0)
(0.0996446 -3.17074e-05 0)
(0.0998221 -0.000126425 0)
(0.100024 -9.5149e-06 0)
(0.100107 6.34222e-05 0)
(0.100113 6.51406e-05 0)
(0.100055 2.43626e-05 0)
(0.0999703 -1.96854e-06 0)
(0.100006 -6.67218e-06 0)
(0.0999077 -1.51495e-05 0)
(0.0999717 -2.48942e-05 0)
(0.0997259 -5.92577e-05 0)
(0.0998441 -0.000113106 0)
(0.0992766 -0.000288212 0)
(0.0996751 -0.000558918 0)
(0.0991181 -0.00115374 0)
(0.102003 -0.00141513 0)
(0.106281 3.09449e-05 0)
(0.101267 0.00146739 0)
(0.0990078 0.00130738 0)
(0.0982227 0.000513171 0)
(0.0988555 1.93041e-05 0)
(0.0996052 -7.82449e-05 0)
(0.0999352 -1.12668e-05 0)
(0.0999523 2.47537e-05 0)
(0.099867 1.73544e-05 0)
(0.0998489 -1.85127e-05 0)
(0.099971 1.29871e-06 0)
(0.100006 4.58295e-06 0)
(0.0999084 1.17593e-05 0)
(0.0999722 2.00169e-05 0)
(0.0997263 5.29037e-05 0)
(0.0998442 0.000105038 0)
(0.0992763 0.000278438 0)
(0.0996744 0.000546887 0)
(0.0991171 0.00113908 0)
(0.102001 0.00139787 0)
(0.106277 -5.21443e-05 0)
(0.101265 -0.00149417 0)
(0.0990078 -0.00133944 0)
(0.0982222 -0.000552475 0)
(0.0988539 -6.47246e-05 0)
(0.0996016 2.48182e-05 0)
(0.0999312 -4.72455e-05 0)
(0.0999479 -0.000100279 0)
(0.0998659 -9.89268e-05 0)
(0.0998442 -8.89001e-05 0)
(0.0999915 4.25203e-06 0)
(0.0999826 1.83828e-05 0)
(0.0999648 3.53651e-05 0)
(0.0999397 6.87829e-05 0)
(0.0999124 0.000127643 0)
(0.0999039 0.000240026 0)
(0.0999583 0.00045878 0)
(0.100146 0.000794382 0)
(0.100537 0.00131393 0)
(0.101064 0.0014733 0)
(0.101325 -0.000407916 0)
(0.100995 -0.00190264 0)
(0.100235 -0.00160997 0)
(0.0997121 -0.000611959 0)
(0.0996386 -8.27484e-06 0)
(0.0998174 7.76266e-05 0)
(0.100015 -4.2702e-05 0)
(0.100092 -0.000130553 0)
(0.100093 -0.000137999 0)
(0.100038 -0.00012511 0)
(0.0999939 8.6216e-06 0)
(0.0999907 2.70104e-05 0)
(0.0999839 5.45109e-05 0)
(0.0999799 9.10774e-05 0)
(0.0999799 0.000151387 0)
(0.100003 0.000226076 0)
(0.100048 0.000329312 0)
(0.100159 0.000399227 0)
(0.100332 0.000421439 0)
(0.100654 0.000236499 0)
(0.101 -9.87392e-05 0)
(0.101008 -0.000454647 0)
(0.100601 -0.000502296 0)
(0.100067 -0.00031285 0)
(0.0997751 -0.000112977 0)
(0.0997847 -2.507e-05 0)
(0.099951 -3.23008e-05 0)
(0.100066 -7.42086e-05 0)
(0.100112 -9.67706e-05 0)
(0.100057 -0.00010741 0)
(0.0999971 9.67521e-06 0)
(0.0999974 3.15869e-05 0)
(0.0999993 5.71918e-05 0)
(0.100005 9.17888e-05 0)
(0.100019 0.000133384 0)
(0.100049 0.00018709 0)
(0.100105 0.000239885 0)
(0.100203 0.000297614 0)
(0.100351 0.000311329 0)
(0.100519 0.000273477 0)
(0.100631 5.15406e-05 0)
(0.100586 -0.000275377 0)
(0.100375 -0.000507785 0)
(0.100105 -0.000507 0)
(0.0999304 -0.000344873 0)
(0.0998989 -0.000179446 0)
(0.0999681 -0.000102189 0)
(0.100026 -0.000105974 0)
(0.100065 -0.00013072 0)
(0.100025 -0.000151549 0)
(0.1 9.81421e-06 0)
(0.100003 3.02935e-05 0)
(0.100009 5.35762e-05 0)
(0.100021 8.05874e-05 0)
(0.10004 0.000112147 0)
(0.100073 0.000145961 0)
(0.100124 0.000177893 0)
(0.100194 0.000195172 0)
(0.100276 0.000178322 0)
(0.100353 0.000103673 0)
(0.100407 -2.78903e-05 0)
(0.100405 -0.000178006 0)
(0.100326 -0.000270974 0)
(0.10019 -0.000263174 0)
(0.100064 -0.000177957 0)
(0.099989 -8.96622e-05 0)
(0.0999835 -4.28398e-05 0)
(0.0999983 -4.48413e-05 0)
(0.100024 -6.161e-05 0)
(0.100002 -8.48308e-05 0)
(0.100003 8.63723e-06 0)
(0.100007 2.64572e-05 0)
(0.100015 4.54512e-05 0)
(0.100029 6.61637e-05 0)
(0.10005 8.77483e-05 0)
(0.10008 0.000108435 0)
(0.10012 0.000123069 0)
(0.10017 0.000125362 0)
(0.100225 0.000107395 0)
(0.100279 6.5668e-05 0)
(0.100315 1.77044e-06 0)
(0.100309 -7.70894e-05 0)
(0.100256 -0.000145067 0)
(0.100166 -0.000177504 0)
(0.100072 -0.000166911 0)
(0.100003 -0.000134934 0)
(0.0999793 -0.00010303 0)
(0.0999768 -9.37177e-05 0)
(0.0999895 -9.44838e-05 0)
(0.0999776 -0.000110811 0)
(0.100005 6.95125e-06 0)
(0.10001 2.10262e-05 0)
(0.100019 3.54582e-05 0)
(0.100033 5.0156e-05 0)
(0.100053 6.43737e-05 0)
(0.100079 7.65138e-05 0)
(0.100111 8.37567e-05 0)
(0.100148 8.26394e-05 0)
(0.100186 6.91692e-05 0)
(0.100218 4.06161e-05 0)
(0.100235 -4.71979e-06 0)
(0.100228 -5.76778e-05 0)
(0.100195 -0.000103614 0)
(0.100139 -0.000128168 0)
(0.100077 -0.00012299 0)
(0.100023 -9.94718e-05 0)
(0.0999952 -7.02415e-05 0)
(0.0999764 -5.56753e-05 0)
(0.099977 -4.86586e-05 0)
(0.099957 -5.9788e-05 0)
(0.100007 5.0457e-06 0)
(0.100012 1.50549e-05 0)
(0.100021 2.47652e-05 0)
(0.100035 3.39001e-05 0)
(0.100053 4.2102e-05 0)
(0.100076 4.82226e-05 0)
(0.100103 5.07828e-05 0)
(0.100131 4.73282e-05 0)
(0.100159 3.61839e-05 0)
(0.100182 1.56208e-05 0)
(0.100193 -1.16654e-05 0)
(0.100186 -4.21187e-05 0)
(0.100162 -6.81301e-05 0)
(0.100122 -8.4166e-05 0)
(0.100078 -8.49431e-05 0)
(0.100032 -7.7042e-05 0)
(0.100001 -6.38074e-05 0)
(0.0999728 -5.96475e-05 0)
(0.099965 -5.60523e-05 0)
(0.0999397 -6.84122e-05 0)
(0.100009 3.44277e-06 0)
(0.100013 1.05338e-05 0)
(0.100021 1.75488e-05 0)
(0.100034 2.4195e-05 0)
(0.100051 3.01485e-05 0)
(0.100071 3.48594e-05 0)
(0.100094 3.74248e-05 0)
(0.100117 3.68416e-05 0)
(0.100138 3.20042e-05 0)
(0.100153 2.24518e-05 0)
(0.10016 8.64522e-06 0)
(0.100155 -7.02112e-06 0)
(0.100137 -2.05534e-05 0)
(0.100105 -2.96217e-05 0)
(0.100068 -3.11086e-05 0)
(0.100027 -2.81186e-05 0)
(0.0999973 -2.02801e-05 0)
(0.0999659 -1.68569e-05 0)
(0.0999542 -1.17732e-05 0)
(0.0999258 -1.97787e-05 0)
(0.10001 -4.21082e-07 0)
(0.100015 -9.6776e-07 0)
(0.100023 -1.25305e-06 0)
(0.100036 -1.46778e-06 0)
(0.100053 -1.74745e-06 0)
(0.100072 -2.34416e-06 0)
(0.100094 -3.43395e-06 0)
(0.100115 -5.37683e-06 0)
(0.100134 -8.18706e-06 0)
(0.100147 -1.22126e-05 0)
(0.100152 -1.69898e-05 0)
(0.100145 -2.31294e-05 0)
(0.100129 -2.90255e-05 0)
(0.1001 -3.40757e-05 0)
(0.100069 -3.59077e-05 0)
(0.10003 -3.67698e-05 0)
(0.100004 -3.42467e-05 0)
(0.0999671 -3.52851e-05 0)
(0.0999558 -3.27606e-05 0)
(0.0999144 -4.10378e-05 0)
)
;

boundaryField
{
    sides
    {
        type            calculated;
        value           nonuniform List<vector> 
40
(
(0.10001 0 0)
(0.100015 0 0)
(0.100023 0 0)
(0.100036 0 0)
(0.100053 0 0)
(0.100072 0 0)
(0.100094 0 0)
(0.100115 0 0)
(0.100134 0 0)
(0.100147 0 0)
(0.100152 0 0)
(0.100145 0 0)
(0.100129 0 0)
(0.1001 0 0)
(0.100069 0 0)
(0.10003 0 0)
(0.100004 0 0)
(0.0999671 0 0)
(0.0999558 0 0)
(0.0999144 0 0)
(0.0999965 0 0)
(0.100001 0 0)
(0.10001 0 0)
(0.100023 0 0)
(0.10004 0 0)
(0.100061 0 0)
(0.100083 0 0)
(0.100107 0 0)
(0.100128 0 0)
(0.100144 0 0)
(0.100153 0 0)
(0.100152 0 0)
(0.10014 0 0)
(0.10012 0 0)
(0.100093 0 0)
(0.100068 0 0)
(0.100045 0 0)
(0.100034 0 0)
(0.100025 0 0)
(0.100033 0 0)
)
;
    }
    inlet
    {
        type            calculated;
        value           nonuniform List<vector> 
20
(
(0.0999963 0 0)
(0.0999968 0 0)
(0.0999967 0 0)
(0.0999961 0 0)
(0.0999951 0 0)
(0.0999938 0 0)
(0.0999923 0 0)
(0.0999909 0 0)
(0.09999 0 0)
(0.0999899 0 0)
(0.0999906 0 0)
(0.099992 0 0)
(0.0999943 0 0)
(0.0999971 0 0)
(0.0999999 0 0)
(0.100003 0 0)
(0.100005 0 0)
(0.100007 0 0)
(0.100009 0 0)
(0.10001 0 0)
)
;
    }
    outlet
    {
        type            calculated;
        value           nonuniform List<vector> 
20
(
(0.100033 -2.68399e-05 0)
(0.100029 8.1097e-06 0)
(0.10003 -1.17383e-05 0)
(0.100035 -2.19854e-08 0)
(0.100043 1.67396e-05 0)
(0.100055 4.97956e-06 0)
(0.100066 5.33915e-05 0)
(0.100085 1.02768e-05 0)
(0.100054 2.43622e-05 0)
(0.0998504 -1.8513e-05 0)
(0.0998454 -8.89012e-05 0)
(0.100037 -0.000125108 0)
(0.100055 -0.000107409 0)
(0.100024 -0.000151547 0)
(0.100001 -8.48298e-05 0)
(0.0999769 -0.00011081 0)
(0.0999562 -5.97876e-05 0)
(0.0999388 -6.84116e-05 0)
(0.0999249 -1.97785e-05 0)
(0.099913 -4.10373e-05 0)
)
;
    }
    frontAndBack
    {
        type            empty;
    }
}


// ************************************************************************* //
