/*--------------------------------*- C++ -*----------------------------------*\
  =========                 |
  \\      /  F ield         | OpenFOAM: The Open Source CFD Toolbox
   \\    /   O peration     | Website:  https://openfoam.org
    \\  /    A nd           | Version:  9
     \\/     M anipulation  |
\*---------------------------------------------------------------------------*/
FoamFile
{
    format      ascii;
    class       volVectorField;
    location    "220";
    object      D;
}
// * * * * * * * * * * * * * * * * * * * * * * * * * * * * * * * * * * * * * //

dimensions      [0 1 0 0 0 0 0];

internalField   nonuniform List<vector> 
1000
(
(5.92487e-08 -2.62288e-08 0)
(5.55705e-08 -2.36228e-08 0)
(5.33157e-08 -2.19754e-08 0)
(5.19986e-08 -2.09357e-08 0)
(5.13283e-08 -2.02995e-08 0)
(5.11187e-08 -1.99391e-08 0)
(5.12448e-08 -1.97709e-08 0)
(5.16194e-08 -1.97377e-08 0)
(5.2181e-08 -1.98007e-08 0)
(5.28926e-08 -1.99349e-08 0)
(5.3661e-08 -2.85081e-08 0)
(4.97784e-08 -2.63942e-08 0)
(4.73984e-08 -2.50439e-08 0)
(4.59966e-08 -2.41863e-08 0)
(4.52613e-08 -2.36625e-08 0)
(4.49947e-08 -2.33719e-08 0)
(4.50655e-08 -2.32473e-08 0)
(4.53838e-08 -2.32424e-08 0)
(4.58879e-08 -2.3325e-08 0)
(4.65404e-08 -2.34728e-08 0)
(4.78308e-08 -3.0651e-08 0)
(4.38905e-08 -2.90984e-08 0)
(4.14757e-08 -2.80885e-08 0)
(4.00451e-08 -2.74403e-08 0)
(3.92788e-08 -2.70462e-08 0)
(3.89753e-08 -2.68363e-08 0)
(3.90019e-08 -2.67623e-08 0)
(3.92686e-08 -2.679e-08 0)
(3.97133e-08 -2.68946e-08 0)
(4.02965e-08 -2.70584e-08 0)
(4.17999e-08 -3.26239e-08 0)
(3.79589e-08 -3.16683e-08 0)
(3.56057e-08 -3.10211e-08 0)
(3.42057e-08 -3.05969e-08 0)
(3.34446e-08 -3.03421e-08 0)
(3.31252e-08 -3.02193e-08 0)
(3.31186e-08 -3.02003e-08 0)
(3.33372e-08 -3.02637e-08 0)
(3.37207e-08 -3.0393e-08 0)
(3.42302e-08 -3.05754e-08 0)
(3.56066e-08 -3.43929e-08 0)
(3.20239e-08 -3.40347e-08 0)
(2.98295e-08 -3.37511e-08 0)
(2.85201e-08 -3.35518e-08 0)
(2.78003e-08 -3.34375e-08 0)
(2.7486e-08 -3.34029e-08 0)
(2.74568e-08 -3.34402e-08 0)
(2.76313e-08 -3.35405e-08 0)
(2.79535e-08 -3.36956e-08 0)
(2.83869e-08 -3.38979e-08 0)
(2.92851e-08 -3.59252e-08 0)
(2.61131e-08 -3.61295e-08 0)
(2.41708e-08 -3.61889e-08 0)
(2.30089e-08 -3.62023e-08 0)
(2.23649e-08 -3.62212e-08 0)
(2.20755e-08 -3.62707e-08 0)
(2.20343e-08 -3.63618e-08 0)
(2.21692e-08 -3.64978e-08 0)
(2.24308e-08 -3.66782e-08 0)
(2.27869e-08 -3.69003e-08 0)
(2.28655e-08 -3.71897e-08 0)
(2.02426e-08 -3.78893e-08 0)
(1.86359e-08 -3.8251e-08 0)
(1.76727e-08 -3.84523e-08 0)
(1.71355e-08 -3.85892e-08 0)
(1.68892e-08 -3.87135e-08 0)
(1.68457e-08 -3.88527e-08 0)
(1.69454e-08 -3.90208e-08 0)
(1.71475e-08 -3.92242e-08 0)
(1.74255e-08 -3.94648e-08 0)
(1.63748e-08 -3.81581e-08 0)
(1.44169e-08 -3.92575e-08 0)
(1.32157e-08 -3.98635e-08 0)
(1.24939e-08 -4.02171e-08 0)
(1.20896e-08 -4.04496e-08 0)
(1.19017e-08 -4.06344e-08 0)
(1.18642e-08 -4.08128e-08 0)
(1.19326e-08 -4.10073e-08 0)
(1.20765e-08 -4.12298e-08 0)
(1.22761e-08 -4.1486e-08 0)
(9.83768e-09 -3.88052e-08 0)
(8.63127e-09 -4.01856e-08 0)
(7.88743e-09 -4.09638e-08 0)
(7.43968e-09 -4.14239e-08 0)
(7.18837e-09 -4.17231e-08 0)
(7.07065e-09 -4.19501e-08 0)
(7.04556e-09 -4.21557e-08 0)
(7.08558e-09 -4.23687e-08 0)
(7.17201e-09 -4.26051e-08 0)
(7.29266e-09 -4.28731e-08 0)
(3.27922e-09 -3.91089e-08 0)
(2.87406e-09 -4.06292e-08 0)
(2.6198e-09 -4.14905e-08 0)
(2.46674e-09 -4.20009e-08 0)
(2.38086e-09 -4.23311e-08 0)
(2.34045e-09 -4.25777e-08 0)
(2.33143e-09 -4.27962e-08 0)
(2.3445e-09 -4.30181e-08 0)
(2.3734e-09 -4.32615e-08 0)
(2.41422e-09 -4.35364e-08 0)
(9.13927e-08 -1.21302e-09 0)
(9.19259e-08 -8.67606e-10 0)
(9.22579e-08 -6.356e-10 0)
(9.25935e-08 -4.8983e-10 0)
(9.30316e-08 -4.0104e-10 0)
(9.36153e-08 -3.49303e-10 0)
(9.43589e-08 -3.21886e-10 0)
(9.52624e-08 -3.10526e-10 0)
(9.63186e-08 -3.09794e-10 0)
(9.75175e-08 -3.16187e-10 0)
(9.08055e-08 -3.69778e-09 0)
(9.11973e-08 -2.62034e-09 0)
(9.14417e-08 -1.94429e-09 0)
(9.17236e-08 -1.52115e-09 0)
(9.21269e-08 -1.26205e-09 0)
(9.26862e-08 -1.11065e-09 0)
(9.34112e-08 -1.03044e-09 0)
(9.4299e-08 -9.97275e-10 0)
(9.53404e-08 -9.94818e-10 0)
(9.65236e-08 -1.0118e-09 0)
(8.95168e-08 -6.204e-09 0)
(8.96375e-08 -4.4402e-09 0)
(8.97133e-08 -3.34878e-09 0)
(8.98879e-08 -2.66882e-09 0)
(9.02206e-08 -2.25241e-09 0)
(9.07312e-08 -2.00889e-09 0)
(9.14198e-08 -1.87993e-09 0)
(9.22777e-08 -1.8268e-09 0)
(9.32917e-08 -1.82302e-09 0)
(9.44473e-08 -1.85026e-09 0)
(8.75745e-08 -8.72502e-09 0)
(8.73119e-08 -6.3644e-09 0)
(8.71521e-08 -4.90741e-09 0)
(8.71761e-08 -4.00176e-09 0)
(8.74092e-08 -3.44773e-09 0)
(8.78504e-08 -3.12403e-09 0)
(8.84872e-08 -2.95313e-09 0)
(8.93025e-08 -2.88356e-09 0)
(9.0278e-08 -2.88013e-09 0)
(9.13954e-08 -2.91848e-09 0)
(8.50191e-08 -1.12587e-08 0)
(8.42829e-08 -8.42011e-09 0)
(8.38328e-08 -6.66652e-09 0)
(8.3672e-08 -5.57673e-09 0)
(8.37827e-08 -4.91054e-09 0)
(8.41383e-08 -4.52199e-09 0)
(8.47108e-08 -4.31797e-09 0)
(8.54733e-08 -4.23673e-09 0)
(8.6401e-08 -4.23604e-09 0)
(8.74712e-08 -4.28675e-09 0)
(8.18907e-08 -1.38015e-08 0)
(8.06192e-08 -1.06243e-08 0)
(7.98412e-08 -8.65751e-09 0)
(7.94719e-08 -7.434e-09 0)
(7.94442e-08 -6.68612e-09 0)
(7.97029e-08 -6.2508e-09 0)
(8.02023e-08 -6.02392e-09 0)
(8.09043e-08 -5.93648e-09 0)
(8.1777e-08 -5.9412e-09 0)
(8.27928e-08 -6.00552e-09 0)
(7.82321e-08 -1.6346e-08 0)
(7.63972e-08 -1.29824e-08 0)
(7.52736e-08 -1.0895e-08 0)
(7.46843e-08 -9.59424e-09 0)
(7.45103e-08 -8.79879e-09 0)
(7.46661e-08 -8.33678e-09 0)
(7.50872e-08 -8.09824e-09 0)
(7.57237e-08 -8.01024e-09 0)
(7.65365e-08 -8.02287e-09 0)
(7.74929e-08 -8.10178e-09 0)
(7.40895e-08 -1.88802e-08 0)
(7.16982e-08 -1.54877e-08 0)
(7.02331e-08 -1.33759e-08 0)
(6.94258e-08 -1.2057e-08 0)
(6.91063e-08 -1.125e-08 0)
(6.91586e-08 -1.07824e-08 0)
(6.94999e-08 -1.05438e-08 0)
(7.0069e-08 -1.04607e-08 0)
(7.08195e-08 -1.04829e-08 0)
(7.17137e-08 -1.05766e-08 0)
(6.95116e-08 -2.13872e-08 0)
(6.6606e-08 -1.812e-08 0)
(6.48252e-08 -1.60786e-08 0)
(6.38157e-08 -1.48002e-08 0)
(6.33598e-08 -1.40175e-08 0)
(6.33136e-08 -1.35658e-08 0)
(6.35774e-08 -1.33389e-08 0)
(6.40797e-08 -1.32659e-08 0)
(6.47677e-08 -1.32983e-08 0)
(6.55999e-08 -1.34048e-08 0)
(6.45482e-08 -2.38454e-08 0)
(6.12038e-08 -2.08465e-08 0)
(5.91537e-08 -1.89637e-08 0)
(5.79704e-08 -1.77806e-08 0)
(5.73952e-08 -1.70562e-08 0)
(5.72604e-08 -1.6641e-08 0)
(5.74518e-08 -1.64378e-08 0)
(5.78893e-08 -1.6381e-08 0)
(5.85154e-08 -1.6425e-08 0)
(5.92881e-08 -1.65395e-08 0)
(9.88474e-08 -3.18932e-10 0)
(1.00306e-07 -3.12406e-10 0)
(1.01869e-07 -3.06127e-10 0)
(1.03527e-07 -2.99394e-10 0)
(1.05271e-07 -2.91534e-10 0)
(1.07091e-07 -2.81994e-10 0)
(1.0898e-07 -2.70339e-10 0)
(1.10931e-07 -2.56218e-10 0)
(1.12937e-07 -2.39323e-10 0)
(1.14992e-07 -2.19359e-10 0)
(1.17089e-07 -1.96016e-10 0)
(1.19223e-07 -1.68949e-10 0)
(1.21387e-07 -1.37758e-10 0)
(1.23576e-07 -1.01971e-10 0)
(1.25784e-07 -6.10221e-11 0)
(1.28004e-07 -1.42388e-11 0)
(1.30228e-07 3.91281e-11 0)
(1.32449e-07 9.96332e-11 0)
(1.34659e-07 1.66417e-10 0)
(1.36848e-07 2.33406e-10 0)
(9.7892e-08 -1.01171e-09 0)
(9.94336e-08 -9.82185e-10 0)
(1.01068e-07 -9.56428e-10 0)
(1.02788e-07 -9.31104e-10 0)
(1.04585e-07 -9.0355e-10 0)
(1.06454e-07 -8.7179e-10 0)
(1.08386e-07 -8.34332e-10 0)
(1.10376e-07 -7.89996e-10 0)
(1.12417e-07 -7.37765e-10 0)
(1.14504e-07 -6.7668e-10 0)
(1.16631e-07 -6.05754e-10 0)
(1.18793e-07 -5.23909e-10 0)
(1.20983e-07 -4.29913e-10 0)
(1.23197e-07 -3.22332e-10 0)
(1.25429e-07 -1.99479e-10 0)
(1.27671e-07 -5.93972e-11 0)
(1.29918e-07 1.00103e-10 0)
(1.32163e-07 2.813e-10 0)
(1.34396e-07 4.86545e-10 0)
(1.36607e-07 7.197e-10 0)
(9.58974e-08 -1.8354e-09 0)
(9.76102e-08 -1.76351e-09 0)
(9.93933e-08 -1.70219e-09 0)
(1.01243e-07 -1.64523e-09 0)
(1.03155e-07 -1.58751e-09 0)
(1.05125e-07 -1.52512e-09 0)
(1.07147e-07 -1.45511e-09 0)
(1.09218e-07 -1.37517e-09 0)
(1.11334e-07 -1.28331e-09 0)
(1.13488e-07 -1.17773e-09 0)
(1.15677e-07 -1.05659e-09 0)
(1.17896e-07 -9.17986e-10 0)
(1.2014e-07 -7.59742e-10 0)
(1.22405e-07 -5.79387e-10 0)
(1.24684e-07 -3.74048e-10 0)
(1.26973e-07 -1.40372e-10 0)
(1.29264e-07 1.25557e-10 0)
(1.31552e-07 4.28451e-10 0)
(1.33827e-07 7.74617e-10 0)
(1.36079e-07 1.17452e-09 0)
(9.2963e-08 -2.87169e-09 0)
(9.49222e-08 -2.72756e-09 0)
(9.69209e-08 -2.60543e-09 0)
(9.89603e-08 -2.4959e-09 0)
(1.0104e-07 -2.39084e-09 0)
(1.03158e-07 -2.28384e-09 0)
(1.05315e-07 -2.16998e-09 0)
(1.07506e-07 -2.04531e-09 0)
(1.0973e-07 -1.90653e-09 0)
(1.11984e-07 -1.75066e-09 0)
(1.14264e-07 -1.57479e-09 0)
(1.16568e-07 -1.37595e-09 0)
(1.18891e-07 -1.15086e-09 0)
(1.2123e-07 -8.95878e-10 0)
(1.2358e-07 -6.06773e-10 0)
(1.25935e-07 -2.78612e-10 0)
(1.28292e-07 9.44957e-11 0)
(1.30642e-07 5.1983e-10 0)
(1.32978e-07 1.00711e-09 0)
(1.3529e-07 1.57135e-09 0)
(8.91854e-08 -4.18636e-09 0)
(9.14532e-08 -3.93214e-09 0)
(9.37243e-08 -3.71692e-09 0)
(9.60046e-08 -3.52778e-09 0)
(9.82984e-08 -3.35295e-09 0)
(1.00608e-07 -3.18293e-09 0)
(1.02936e-07 -3.01017e-09 0)
(1.05283e-07 -2.82859e-09 0)
(1.07647e-07 -2.63307e-09 0)
(1.1003e-07 -2.41908e-09 0)
(1.12429e-07 -2.18233e-09 0)
(1.14842e-07 -1.91849e-09 0)
(1.17268e-07 -1.62299e-09 0)
(1.19702e-07 -1.29078e-09 0)
(1.22143e-07 -9.16123e-10 0)
(1.24585e-07 -4.92325e-10 0)
(1.27024e-07 -1.14186e-11 0)
(1.29455e-07 5.36391e-10 0)
(1.31869e-07 1.1639e-09 0)
(1.3426e-07 1.89022e-09 0)
(8.46746e-08 -5.82727e-09 0)
(8.72982e-08 -5.42039e-09 0)
(8.98866e-08 -5.07526e-09 0)
(9.245e-08 -4.77528e-09 0)
(9.49971e-08 -4.50452e-09 0)
(9.75345e-08 -4.24974e-09 0)
(1.00067e-07 -4.0002e-09 0)
(1.02599e-07 -3.74711e-09 0)
(1.05133e-07 -3.48304e-09 0)
(1.07671e-07 -3.20147e-09 0)
(1.10212e-07 -2.89633e-09 0)
(1.12757e-07 -2.5617e-09 0)
(1.15306e-07 -2.19143e-09 0)
(1.17856e-07 -1.77886e-09 0)
(1.20406e-07 -1.31657e-09 0)
(1.22952e-07 -7.95973e-10 0)
(1.2549e-07 -2.06957e-10 0)
(1.28017e-07 4.62771e-10 0)
(1.30526e-07 1.22902e-09 0)
(1.33011e-07 2.11498e-09 0)
(7.95542e-08 -7.82128e-09 0)
(8.25641e-08 -7.21858e-09 0)
(8.55014e-08 -6.70526e-09 0)
(8.83793e-08 -6.26134e-09 0)
(9.12101e-08 -5.86646e-09 0)
(9.4004e-08 -5.50323e-09 0)
(9.67694e-08 -5.1572e-09 0)
(9.95129e-08 -4.81636e-09 0)
(1.0224e-07 -4.47051e-09 0)
(1.04955e-07 -4.11069e-09 0)
(1.07659e-07 -3.72873e-09 0)
(1.10356e-07 -3.31674e-09 0)
(1.13046e-07 -2.86676e-09 0)
(1.15728e-07 -2.37033e-09 0)
(1.18403e-07 -1.81817e-09 0)
(1.21067e-07 -1.1997e-09 0)
(1.2372e-07 -5.02604e-10 0)
(1.26357e-07 2.87952e-10 0)
(1.28974e-07 1.19079e-09 0)
(1.31566e-07 2.23316e-09 0)
(7.39571e-08 -1.01721e-08 0)
(7.73658e-08 -9.33434e-09 0)
(8.06695e-08 -8.61664e-09 0)
(8.38818e-08 -7.99646e-09 0)
(8.70176e-08 -7.44922e-09 0)
(9.00896e-08 -6.95334e-09 0)
(9.31087e-08 -6.49042e-09 0)
(9.60842e-08 -6.04485e-09 0)
(9.90241e-08 -5.60326e-09 0)
(1.01934e-07 -5.15388e-09 0)
(1.0482e-07 -4.68607e-09 0)
(1.07685e-07 -4.1897e-09 0)
(1.10531e-07 -3.65473e-09 0)
(1.1336e-07 -3.07074e-09 0)
(1.16172e-07 -2.42643e-09 0)
(1.18968e-07 -1.70916e-09 0)
(1.21746e-07 -9.04347e-10 0)
(1.24505e-07 5.36741e-12 0)
(1.27241e-07 1.04182e-09 0)
(1.29953e-07 2.23617e-09 0)
(6.80211e-08 -1.28598e-08 0)
(7.18251e-08 -1.1756e-08 0)
(7.54985e-08 -1.08034e-08 0)
(7.90534e-08 -9.97814e-09 0)
(8.25054e-08 -9.25234e-09 0)
(8.58685e-08 -8.60074e-09 0)
(8.91555e-08 -8.00107e-09 0)
(9.23777e-08 -7.434e-09 0)
(9.55447e-08 -6.88273e-09 0)
(9.86649e-08 -6.33241e-09 0)
(1.01745e-07 -5.76961e-09 0)
(1.0479e-07 -5.18172e-09 0)
(1.07805e-07 -4.55642e-09 0)
(1.10791e-07 -3.88112e-09 0)
(1.13753e-07 -3.14244e-09 0)
(1.1669e-07 -2.32561e-09 0)
(1.19603e-07 -1.41384e-09 0)
(1.22492e-07 -3.87279e-10 0)
(1.25357e-07 7.78808e-10 0)
(1.28196e-07 2.11934e-09 0)
(6.18913e-08 -1.58396e-08 0)
(6.60756e-08 -1.44491e-08 0)
(7.01087e-08 -1.32393e-08 0)
(7.40018e-08 -1.21859e-08 0)
(7.77699e-08 -1.12596e-08 0)
(8.14275e-08 -1.04324e-08 0)
(8.4988e-08 -9.67845e-09 0)
(8.84638e-08 -8.97489e-09 0)
(9.1866e-08 -8.30136e-09 0)
(9.52044e-08 -7.63975e-09 0)
(9.84873e-08 -6.97366e-09 0)
(1.01722e-07 -6.28778e-09 0)
(1.04913e-07 -5.56733e-09 0)
(1.08066e-07 -4.79744e-09 0)
(1.11183e-07 -3.96258e-09 0)
(1.14269e-07 -3.04587e-09 0)
(1.17324e-07 -2.02838e-09 0)
(1.20351e-07 -8.88068e-10 0)
(1.2335e-07 4.02411e-10 0)
(1.26324e-07 1.88162e-09 0)
(5.73907e-08 -1.85076e-08 0)
(6.18012e-08 -1.6903e-08 0)
(6.60453e-08 -1.55033e-08 0)
(7.01427e-08 -1.42742e-08 0)
(7.41072e-08 -1.31847e-08 0)
(7.79519e-08 -1.22064e-08 0)
(8.1689e-08 -1.13131e-08 0)
(8.53304e-08 -1.0481e-08 0)
(8.8887e-08 -9.68856e-09 0)
(9.23685e-08 -8.91623e-09 0)
(9.57836e-08 -8.14612e-09 0)
(9.914e-08 -7.36144e-09 0)
(1.02444e-07 -6.54599e-09 0)
(1.05701e-07 -5.68356e-09 0)
(1.08915e-07 -4.75741e-09 0)
(1.12091e-07 -3.74958e-09 0)
(1.15231e-07 -2.64024e-09 0)
(1.18339e-07 -1.40661e-09 0)
(1.21418e-07 -2.08628e-11 0)
(1.24473e-07 1.55593e-09 0)
(5.47915e-08 -2.05686e-08 0)
(5.92139e-08 -1.88995e-08 0)
(6.34969e-08 -1.74089e-08 0)
(6.76466e-08 -1.6079e-08 0)
(7.16711e-08 -1.48836e-08 0)
(7.55794e-08 -1.37972e-08 0)
(7.93812e-08 -1.27959e-08 0)
(8.30858e-08 -1.18576e-08 0)
(8.67026e-08 -1.09618e-08 0)
(9.02402e-08 -1.00895e-08 0)
(9.37067e-08 -9.22328e-09 0)
(9.71092e-08 -8.34616e-09 0)
(1.00454e-07 -7.44187e-09 0)
(1.03747e-07 -6.49409e-09 0)
(1.06993e-07 -5.486e-09 0)
(1.10196e-07 -4.3998e-09 0)
(1.13361e-07 -3.21603e-09 0)
(1.16492e-07 -1.91267e-09 0)
(1.19595e-07 -4.63306e-10 0)
(1.22675e-07 1.1683e-09 0)
(5.24777e-08 -2.25275e-08 0)
(5.68659e-08 -2.08252e-08 0)
(6.11439e-08 -1.92715e-08 0)
(6.53082e-08 -1.78605e-08 0)
(6.93599e-08 -1.6574e-08 0)
(7.33035e-08 -1.5391e-08 0)
(7.71451e-08 -1.42907e-08 0)
(8.08918e-08 -1.32531e-08 0)
(8.45509e-08 -1.22593e-08 0)
(8.81295e-08 -1.12915e-08 0)
(9.16347e-08 -1.03324e-08 0)
(9.50729e-08 -9.36586e-09 0)
(9.84504e-08 -8.37568e-09 0)
(1.01773e-07 -7.34578e-09 0)
(1.05045e-07 -6.25965e-09 0)
(1.08272e-07 -5.09993e-09 0)
(1.11459e-07 -3.84793e-09 0)
(1.14612e-07 -2.48283e-09 0)
(1.17736e-07 -9.80102e-10 0)
(1.20839e-07 6.93362e-10 0)
(5.04203e-08 -2.43877e-08 0)
(5.47494e-08 -2.26707e-08 0)
(5.89912e-08 -2.10751e-08 0)
(6.31388e-08 -1.96018e-08 0)
(6.71886e-08 -1.82395e-08 0)
(7.11411e-08 -1.69724e-08 0)
(7.49993e-08 -1.57832e-08 0)
(7.87674e-08 -1.46547e-08 0)
(8.24507e-08 -1.35697e-08 0)
(8.6055e-08 -1.25117e-08 0)
(8.95859e-08 -1.14646e-08 0)
(9.30492e-08 -1.04129e-08 0)
(9.64505e-08 -9.3409e-09 0)
(9.97951e-08 -8.23311e-09 0)
(1.03088e-07 -7.0736e-09 0)
(1.06335e-07 -5.84579e-09 0)
(1.09541e-07 -4.53204e-09 0)
(1.12713e-07 -3.11307e-09 0)
(1.15857e-07 -1.56656e-09 0)
(1.18982e-07 1.37223e-10 0)
(4.85853e-08 -2.615e-08 0)
(5.28387e-08 -2.44312e-08 0)
(5.70236e-08 -2.28095e-08 0)
(6.11313e-08 -2.12899e-08 0)
(6.51561e-08 -1.98664e-08 0)
(6.90956e-08 -1.85279e-08 0)
(7.295e-08 -1.72606e-08 0)
(7.67212e-08 -1.60503e-08 0)
(8.04126e-08 -1.48819e-08 0)
(8.40283e-08 -1.37405e-08 0)
(8.75728e-08 -1.26114e-08 0)
(9.10509e-08 -1.14798e-08 0)
(9.44675e-08 -1.03311e-08 0)
(9.78275e-08 -9.15048e-09 0)
(1.01136e-07 -7.92291e-09 0)
(1.04398e-07 -6.63283e-09 0)
(1.0762e-07 -5.26392e-09 0)
(1.10808e-07 -3.79863e-09 0)
(1.1397e-07 -2.2171e-09 0)
(1.17116e-07 -4.9316e-10 0)
(4.69398e-08 -2.78171e-08 0)
(5.11065e-08 -2.61058e-08 0)
(5.52202e-08 -2.44699e-08 0)
(5.92717e-08 -2.29171e-08 0)
(6.32542e-08 -2.14453e-08 0)
(6.71633e-08 -2.00472e-08 0)
(7.09972e-08 -1.87127e-08 0)
(7.47562e-08 -1.74301e-08 0)
(7.84417e-08 -1.61867e-08 0)
(8.20564e-08 -1.49695e-08 0)
(8.56036e-08 -1.3765e-08 0)
(8.90872e-08 -1.25597e-08 0)
(9.25112e-08 -1.13401e-08 0)
(9.58802e-08 -1.00923e-08 0)
(9.9199e-08 -8.80251e-09 0)
(1.02473e-07 -7.45623e-09 0)
(1.05707e-07 -6.03869e-09 0)
(1.08909e-07 -4.53425e-09 0)
(1.12087e-07 -2.92558e-09 0)
(1.1525e-07 -1.19019e-09 0)
(4.54531e-08 -2.93933e-08 0)
(4.95261e-08 -2.7696e-08 0)
(5.35593e-08 -2.60548e-08 0)
(5.75435e-08 -2.44792e-08 0)
(6.1471e-08 -2.297e-08 0)
(6.53366e-08 -2.15232e-08 0)
(6.91371e-08 -2.01317e-08 0)
(7.28713e-08 -1.87862e-08 0)
(7.65393e-08 -1.74765e-08 0)
(8.01425e-08 -1.61912e-08 0)
(8.36831e-08 -1.49186e-08 0)
(8.7164e-08 -1.36463e-08 0)
(9.05886e-08 -1.23622e-08 0)
(9.39609e-08 -1.10535e-08 0)
(9.72852e-08 -9.70744e-09 0)
(1.00567e-07 -8.31113e-09 0)
(1.03811e-07 -6.85132e-09 0)
(1.07024e-07 -5.31437e-09 0)
(1.10215e-07 -3.68551e-09 0)
(1.13393e-07 -1.94593e-09 0)
(4.40967e-08 -3.08843e-08 0)
(4.80726e-08 -2.92052e-08 0)
(5.20198e-08 -2.75652e-08 0)
(5.59292e-08 -2.59749e-08 0)
(5.97931e-08 -2.44375e-08 0)
(6.36057e-08 -2.29514e-08 0)
(6.7363e-08 -2.15122e-08 0)
(7.10627e-08 -2.01129e-08 0)
(7.47039e-08 -1.87454e-08 0)
(7.8287e-08 -1.74e-08 0)
(8.18132e-08 -1.60666e-08 0)
(8.52846e-08 -1.47344e-08 0)
(8.87039e-08 -1.33923e-08 0)
(9.20745e-08 -1.2029e-08 0)
(9.54002e-08 -1.0633e-08 0)
(9.86858e-08 -9.19275e-09 0)
(1.01937e-07 -7.69675e-09 0)
(1.05159e-07 -6.13334e-09 0)
(1.08361e-07 -4.49029e-09 0)
(1.11553e-07 -2.75234e-09 0)
(4.28451e-08 -3.22963e-08 0)
(4.6723e-08 -3.06377e-08 0)
(5.05814e-08 -2.90034e-08 0)
(5.44117e-08 -2.74048e-08 0)
(5.82063e-08 -2.58466e-08 0)
(6.19594e-08 -2.43294e-08 0)
(6.56664e-08 -2.28508e-08 0)
(6.93244e-08 -2.14061e-08 0)
(7.29318e-08 -1.99888e-08 0)
(7.64881e-08 -1.85912e-08 0)
(7.99937e-08 -1.72045e-08 0)
(8.34501e-08 -1.58194e-08 0)
(8.68592e-08 -1.44261e-08 0)
(9.02239e-08 -1.30146e-08 0)
(9.35476e-08 -1.15748e-08 0)
(9.68344e-08 -1.00966e-08 0)
(1.0009e-07 -8.57008e-09 0)
(1.03319e-07 -6.98563e-09 0)
(1.0653e-07 -5.33341e-09 0)
(1.09733e-07 -3.60153e-09 0)
(4.16755e-08 -3.36359e-08 0)
(4.54562e-08 -3.19987e-08 0)
(4.9225e-08 -3.03731e-08 0)
(5.29741e-08 -2.87708e-08 0)
(5.66962e-08 -2.71978e-08 0)
(6.03856e-08 -2.56564e-08 0)
(6.40376e-08 -2.41459e-08 0)
(6.76489e-08 -2.26634e-08 0)
(7.12174e-08 -2.1204e-08 0)
(7.4742e-08 -1.97615e-08 0)
(7.82224e-08 -1.83288e-08 0)
(8.16595e-08 -1.68977e-08 0)
(8.50546e-08 -1.54599e-08 0)
(8.841e-08 -1.40065e-08 0)
(9.17287e-08 -1.25289e-08 0)
(9.50144e-08 -1.10184e-08 0)
(9.82716e-08 -9.46664e-09 0)
(1.01506e-07 -7.86591e-09 0)
(1.04725e-07 -6.20863e-09 0)
(1.07936e-07 -4.48599e-09 0)
(4.05674e-08 -3.49095e-08 0)
(4.42528e-08 -3.32935e-08 0)
(4.79328e-08 -3.16783e-08 0)
(5.16002e-08 -3.00757e-08 0)
(5.52485e-08 -2.84927e-08 0)
(5.8872e-08 -2.69329e-08 0)
(6.24663e-08 -2.53969e-08 0)
(6.60278e-08 -2.38834e-08 0)
(6.9554e-08 -2.23889e-08 0)
(7.30435e-08 -2.09087e-08 0)
(7.64954e-08 -1.94368e-08 0)
(7.99101e-08 -1.79666e-08 0)
(8.32884e-08 -1.64906e-08 0)
(8.66321e-08 -1.50016e-08 0)
(8.99436e-08 -1.34919e-08 0)
(9.32261e-08 -1.19543e-08 0)
(9.64837e-08 -1.03821e-08 0)
(9.97215e-08 -8.76922e-09 0)
(1.02946e-07 -7.11008e-09 0)
(1.06164e-07 -5.39871e-09 0)
(3.95021e-08 -3.61233e-08 0)
(4.30949e-08 -3.45273e-08 0)
(4.66878e-08 -3.29233e-08 0)
(5.02745e-08 -3.13228e-08 0)
(5.38491e-08 -2.97336e-08 0)
(5.74063e-08 -2.81601e-08 0)
(6.09417e-08 -2.66044e-08 0)
(6.44519e-08 -2.5066e-08 0)
(6.7934e-08 -2.35429e-08 0)
(7.13863e-08 -2.20315e-08 0)
(7.48078e-08 -2.05271e-08 0)
(7.81981e-08 -1.9024e-08 0)
(8.15578e-08 -1.75162e-08 0)
(8.4888e-08 -1.59972e-08 0)
(8.81907e-08 -1.44608e-08 0)
(9.14685e-08 -1.29011e-08 0)
(9.47251e-08 -1.13127e-08 0)
(9.79647e-08 -9.69102e-09 0)
(1.01193e-07 -8.03243e-09 0)
(1.04417e-07 -6.33332e-09 0)
(3.84625e-08 -3.72827e-08 0)
(4.19657e-08 -3.57053e-08 0)
(4.54741e-08 -3.41125e-08 0)
(4.8982e-08 -3.25159e-08 0)
(5.24842e-08 -3.09234e-08 0)
(5.59758e-08 -2.93403e-08 0)
(5.94527e-08 -2.77696e-08 0)
(6.29114e-08 -2.62119e-08 0)
(6.63491e-08 -2.46661e-08 0)
(6.97636e-08 -2.31296e-08 0)
(7.31538e-08 -2.15987e-08 0)
(7.65189e-08 -2.00688e-08 0)
(7.98589e-08 -1.85348e-08 0)
(8.31746e-08 -1.69914e-08 0)
(8.64675e-08 -1.54334e-08 0)
(8.97396e-08 -1.38559e-08 0)
(9.2994e-08 -1.22549e-08 0)
(9.62344e-08 -1.06273e-08 0)
(9.94655e-08 -8.97089e-09 0)
(1.02693e-07 -7.2842e-09 0)
(3.74322e-08 -3.83929e-08 0)
(4.08492e-08 -3.68323e-08 0)
(4.42762e-08 -3.52505e-08 0)
(4.77081e-08 -3.36587e-08 0)
(5.11403e-08 -3.20653e-08 0)
(5.45684e-08 -3.04761e-08 0)
(5.79883e-08 -2.88947e-08 0)
(6.13967e-08 -2.73226e-08 0)
(6.47906e-08 -2.57593e-08 0)
(6.8168e-08 -2.42033e-08 0)
(7.1527e-08 -2.26515e-08 0)
(7.48668e-08 -2.11004e-08 0)
(7.81871e-08 -1.95456e-08 0)
(8.1488e-08 -1.79827e-08 0)
(8.47706e-08 -1.64076e-08 0)
(8.80365e-08 -1.48163e-08 0)
(9.1288e-08 -1.3206e-08 0)
(9.45282e-08 -1.15745e-08 0)
(9.77611e-08 -9.92131e-09 0)
(1.00992e-07 -8.24646e-09 0)
(3.63952e-08 -3.94582e-08 0)
(3.97298e-08 -3.79127e-08 0)
(4.30789e-08 -3.63414e-08 0)
(4.64385e-08 -3.47553e-08 0)
(4.9804e-08 -3.3163e-08 0)
(5.31716e-08 -3.15707e-08 0)
(5.65373e-08 -2.99823e-08 0)
(5.98978e-08 -2.84e-08 0)
(6.325e-08 -2.68241e-08 0)
(6.65917e-08 -2.52536e-08 0)
(6.99209e-08 -2.36861e-08 0)
(7.32364e-08 -2.21188e-08 0)
(7.65374e-08 -2.05481e-08 0)
(7.98238e-08 -1.89704e-08 0)
(8.30962e-08 -1.73822e-08 0)
(8.63555e-08 -1.57805e-08 0)
(8.96037e-08 -1.41634e-08 0)
(9.28431e-08 -1.25299e-08 0)
(9.6077e-08 -1.08802e-08 0)
(9.93091e-08 -9.21603e-09 0)
(3.53356e-08 -4.04828e-08 0)
(3.85915e-08 -3.8951e-08 0)
(4.18673e-08 -3.73898e-08 0)
(4.51588e-08 -3.58101e-08 0)
(4.84622e-08 -3.42205e-08 0)
(5.17735e-08 -3.26275e-08 0)
(5.50889e-08 -3.10355e-08 0)
(5.8405e-08 -2.94469e-08 0)
(6.17188e-08 -2.78627e-08 0)
(6.50275e-08 -2.62821e-08 0)
(6.8329e-08 -2.47036e-08 0)
(7.16218e-08 -2.31247e-08 0)
(7.49048e-08 -2.15425e-08 0)
(7.81775e-08 -1.99539e-08 0)
(8.14401e-08 -1.83562e-08 0)
(8.46931e-08 -1.67472e-08 0)
(8.79377e-08 -1.51254e-08 0)
(9.11759e-08 -1.34908e-08 0)
(9.44099e-08 -1.18447e-08 0)
(9.76429e-08 -1.01896e-08 0)
(3.42363e-08 -4.14705e-08 0)
(3.74182e-08 -3.99512e-08 0)
(4.06256e-08 -3.83999e-08 0)
(4.38546e-08 -3.68274e-08 0)
(4.71014e-08 -3.52422e-08 0)
(5.0362e-08 -3.36509e-08 0)
(5.36325e-08 -3.20581e-08 0)
(5.69091e-08 -3.04667e-08 0)
(6.01887e-08 -2.88778e-08 0)
(6.34681e-08 -2.72912e-08 0)
(6.67451e-08 -2.57057e-08 0)
(7.00177e-08 -2.41192e-08 0)
(7.32845e-08 -2.25293e-08 0)
(7.65448e-08 -2.09334e-08 0)
(7.97982e-08 -1.93293e-08 0)
(8.30451e-08 -1.77152e-08 0)
(8.62862e-08 -1.60905e-08 0)
(8.95227e-08 -1.44556e-08 0)
(9.27565e-08 -1.28125e-08 0)
(9.59897e-08 -1.11645e-08 0)
(3.30792e-08 -4.24252e-08 0)
(3.61924e-08 -4.09179e-08 0)
(3.93376e-08 -3.93768e-08 0)
(4.2511e-08 -3.78124e-08 0)
(4.57083e-08 -3.62331e-08 0)
(4.89253e-08 -3.46457e-08 0)
(5.21576e-08 -3.30548e-08 0)
(5.54012e-08 -3.14634e-08 0)
(5.86523e-08 -2.98731e-08 0)
(6.19074e-08 -2.82838e-08 0)
(6.51639e-08 -2.66947e-08 0)
(6.84195e-08 -2.5104e-08 0)
(7.16724e-08 -2.35096e-08 0)
(7.49218e-08 -2.19093e-08 0)
(7.81669e-08 -2.03012e-08 0)
(8.14079e-08 -1.86841e-08 0)
(8.46453e-08 -1.70576e-08 0)
(8.78799e-08 -1.54228e-08 0)
(9.11128e-08 -1.37819e-08 0)
(9.43457e-08 -1.21388e-08 0)
(3.18428e-08 -4.33508e-08 0)
(3.48941e-08 -4.1856e-08 0)
(3.79852e-08 -4.0326e-08 0)
(4.11117e-08 -3.8771e-08 0)
(4.42688e-08 -3.71993e-08 0)
(4.74514e-08 -3.56177e-08 0)
(5.06544e-08 -3.40309e-08 0)
(5.38731e-08 -3.24421e-08 0)
(5.7103e-08 -3.08528e-08 0)
(6.03402e-08 -2.92635e-08 0)
(6.35812e-08 -2.76734e-08 0)
(6.68236e-08 -2.6081e-08 0)
(7.00654e-08 -2.44846e-08 0)
(7.33053e-08 -2.28821e-08 0)
(7.65429e-08 -2.1272e-08 0)
(7.97781e-08 -1.96533e-08 0)
(8.30113e-08 -1.80259e-08 0)
(8.62434e-08 -1.63912e-08 0)
(8.9475e-08 -1.47518e-08 0)
(9.27072e-08 -1.31116e-08 0)
(3.04998e-08 -4.42525e-08 0)
(3.34983e-08 -4.27718e-08 0)
(3.65461e-08 -4.12546e-08 0)
(3.96375e-08 -3.97107e-08 0)
(4.27665e-08 -3.81485e-08 0)
(4.59268e-08 -3.65744e-08 0)
(4.91122e-08 -3.49935e-08 0)
(5.23168e-08 -3.3409e-08 0)
(5.55351e-08 -3.18226e-08 0)
(5.87623e-08 -3.02349e-08 0)
(6.19944e-08 -2.86454e-08 0)
(6.52283e-08 -2.70529e-08 0)
(6.8462e-08 -2.54558e-08 0)
(7.1694e-08 -2.38524e-08 0)
(7.49241e-08 -2.22415e-08 0)
(7.81526e-08 -2.06221e-08 0)
(8.13804e-08 -1.89944e-08 0)
(8.46088e-08 -1.73599e-08 0)
(8.78388e-08 -1.57214e-08 0)
(9.10705e-08 -1.40823e-08 0)
(2.39821e-09 -4.385e-08 0)
(7.23773e-09 -4.32169e-08 0)
(1.21717e-08 -4.18922e-08 0)
(1.72567e-08 -3.9959e-08 0)
(2.25349e-08 -3.75017e-08 0)
(2.80317e-08 -3.46173e-08 0)
(3.37525e-08 -3.14151e-08 0)
(3.96808e-08 -2.80112e-08 0)
(4.57781e-08 -2.45237e-08 0)
(5.19826e-08 -2.10681e-08 0)
(2.3232e-09 -4.42035e-08 0)
(7.00427e-09 -4.36296e-08 0)
(1.17634e-08 -4.24255e-08 0)
(1.66486e-08 -4.06628e-08 0)
(2.16962e-08 -3.84137e-08 0)
(2.69285e-08 -3.5761e-08 0)
(3.23527e-08 -3.27979e-08 0)
(3.7958e-08 -2.96239e-08 0)
(4.37159e-08 -2.63426e-08 0)
(4.95789e-08 -2.30613e-08 0)
(2.25651e-09 -4.45904e-08 0)
(6.79801e-09 -4.40667e-08 0)
(1.14039e-08 -4.29666e-08 0)
(1.61146e-08 -4.13526e-08 0)
(2.09608e-08 -3.92871e-08 0)
(2.59623e-08 -3.68417e-08 0)
(3.1126e-08 -3.40968e-08 0)
(3.64453e-08 -3.11386e-08 0)
(4.18987e-08 -2.80576e-08 0)
(4.74492e-08 -2.49503e-08 0)
(2.19656e-09 -4.50092e-08 0)
(6.61345e-09 -4.45286e-08 0)
(1.10835e-08 -4.35186e-08 0)
(1.56408e-08 -4.20341e-08 0)
(2.03111e-08 -4.013e-08 0)
(2.51114e-08 -3.78689e-08 0)
(3.00481e-08 -3.5321e-08 0)
(3.51165e-08 -3.25618e-08 0)
(4.03003e-08 -2.96706e-08 0)
(4.55693e-08 -2.67337e-08 0)
(2.14171e-09 -4.54585e-08 0)
(6.44522e-09 -4.50151e-08 0)
(1.0793e-08 -4.40831e-08 0)
(1.52135e-08 -4.27117e-08 0)
(1.97285e-08 -4.09495e-08 0)
(2.43522e-08 -3.88519e-08 0)
(2.90903e-08 -3.6481e-08 0)
(3.39391e-08 -3.39034e-08 0)
(3.88856e-08 -3.11894e-08 0)
(4.39045e-08 -2.84157e-08 0)
(2.09058e-09 -4.59363e-08 0)
(6.28892e-09 -4.55253e-08 0)
(1.05244e-08 -4.46611e-08 0)
(1.4821e-08 -4.33885e-08 0)
(1.9197e-08 -4.1751e-08 0)
(2.36643e-08 -3.97982e-08 0)
(2.82276e-08 -3.75855e-08 0)
(3.28837e-08 -3.51726e-08 0)
(3.76218e-08 -3.26218e-08 0)
(4.24201e-08 -3.00017e-08 0)
(2.04207e-09 -4.64406e-08 0)
(6.14106e-09 -4.60577e-08 0)
(1.02716e-08 -4.52529e-08 0)
(1.44541e-08 -4.40667e-08 0)
(1.87039e-08 -4.25388e-08 0)
(2.30309e-08 -4.07141e-08 0)
(2.74389e-08 -3.86425e-08 0)
(3.1925e-08 -3.63777e-08 0)
(3.64797e-08 -3.3976e-08 0)
(4.10843e-08 -3.14985e-08 0)
(1.99527e-09 -4.6969e-08 0)
(5.99888e-09 -4.66108e-08 0)
(1.00297e-08 -4.58579e-08 0)
(1.41052e-08 -4.47476e-08 0)
(1.82386e-08 -4.33163e-08 0)
(2.24381e-08 -4.16048e-08 0)
(2.67067e-08 -3.96587e-08 0)
(3.10416e-08 -3.75268e-08 0)
(3.54343e-08 -3.52601e-08 0)
(3.98683e-08 -3.29133e-08 0)
(1.94948e-09 -4.75192e-08 0)
(5.86011e-09 -4.71827e-08 0)
(9.79467e-09 -4.64755e-08 0)
(1.37684e-08 -4.54321e-08 0)
(1.77927e-08 -4.40859e-08 0)
(2.18746e-08 -4.24746e-08 0)
(2.60164e-08 -4.06401e-08 0)
(3.02154e-08 -3.8627e-08 0)
(3.44637e-08 -3.64817e-08 0)
(3.87469e-08 -3.42538e-08 0)
(1.90405e-09 -4.80887e-08 0)
(5.7228e-09 -4.77715e-08 0)
(9.56306e-09 -4.71045e-08 0)
(1.34384e-08 -4.61202e-08 0)
(1.73589e-08 -4.48494e-08 0)
(2.13306e-08 -4.3327e-08 0)
(2.53554e-08 -4.15915e-08 0)
(2.94306e-08 -3.96844e-08 0)
(3.35491e-08 -3.7648e-08 0)
(3.7698e-08 -3.55273e-08 0)
(1.85844e-09 -4.8675e-08 0)
(5.58524e-09 -4.83749e-08 0)
(9.33187e-09 -4.77437e-08 0)
(1.31107e-08 -4.68118e-08 0)
(1.69308e-08 -4.56079e-08 0)
(2.07977e-08 -4.41643e-08 0)
(2.47129e-08 -4.2517e-08 0)
(2.86739e-08 -4.07042e-08 0)
(3.26741e-08 -3.87651e-08 0)
(3.6702e-08 -3.67407e-08 0)
(1.81212e-09 -4.92753e-08 0)
(5.4458e-09 -4.89906e-08 0)
(9.09826e-09 -4.83914e-08 0)
(1.2781e-08 -4.75062e-08 0)
(1.65026e-08 -4.63619e-08 0)
(2.02682e-08 -4.49885e-08 0)
(2.4079e-08 -4.34197e-08 0)
(2.79329e-08 -4.16909e-08 0)
(3.18238e-08 -3.98386e-08 0)
(3.57414e-08 -3.79001e-08 0)
(1.76457e-09 -4.9887e-08 0)
(5.30292e-09 -4.96161e-08 0)
(8.85952e-09 -4.90456e-08 0)
(1.24454e-08 -4.82024e-08 0)
(1.60689e-08 -4.71113e-08 0)
(1.97348e-08 -4.58007e-08 0)
(2.34446e-08 -4.43018e-08 0)
(2.71964e-08 -4.26479e-08 0)
(3.09847e-08 -4.08728e-08 0)
(3.48001e-08 -3.90109e-08 0)
(1.71525e-09 -5.0507e-08 0)
(5.15494e-09 -5.02487e-08 0)
(8.61284e-09 -4.97042e-08 0)
(1.20998e-08 -4.88988e-08 0)
(1.5624e-08 -4.78556e-08 0)
(1.91904e-08 -4.66012e-08 0)
(2.28007e-08 -4.5165e-08 0)
(2.64534e-08 -4.35779e-08 0)
(3.01436e-08 -4.18717e-08 0)
(3.3863e-08 -4.00779e-08 0)
(1.66358e-09 -5.11319e-08 0)
(5.00013e-09 -5.08853e-08 0)
(8.35528e-09 -5.03646e-08 0)
(1.17399e-08 -4.95935e-08 0)
(1.51622e-08 -4.85938e-08 0)
(1.86276e-08 -4.73901e-08 0)
(2.21383e-08 -4.60102e-08 0)
(2.5693e-08 -4.4483e-08 0)
(2.92877e-08 -4.28382e-08 0)
(3.29149e-08 -4.11051e-08 0)
(1.60893e-09 -5.1758e-08 0)
(4.83663e-09 -5.15224e-08 0)
(8.08364e-09 -5.10238e-08 0)
(1.1361e-08 -5.02842e-08 0)
(1.46773e-08 -4.93241e-08 0)
(1.80385e-08 -4.81666e-08 0)
(2.14474e-08 -4.68377e-08 0)
(2.49036e-08 -4.53645e-08 0)
(2.84035e-08 -4.37748e-08 0)
(3.19407e-08 -4.20958e-08 0)
(1.5506e-09 -5.23812e-08 0)
(4.66243e-09 -5.21562e-08 0)
(7.79439e-09 -5.16783e-08 0)
(1.09578e-08 -5.09679e-08 0)
(1.41622e-08 -5.00442e-08 0)
(1.74142e-08 -4.89292e-08 0)
(2.07175e-08 -4.7647e-08 0)
(2.40725e-08 -4.62231e-08 0)
(2.74766e-08 -4.46834e-08 0)
(3.09241e-08 -4.30531e-08 0)
(1.4881e-09 -5.29964e-08 0)
(4.47554e-09 -5.27823e-08 0)
(7.48347e-09 -5.2324e-08 0)
(1.05242e-08 -5.16409e-08 0)
(1.36085e-08 -5.07513e-08 0)
(1.67442e-08 -4.9676e-08 0)
(1.99361e-08 -4.84373e-08 0)
(2.31854e-08 -4.70591e-08 0)
(2.64907e-08 -4.55654e-08 0)
(2.98472e-08 -4.39797e-08 0)
(1.42211e-09 -5.35983e-08 0)
(4.27397e-09 -5.33953e-08 0)
(7.14564e-09 -5.29556e-08 0)
(1.00521e-08 -5.22983e-08 0)
(1.30058e-08 -5.14414e-08 0)
(1.60159e-08 -5.0404e-08 0)
(1.9088e-08 -4.92069e-08 0)
(2.2225e-08 -4.78721e-08 0)
(2.54263e-08 -4.64221e-08 0)
(2.86888e-08 -4.48786e-08 0)
(1.35761e-09 -5.41815e-08 0)
(4.05473e-09 -5.39884e-08 0)
(6.77269e-09 -5.35662e-08 0)
(9.52987e-09 -5.29342e-08 0)
(1.23394e-08 -5.21095e-08 0)
(1.52112e-08 -5.11094e-08 0)
(1.81526e-08 -4.99533e-08 0)
(2.11677e-08 -4.86614e-08 0)
(2.42577e-08 -4.72545e-08 0)
(2.74209e-08 -4.57528e-08 0)
)
;

boundaryField
{
    left
    {
        type            symmetryPlane;
    }
    right
    {
        type            tractionDisplacement;
        traction        uniform (10000 0 0);
        pressure        
        {
            type            uniform;
            value           0;
        }
        value           nonuniform List<vector> 
30
(
(1.37938e-07 2.61086e-10 3.25407e-26)
(1.37704e-07 8.52989e-10 -1.95214e-26)
(1.37194e-07 1.40579e-09 -2.48603e-29)
(1.36432e-07 1.89668e-09 3.62027e-26)
(1.35437e-07 2.30721e-09 -3.09353e-26)
(1.34232e-07 2.62143e-09 -5.50273e-27)