/*--------------------------------*- C++ -*----------------------------------*\
  =========                 |
  \\      /  F ield         | OpenFOAM: The Open Source CFD Toolbox
   \\    /   O peration     | Website:  https://openfoam.org
    \\  /    A nd           | Version:  9
     \\/     M anipulation  |
\*---------------------------------------------------------------------------*/
FoamFile
{
    format      ascii;
    class       volScalarField;
    location    "220";
    object      sigmayz;
}
// * * * * * * * * * * * * * * * * * * * * * * * * * * * * * * * * * * * * * //

dimensions      [1 -1 -2 0 0 0 0];

internalField   nonuniform List<scalar> 
1000
(
6.05612e-14
8.15526e-14
-2.36412e-14
-1.92199e-14
-1.80823e-14
7.0839e-15
-8.51392e-14
5.86701e-14
-3.05274e-14
0
1.80674e-14
0
6.68376e-14
-1.22586e-13
-5.59016e-14
5.50879e-14
4.44766e-14
1.00922e-13
0
0
0
0
6.69702e-14
1.19846e-14
1.06352e-16
-5.30356e-14
4.36485e-14
-3.96891e-14
-4.12872e-15
-1.51162e-14
6.89544e-15
-1.5728e-14
-3.1929e-14
7.37793e-15
5.71248e-14
-4.73952e-14
-4.25222e-14
-9.54916e-14
-1.23551e-14
1.76509e-14
5.82877e-16
1.74729e-16
-8.57713e-14
-1.66182e-15
1.7125e-15
4.34854e-14
-1.1274e-15
3.71626e-14
-1.78521e-15
-2.40724e-14
1.09606e-14
-7.68482e-17
2.42205e-17
2.56569e-16
-4.24281e-14
1.05259e-16
3.45322e-14
7.51492e-14
1.40554e-14
-2.16647e-14
-1.47465e-14
9.73234e-15
2.0408e-14
-2.15067e-15
3.126e-14
-2.7884e-14
8.86954e-15
-2.53844e-14
-6.7996e-15
-1.84403e-14
-2.33157e-14
-2.92782e-14
4.15793e-16
6.99324e-15
4.63318e-14
-4.61279e-15
-2.16465e-16
-2.2322e-14
3.60118e-15
6.46525e-15
-2.09662e-14
-2.85073e-14
1.2609e-14
1.33161e-14
-7.08236e-15
8.38199e-15
5.90343e-15
2.27612e-14
5.21971e-15
-1.2023e-14
-2.93184e-14
-2.10614e-14
1.65363e-14
1.00113e-14
-3.34497e-16
-2.949e-15
6.50049e-15
2.37687e-15
-8.15297e-15
-5.09564e-15
-6.71279e-14
5.22763e-15
-1.62657e-14
0
-1.76711e-15
-1.0372e-14
5.48775e-16
-7.18061e-15
3.21582e-15
8.92643e-15
-6.1871e-14
3.19758e-14
-2.07088e-14
-3.76885e-15
0
-1.18903e-14
1.63438e-15
1.96618e-18
3.82702e-16
4.5697e-15
-3.64947e-14
3.79606e-14
1.63102e-14
-6.05636e-15
0
-1.46522e-14
-1.84495e-14
1.1111e-14
-1.8332e-19
-8.08954e-15
4.2447e-14
-1.77953e-14
1.78886e-14
0
-1.12729e-14
1.00046e-14
-3.29394e-15
-1.68292e-15
6.1147e-15
1.10461e-14
-3.83933e-15
1.38539e-14
-2.13937e-14
2.03737e-14
1.88423e-16
1.4746e-14
9.5389e-15
0
-7.04258e-15
6.47804e-15
-1.2668e-13
-4.55731e-14
-3.98848e-14
-1.08839e-14
3.16086e-14
-1.88837e-14
2.84046e-17
-2.19976e-14
-5.87472e-19
-2.11505e-14
-4.86204e-14
-1.00422e-15
-9.4205e-16
-5.63469e-14
1.56816e-14
-3.28385e-14
5.77317e-14
4.20346e-18
1.21423e-14
-1.72619e-14
-3.19035e-14
-4.87522e-14
1.84051e-14
-1.12343e-14
7.1251e-16
2.81321e-14
-4.46196e-15
9.13753e-16
-8.73741e-16
9.93839e-15
8.13905e-14
1.09526e-13
-9.2245e-16
4.22349e-14
4.83072e-14
4.20239e-14
4.48976e-15
-5.02778e-14
3.21042e-14
1.35408e-14
8.42699e-15
2.40867e-14
-3.41918e-14
8.55743e-14
-2.02823e-16
-4.65312e-14
-3.54928e-14
-1.83336e-14
3.54974e-15
6.72335e-15
3.10341e-15
5.65149e-15
2.44667e-15
-1.25174e-16
-8.09673e-15
0
0
2.51551e-16
2.30504e-15
6.90648e-16
5.79475e-15
-1.68961e-15
4.18622e-15
-1.80024e-15
3.14997e-17
2.77259e-18
-8.75435e-16
9.69608e-16
-7.20119e-15
2.55289e-15
3.83417e-15
6.40724e-15
2.68443e-15
7.45529e-15
-2.86081e-15
-4.58754e-15
5.5882e-15
0
2.47065e-15
4.67201e-15
1.16643e-14
4.76757e-17
1.45527e-15
1.76967e-15
2.04597e-15
-2.27592e-15
-2.58361e-15
-5.80954e-15
-1.76386e-17
1.46436e-14
1.24929e-15
3.9779e-15
-2.87516e-15
-2.89345e-15
9.72493e-15
-6.41256e-15
-1.35253e-15
2.67333e-15
2.73406e-15
-3.64679e-15
3.78597e-15
6.6686e-15
8.07775e-17
-2.89293e-15
3.20881e-15
1.28456e-17
-4.20115e-15
5.37941e-15
1.24359e-14
-1.93445e-17
0
4.90847e-15
1.79364e-15
2.0785e-15
0
2.40569e-15
-9.26381e-15
-3.91937e-15
-3.72964e-15
-1.25441e-15
-2.89242e-15
5.41555e-15
3.32826e-15
1.98436e-15
3.02892e-15
-4.98807e-15
-1.77929e-17
1.96371e-14
-8.3964e-15
-2.0362e-14
-4.13975e-15
-6.48841e-15
-1.19743e-14
7.58687e-15
2.09826e-14
-2.68332e-15
0
2.66057e-15
-1.19428e-14
-7.05106e-15
2.55285e-16
-4.99182e-15
3.90449e-15
1.21734e-14
2.01299e-15
-4.63172e-15
1.74213e-15
2.06878e-16
1.68376e-14
3.18019e-14
2.96509e-15
4.06575e-16
-1.1673e-14
-2.51743e-14
9.12476e-15
7.17041e-15
-3.37594e-15
-2.0335e-15
1.89432e-14
-1.12234e-14
-4.7297e-15
1.52237e-14
-1.18906e-14
-1.68402e-14
-3.7927e-15
-1.84743e-14
-2.60119e-16
2.79937e-14
1.05522e-14
-2.30339e-15
-4.57638e-15
6.64694e-15
9.47223e-15
-5.39348e-15
-1.52965e-14
7.13936e-15
1.84549e-14
-2.79624e-14
-1.80047e-14
2.61111e-14
-1.00812e-14
1.55089e-14
1.47062e-14
-1.47792e-14
3.52498e-15
6.4102e-16
-3.05214e-14
1.00159e-14
1.21128e-14
-5.51679e-16
9.08934e-16
-8.52302e-15
2.61792e-15
0
0
-2.02402e-14
1.43188e-14
3.44747e-14
-2.24748e-14
-2.35437e-14
1.07738e-14
-3.25911e-16
1.57537e-14
2.79365e-14
9.71904e-16
-7.29301e-15
0
-4.42944e-15
1.25875e-15
4.70133e-16
-1.20712e-15
1.35433e-14
-1.35858e-14
-1.26226e-14
3.08552e-14
2.2825e-14
-2.51914e-14
5.51888e-15
2.22238e-15
-3.42683e-15
-2.35062e-14
5.77804e-16
-1.35113e-14
-9.33586e-16
9.61416e-15
-6.69683e-16
3.5133e-14
-2.71334e-15
-5.29904e-14
-2.97834e-14
-3.64316e-15
-1.801e-14
1.3498e-14
-2.696e-14
-2.8983e-14
1.06628e-14
8.40847e-15
2.02755e-14
-2.3082e-14
-8.08864e-16
1.54712e-15
-1.96805e-14
0
-1.2783e-14
8.09612e-17
-1.59143e-14
9.92167e-15
7.55565e-15
7.89317e-17
-3.56144e-15
1.89018e-14
-2.04535e-14
-7.52365e-15
1.7499e-14
-3.76344e-14
-2.39739e-14
-2.07794e-14
5.89829e-15
4.10716e-14
-1.09889e-15
2.03161e-14
-8.78979e-16
0
-7.18142e-15
6.40771e-15
-5.13362e-16
-4.75672e-15
2.75329e-16
1.18642e-16
-7.55595e-17
2.01158e-14
0
-1.16444e-14
2.26791e-28
7.96463e-29
2.36459e-28
1.95576e-28
-7.57217e-15
0
7.17715e-15
-3.92407e-29
-7.3544e-15
7.64615e-15
1.02723e-28
-8.6461e-15
-6.49979e-29
1.02679e-14
1.13644e-14
-7.28704e-29
-8.65097e-29
-1.34447e-15
-1.55691e-14
-2.7375e-14
0
-3.65953e-15
-1.67907e-14
-2.11591e-14
-3.14816e-14
8.09863e-15
-1.99991e-14
-9.25331e-15
-1.70647e-14
-1.568e-14
-7.17943e-15
-1.31086e-14
-1.19393e-14
-1.08045e-14
-4.95575e-15
-4.55469e-15
-4.25671e-15
7.65244e-14
1.4887e-14
-3.99458e-14
5.40992e-28
8.1179e-15
0
1.22611e-14
-1.82772e-14
5.14148e-28
1.73808e-14
-9.40854e-15
-5.73247e-29
-3.70924e-28
7.45056e-15
-2.0312e-28
-2.09853e-14
1.90463e-28
1.90534e-14
-5.10686e-15
-4.89847e-15
2.83992e-14
2.79728e-14
2.80303e-14
3.39231e-29
3.78725e-14
1.93616e-15
1.86559e-15
2.29162e-14
9.53569e-15
1.95204e-14
1.89933e-14
-5.51144e-16
6.89043e-15
7.67571e-15
2.46692e-14
6.64857e-15
2.59809e-30
2.43131e-14
1.12213e-14
1.09603e-14
-1.70088e-14
-1.34786e-14
-1.31644e-14
0
1.18482e-14
2.36473e-14
-2.26571e-14
-1.04283e-14
1.01585e-14
1.01176e-14
1.63321e-28
8.9444e-15
0
-7.85632e-15
0
6.92872e-15
-1.20632e-14
8.72189e-29
4.17285e-29
-1.03101e-29
1.72504e-14
1.27955e-14
-1.32804e-14
3.50653e-28
2.401e-31
1.199e-14
1.15574e-14
-1.09615e-14
0
2.05946e-14
-3.18382e-28
-1.57575e-15
1.07045e-14
7.99528e-15
-1.13215e-14
7.16909e-15
1.23719e-14
1.30698e-14
-4.4465e-29
-1.47182e-28
1.19905e-14
1.21445e-14
1.21733e-14
0
1.18758e-14
0
1.1226e-14
0
0
0
9.43728e-15
0
0
8.09639e-15
0
0
0
6.89967e-15
6.80323e-15
6.83502e-15
-2.7356e-14
0
-1.15924e-14
0
-1.13959e-14
-1.11673e-14
0
0
0
-9.74928e-15
-9.33911e-15
-8.93098e-15
0
0
0
-7.53687e-15
0
-7.15277e-15
-7.09402e-15
-7.15725e-15
-4.42902e-14
-1.09641e-14
7.35091e-30
1.15737e-29
1.28576e-14
-2.33477e-14
-2.28678e-14
0
1.19801e-14
2.30241e-15
2.28271e-29
-2.07084e-14
-1.1936e-14
-8.20309e-15
1.23364e-14
-7.66964e-15
5.42817e-29
1.34505e-14
5.13029e-29
-4.83753e-29
1.32637e-14
5.34626e-29
-1.32843e-14
0
1.2975e-14
1.27809e-14
-1.25896e-14
-1.24183e-14
1.22806e-14
-2.95189e-28
-1.25625e-28
2.20691e-29
5.83184e-29
3.71906e-28
-3.1803e-29
6.16725e-29
-1.31495e-14
-5.18651e-29
-1.47419e-28
-5.24966e-29
-4.17434e-14
-1.48187e-28
-7.06444e-29
9.35662e-29
1.30569e-14
-1.29189e-14
-1.27739e-14
0
1.25275e-14
1.24506e-14
-6.04442e-29
-1.24305e-14
-1.2496e-14
8.66518e-29
1.27818e-14
-2.88588e-30
2.94269e-30
1.35424e-14
-1.48107e-28
-5.35809e-29
-9.61499e-16
-9.51598e-15
-1.31675e-14
0
1.31098e-14
2.25815e-14
-2.23712e-14
-3.14448e-14
1.2725e-14
8.96583e-15
1.17937e-28
8.57214e-15
-1.67567e-14
-8.19715e-15
-1.6074e-14
7.9068e-15
-1.33291e-14
0
-9.48137e-29
0
1.34079e-14
9.11314e-15
-1.31021e-14
2.40803e-29
3.1928e-29
9.20775e-15
3.51736e-14
-1.29443e-14
-2.57554e-14
2.15987e-14
-1.77781e-28
2.1286e-14
1.2871e-14
8.17008e-15
-1.30722e-14
-1.84895e-14
1.33835e-14
1.35605e-14
4.7194e-29
-4.78265e-29
-4.32716e-29
8.74669e-15
1.22567e-28
0
-1.21504e-28
-8.88184e-15
8.83803e-15
1.75407e-14
0
-8.58226e-15
-1.19495e-28
-8.3572e-15
1.6488e-14
8.13784e-15
1.60895e-14
-7.97124e-15
0
1.09791e-28
2.98163e-28
1.65481e-29
-1.24749e-14
4.39486e-29
-4.69407e-29
2.83916e-29
1.31388e-14
-1.3149e-14
-1.31308e-14
0
1.30658e-14
1.3042e-14
-1.91712e-28
-1.30505e-14
-1.30903e-14
0
1.32388e-14
6.11146e-30
-1.06323e-28
1.35443e-14
3.78314e-29
7.44899e-30
8.01241e-15
0
8.04374e-29
0
-2.4367e-29
-3.29527e-29
0
0
0
-1.01866e-28
9.77534e-30
-5.6246e-29
0
0
0
-5.50426e-29
0
2.89092e-28
5.50519e-29
5.53939e-29
-2.37648e-14
4.72087e-15
1.6198e-29
-2.61205e-29
1.30735e-14
-2.12413e-14
-2.1282e-14
0
1.31268e-14
4.97929e-15
-9.92356e-30
-2.12487e-14
-1.3189e-14
-8.045e-15
1.3315e-14
-8.00103e-15
-3.6294e-29
1.35234e-14
-1.12888e-28
-1.7849e-30
4.60967e-15
-7.65376e-15
-4.98406e-15
0
2.09255e-14
1.30807e-14
-2.11144e-14
-1.31204e-14
1.31224e-14
-2.68142e-28
8.05329e-15
-2.92318e-30
-5.51963e-29
-8.02217e-15
-5.50277e-29
6.47642e-29
-1.34672e-14
7.99745e-15
8.00687e-15
8.02359e-15
-6.19023e-15
-4.12559e-15
-4.21249e-15
0
4.31596e-15
4.34163e-15
-4.3561e-15
-4.36365e-15
4.36802e-15
-5.054e-29
3.01418e-29
8.20206e-30
1.83458e-29
4.87811e-29
1.83215e-29
4.90708e-29
-4.48916e-15
0
0
0
1.3438e-14
9.94716e-15
-6.78521e-15
2.2201e-15
-1.29721e-14
-3.55731e-15
4.27814e-14
-1.2552e-14
-1.76368e-14
0
6.28177e-15
2.93428e-14
3.02642e-14
4.18054e-14
-1.39176e-14
-2.60265e-14
-4.89509e-14
5.151e-14
-1.94669e-14
1.90218e-14
-1.34723e-14
-2.23472e-14
-2.06612e-14
2.65854e-14
3.27332e-14
2.64236e-14
-5.59443e-15
-1.0597e-14
-1.915e-15
1.93086e-14
-1.36722e-48
-4.21558e-15
-2.69948e-14
-3.88929e-14
2.25508e-14
-2.60742e-14
2.1105e-14
3.28535e-14
-2.86742e-15
3.90981e-14
8.08978e-16
1.91334e-14
0
-1.80106e-14
-9.19822e-15
1.31136e-14
-2.87065e-14
-3.02412e-14
-1.73901e-14
-6.45755e-14
-1.53264e-15
1.20493e-14
2.37752e-14
-7.25914e-15
-1.9999e-14
2.49312e-14
1.30769e-14
-7.2959e-16
4.39535e-14
-1.72368e-14
-1.11979e-48
-2.60979e-14
1.42476e-14
6.42646e-15
-2.63629e-14
-8.26426e-15
2.27006e-14
-1.60927e-14
2.99603e-14
6.16677e-14
-8.00638e-15
-9.20605e-15
3.03072e-16
9.724e-15
-2.94952e-14
-1.32834e-14
-9.67439e-16
-3.95601e-14
-6.21496e-14
1.74159e-14
1.79217e-14
2.4902e-14
-4.12104e-15
1.85616e-14
1.97583e-14
-3.82869e-14
4.67671e-14
1.64919e-15
-6.41865e-14
-8.13589e-14
2.77338e-14
3.31697e-14
2.37214e-15
-1.21761e-14
5.46108e-14
2.01475e-14
2.41869e-14
6.92026e-14
3.4877e-14
-1.85673e-14
-4.70227e-14
-2.14485e-14
-2.54605e-15
-6.39746e-15
-3.45069e-14
5.01783e-14
1.93038e-14
3.36031e-14
3.35398e-14
2.86109e-16
-2.04094e-14
-3.32136e-14
-3.84858e-15
-5.0859e-15
-4.50072e-14
-1.5919e-14
9.45887e-15
1.07704e-14
2.85531e-14
1.5714e-15
2.9598e-14
1.1735e-14
6.17015e-15
2.8392e-16
-2.39911e-14
-1.9288e-14
-4.27615e-15
-5.16958e-17
-5.39974e-17
1.62553e-14
-5.87956e-49
9.78697e-15
9.897e-15
4.9944e-15
9.76845e-15
3.54899e-16
9.62269e-15
-1.00173e-14
-1.96952e-14
2.28762e-14
-5.14464e-49
0
-2.94444e-14
0
-3.23069e-14
2.08128e-14
3.58877e-14
2.06158e-14
-1.3209e-14
-4.59005e-14
-9.62629e-15
5.82424e-15
1.89106e-14
5.88771e-16
-1.28625e-14
-3.98499e-14
4.45058e-14
9.00094e-15
2.84703e-14
1.18518e-14
-4.66922e-16
-5.51834e-15
2.91229e-14
-2.01726e-14
2.89373e-14
-3.33545e-14
7.74605e-16
2.76336e-14
-9.01288e-15
-8.66482e-15
3.36064e-17
1.86359e-14
-3.76071e-14
-9.87083e-15
-1.62416e-14
0
-1.84738e-14
9.27857e-15
2.04964e-14
-1.31275e-14
1.6798e-14
-5.38591e-15
8.52096e-15
1.49134e-14
-1.43626e-14
-9.06458e-15
0
-8.80692e-15
8.55007e-15
-6.5267e-17
9.10103e-15
-7.65396e-15
7.8283e-15
4.29251e-15
-1.23929e-15
-5.05402e-15
6.43659e-17
-2.93827e-15
3.29602e-15
-2.36753e-15
)
;

boundaryField
{
    left
    {
        type            symmetryPlane;
    }
    right
    {
        type            calculated;
        value           nonuniform List<scalar> 
30
(
2.55289e-15
1.46436e-14
-1.93445e-17
-2.0362e-14
3.18019e-14
-2.30339e-15
-5.51679e-16
4.70133e-16
-2.97834e-14
-3.56144e-15
-7.55595e-17
-8.65097e-29
-4.25671e-15
-4.89847e-15
1.09603e-14
-1.03101e-29
-1.47182e-28
6.83502e-15
-7.15725e-15
-4.83753e-29
-5.24966e-29
-5.35809e-29
0
-4.78265e-29
1.65481e-29
7.44899e-30
5.53939e-29
-1.7849e-30
8.02359e-15
0
)
;
    }
    down
    {
        type            symmetryPlane;
    }
    up
    {
        type            calculated;
        value           nonuniform List<scalar> 
30
(
-3.53213e-30
3.53213e-30
-3.53213e-30
0
1.76607e-30
-5.2982e-30
2.75948e-32
0
3.53213e-30
2.6491e-30
0
-3.53213e-30
-3.53213e-30
0
3.53213e-30
5.2982e-30
-5.2982e-30
-5.2982e-30
5.2982e-30
-5.01946e-44
3.7646e-44
-3.13717e-45
0
0
0
2.50973e-44
-5.2982e-30
0
0
0
)
;
    }
    hole
    {
        type            calculated;
        value           nonuniform List<scalar> 
20
(
6.37872e-14
6.41354e-14
0
2.72702e-14
1.68958e-14
3.88097e-14
-4.56108e-14
-5.79382e-14
-2.07781e-14
-7.47822e-15
-6.72819e-14
-6.0594e-14
-3.4232e-14
3.4278e-14
7.6893e-15
-9.72679e-14
-4.97236e-14
-7.85393e-14
2.8144e-14
8.69249e-15
)
;
    }
    frontAndBack
    {
        type            empty;
    }
}


// ************************************************************************* //
