2.80937e-05    57.0847
8.78022e-05     343.56
0.000154994    863.538
0.000230608    988.711
0.000315699    855.129
0.000411455    689.289
0.000519212    550.745
0.000640475    443.841
0.000776937    362.167
0.000930502    299.127
0.00110331    249.708
0.00129779     210.35
0.00151663    178.547
0.00176291    152.518
0.00204005    130.974
0.00235193    112.969
 0.0027029    97.7923
0.00309785    84.9044
0.00354231    73.8877
0.00404248    64.4151
0.00460533    56.2274
0.00523873    49.1163
0.00595151    42.9135
0.00675364     37.481
 0.0076563    32.7054
0.00867209    28.4924
 0.0098152    24.7634
 0.0111016    21.4521
 0.0125492    18.5027
 0.0141782    15.8679
 0.0160115    13.5079
 0.0180745    11.3895
  0.020396     9.4854
 0.0230086    7.77527
 0.0259485    6.24644
  0.029257    4.89653
 0.0329801    3.73686
 0.0371699    2.79514
 0.0418848    2.11284
 0.0471906    1.73836
 0.0528094    1.74073
 0.0581152    2.11971
 0.0628301    2.80587
 0.0670199     3.7506
  0.070743    4.91242
 0.0740515    6.26385
 0.0769914    7.79376
  0.079604    9.50466
 0.0819255    11.4093
 0.0839885    13.5281
 0.0858218    15.8881
 0.0874508    18.5227
 0.0888984    21.4717
 0.0901848    24.7822
 0.0913279    28.5101
 0.0923437    32.7214
 0.0932464    37.4949
 0.0940485    42.9246
 0.0947613     49.124
 0.0953947    56.2307
 0.0959575    64.4133
 0.0964577    73.8796
 0.0969021    84.8888
 0.0972971    97.7679
 0.0976481    112.934
   0.09796    130.927
 0.0982371    152.456
 0.0984834    178.468
 0.0987022     210.25
 0.0988967    249.583
 0.0990695    298.972
 0.0992231    361.976
 0.0993595    443.604
 0.0994808    550.451
 0.0995885    688.917
 0.0996843    854.651
 0.0997694    988.091
  0.099845    862.847
 0.0999122    343.246
 0.0999719    57.0356
