2.80937e-05    22736.5
8.78022e-05    19980.6
0.000154994    14234.3
0.000230608    8941.43
0.000315699    5793.68
0.000411455    3997.21
0.000519212    2912.62
0.000640475    2217.98
0.000776937    1747.14
0.000930502       1412
0.00110331    1163.67
0.00129779    973.587
0.00151663    824.248
0.00176291    704.439
0.00204005    606.678
0.00235193      525.8
 0.0027029    458.122
0.00309785    400.951
0.00354231    352.267
0.00404248    310.526
0.00460533    274.523
0.00523873    243.307
0.00595151    216.111
0.00675364    192.315
 0.0076563    171.408
0.00867209    152.963
 0.0098152    136.626
 0.0111016     122.09
 0.0125492    109.094
 0.0141782    97.4055
 0.0160115    86.8139
 0.0180745    77.1202
  0.020396    68.1259
 0.0230086    59.6193
 0.0259485    51.3607
  0.029257    43.0719
 0.0329801    34.4539
 0.0371699    25.2764
 0.0418848    15.5101
 0.0471906    5.21182
 0.0528094    5.34842
 0.0581152    15.6391
 0.0628301    25.3883
 0.0670199    34.5431
  0.070743    43.1391
 0.0740515    51.4098
 0.0769914    59.6541
  0.079604    68.1494
 0.0819255    77.1343
 0.0839885    86.8196
 0.0858218    97.4032
 0.0874508    109.084
 0.0888984    122.071
 0.0901848    136.597
 0.0913279    152.924
 0.0923437    171.357
 0.0932464    192.251
 0.0940485    216.032
 0.0947613     243.21
 0.0953947    274.407
 0.0959575    310.387
 0.0964577    352.103
 0.0969021    400.758
 0.0972971    457.898
 0.0976481     525.54
   0.09796    606.379
 0.0982371    704.095
 0.0984834    823.855
 0.0987022    973.139
 0.0988967    1163.16
 0.0990695    1411.43
 0.0992231    1746.49
 0.0993595    2217.26
 0.0994808    2911.82
 0.0995885    3996.33
 0.0996843    5792.68
 0.0997694    8940.14
  0.099845    14231.8
 0.0999122    19975.4
 0.0999719    22729.2
