2.80937e-05 0.00835964
8.78022e-05   0.159862
0.000154994   0.488039
0.000230608   0.673742
0.000315699   0.744039
0.000411455   0.767749
0.000519212    0.77329
0.000640475   0.771786
0.000776937   0.767618
0.000930502   0.762544
0.00110331   0.757258
0.00129779   0.752001
0.00151663    0.74681
0.00176291   0.741635
0.00204005    0.73638
0.00235193   0.730931
 0.0027029   0.725165
0.00309785   0.718953
0.00354231   0.712163
0.00404248   0.704659
0.00460533   0.696303
0.00523873   0.686947
0.00595151   0.676441
0.00675364   0.664623
 0.0076563   0.651324
0.00867209   0.636363
 0.0098152   0.619546
 0.0111016    0.60067
 0.0125492    0.57952
 0.0141782   0.555874
 0.0160115   0.529515
 0.0180745   0.500243
  0.020396   0.467918
 0.0230086    0.43252
 0.0259485   0.394284
  0.029257   0.353919
 0.0329801   0.312985
 0.0371699   0.274371
 0.0418848   0.242589
 0.0471906    0.22345
 0.0528094   0.223621
 0.0581152   0.243062
 0.0628301   0.275062
 0.0670199   0.313809
  0.070743   0.354809
 0.0740515   0.395194
 0.0769914   0.433424
  0.079604   0.468799
 0.0819255   0.501092
 0.0839885   0.530326
 0.0858218   0.556643
 0.0874508   0.580244
 0.0888984   0.601347
 0.0901848   0.620174
 0.0913279   0.636942
 0.0923437   0.651853
 0.0932464   0.665102
 0.0940485   0.676869
 0.0947613   0.687325
 0.0953947   0.696631
 0.0959575   0.704938
 0.0964577   0.712393
 0.0969021   0.719136
 0.0972971   0.725302
 0.0976481   0.731024
   0.09796    0.73643
 0.0982371   0.741644
 0.0984834   0.746781
 0.0987022   0.751935
 0.0988967   0.757159
 0.0990695   0.762413
 0.0992231   0.767458
 0.0993595   0.771599
 0.0994808    0.77308
 0.0995885   0.767518
 0.0996843   0.743789
 0.0997694   0.673477
  0.099845   0.487783
 0.0999122    0.15975
 0.0999719 0.00835365
