2.80937e-05 -8.50009e-05
8.78022e-05 -0.0101725
0.000154994 -0.0860793
0.000230608  -0.146646
0.000315699   -0.17699
0.000411455  -0.193651
0.000519212  -0.202983
0.000640475  -0.208532
0.000776937  -0.212009
0.000930502  -0.214263
0.00110331  -0.215737
0.00129779   -0.21667
0.00151663  -0.217197
0.00176291  -0.217396
0.00204005  -0.217307
0.00235193  -0.216948
 0.0027029  -0.216324
0.00309785  -0.215426
0.00354231  -0.214237
0.00404248  -0.212732
0.00460533   -0.21088
0.00523873  -0.208643
0.00595151   -0.20598
0.00675364  -0.202839
 0.0076563  -0.199165
0.00867209  -0.194897
 0.0098152  -0.189963
 0.0111016  -0.184287
 0.0125492  -0.177781
 0.0141782  -0.170347
 0.0160115  -0.161876
 0.0180745  -0.152244
  0.020396   -0.14131
 0.0230086  -0.128918
 0.0259485  -0.114891
  0.029257 -0.0990405
 0.0329801 -0.0811901
 0.0371699 -0.0611982
 0.0418848 -0.0388395
 0.0471906 -0.0134593
 0.0528094  0.0138143
 0.0581152  0.0391879
 0.0628301  0.0615433
 0.0670199  0.0815305
  0.070743  0.0993723
 0.0740515   0.115212
 0.0769914   0.129227
  0.079604   0.141605
 0.0819255   0.152524
 0.0839885   0.162142
 0.0858218   0.170598
 0.0874508   0.178016
 0.0888984   0.184506
 0.0901848   0.190166
 0.0913279   0.195082
 0.0923437   0.199334
 0.0932464    0.20299
 0.0940485   0.206114
 0.0947613    0.20876
 0.0953947    0.21098
 0.0959575   0.212815
 0.0964577   0.214304
 0.0969021   0.215477
 0.0972971   0.216361
 0.0976481   0.216971
   0.09796   0.217316
 0.0982371   0.217392
 0.0984834   0.217183
 0.0987022   0.216645
 0.0988967   0.215703
 0.0990695   0.214221
 0.0992231    0.21196
 0.0993595   0.208479
 0.0994808   0.202924
 0.0995885   0.193589
 0.0996843   0.176925
 0.0997694   0.146581
  0.099845  0.0860209
 0.0999122  0.0101615
 0.0999719 8.49245e-05
