2.80937e-05 0.00557309
8.78022e-05   0.106575
0.000154994    0.32536
0.000230608   0.449161
0.000315699   0.496026
0.000411455   0.511833
0.000519212   0.515527
0.000640475   0.514524
0.000776937   0.511745
0.000930502   0.508363
0.00110331   0.504839
0.00129779   0.501334
0.00151663   0.497873
0.00176291   0.494423
0.00204005    0.49092
0.00235193   0.487287
 0.0027029   0.483443
0.00309785   0.479302
0.00354231   0.474775
0.00404248   0.469773
0.00460533   0.464202
0.00523873   0.457965
0.00595151   0.450961
0.00675364   0.443082
 0.0076563   0.434216
0.00867209   0.424242
 0.0098152   0.413031
 0.0111016   0.400447
 0.0125492   0.386347
 0.0141782   0.370583
 0.0160115    0.35301
 0.0180745   0.333495
  0.020396   0.311945
 0.0230086   0.288347
 0.0259485   0.262856
  0.029257   0.235946
 0.0329801   0.208657
 0.0371699   0.182914
 0.0418848   0.161726
 0.0471906   0.148967
 0.0528094   0.149081
 0.0581152   0.162041
 0.0628301   0.183375
 0.0670199   0.209206
  0.070743   0.236539
 0.0740515   0.263463
 0.0769914   0.288949
  0.079604   0.312533
 0.0819255   0.334062
 0.0839885    0.35355
 0.0858218   0.371095
 0.0874508   0.386829
 0.0888984   0.400898
 0.0901848    0.41345
 0.0913279   0.424628
 0.0923437   0.434569
 0.0932464   0.443401
 0.0940485   0.451246
 0.0947613   0.458217
 0.0953947    0.46442
 0.0959575   0.469959
 0.0964577   0.474929
 0.0969021   0.479424
 0.0972971   0.483535
 0.0976481   0.487349
   0.09796   0.490953
 0.0982371   0.494429
 0.0984834   0.497854
 0.0987022    0.50129
 0.0988967   0.504772
 0.0990695   0.508275
 0.0992231   0.511638
 0.0993595     0.5144
 0.0994808   0.515386
 0.0995885   0.511679
 0.0996843   0.495859
 0.0997694   0.448985
  0.099845   0.325189
 0.0999122     0.1065
 0.0999719  0.0055691
