2.80937e-05  0.0746531
8.78022e-05   0.326458
0.000154994   0.570403
0.000230608   0.670195
0.000315699   0.704291
0.000411455   0.715425
0.000519212   0.718002
0.000640475   0.717303
0.000776937   0.715364
0.000930502   0.712996
0.00110331    0.71052
0.00129779   0.708049
0.00151663   0.705601
0.00176291   0.703152
0.00204005   0.700657
0.00235193    0.69806
 0.0027029   0.695301
0.00309785   0.692316
0.00354231   0.689039
0.00404248     0.6854
0.00460533   0.681324
0.00523873   0.676731
0.00595151   0.671536
0.00675364   0.665644
 0.0076563   0.658951
0.00867209   0.651338
 0.0098152   0.642675
 0.0111016   0.632808
 0.0125492   0.621568
 0.0141782   0.608755
 0.0160115   0.594146
 0.0180745   0.577491
  0.020396    0.55852
 0.0230086   0.536979
 0.0259485   0.512695
  0.029257   0.485743
 0.0329801    0.45679
 0.0371699   0.427684
 0.0418848   0.402152
 0.0471906   0.385962
 0.0528094   0.386109
 0.0581152   0.402544
 0.0628301   0.428223
 0.0670199   0.457391
  0.070743   0.486353
 0.0740515   0.513286
 0.0769914    0.53754
  0.079604   0.559046
 0.0819255   0.577981
 0.0839885   0.594601
 0.0858218   0.609176
 0.0874508   0.621956
 0.0888984   0.633165
 0.0901848      0.643
 0.0913279   0.651635
 0.0923437   0.659218
 0.0932464   0.665884
 0.0940485   0.671749
 0.0947613   0.676917
 0.0953947   0.681484
 0.0959575   0.685535
 0.0964577   0.689151
 0.0969021   0.692404
 0.0972971   0.695367
 0.0976481   0.698104
   0.09796   0.700681
 0.0982371   0.703157
 0.0984834   0.705588
 0.0987022   0.708018
 0.0988967   0.710473
 0.0990695   0.712934
 0.0992231   0.715289
 0.0993595   0.717217
 0.0994808   0.717904
 0.0995885   0.715317
 0.0996843   0.704173
 0.0997694   0.670063
  0.099845   0.570253
 0.0999122   0.326343
 0.0999719  0.0746264
