# vtk DataFile Version 2.0
track0
ASCII
DATASET POLYDATA
POINTS 1720 float
-1.001 -0.05 0.0011
-1.0008 -0.05 0.0011
-1.0006 -0.05 0.0011
-1.0004 -0.05 0.0011
-1.0002 -0.05 0.0011
-1 -0.05 0.0011
-0.8 -0.05 0.0011
-0.6 -0.05 0.0011
-0.4 -0.05 0.0011
-0.2 -0.05 0.0011
0 -0.05 0.0011
0.2 -0.05 0.0011
0.4 -0.05 0.0011
0.6 -0.05 0.0011
0.8 -0.05 0.0011
1 -0.05 0.0011
1.2 -0.05 0.0011
1.4 -0.05 0.0011
1.6 -0.05 0.0011
1.8 -0.05 0.0011
2 -0.05 0.0011
2.2 -0.05 0.0011
2.4 -0.05 0.0011
2.6 -0.05 0.0011
2.8 -0.05 0.0011
3 -0.05 0.0011
3.2 -0.05 0.0011
3.4 -0.05 0.0011
3.6 -0.05 0.0011
3.8 -0.05 0.0011
4 -0.05 0.0011
4.2 -0.05 0.0011
4.4 -0.05 0.0011
4.6 -0.05 0.0011
4.8 -0.05 0.0011
5 -0.05 0.0011
5.2 -0.05 0.0011
5.4 -0.05 0.0011
5.6 -0.05 0.0011
5.8 -0.05 0.0011
6 -0.05 0.0011
6.2 -0.05 0.0011
6.4 -0.05 0.0011
6.6 -0.05 0.0011
6.8 -0.05 0.0011
7 -0.05 0.0011
7.2 -0.05 0.0011
7.4 -0.05 0.0011
7.6 -0.05 0.0011
7.8 -0.05 0.0011
8 -0.05 0.0011
8.2 -0.05 0.0011
8.4 -0.05 0.0011
8.6 -0.05 0.0011
8.8 -0.05 0.0011
9 -0.05 0.0011
9.2 -0.05 0.0011
9.4 -0.05 0.0011
9.6 -0.05 0.0011
9.8 -0.05 0.0011
10 -0.05 0.0011
10.2 -0.05 0.0011
10.4 -0.05 0.0011
10.6 -0.05 0.0011
10.8 -0.05 0.0011
11 -0.05 0.0011
11.2 -0.05 0.0011
11.4 -0.05 0.0011
11.6 -0.05 0.0011
11.8 -0.05 0.0011
12 -0.05 0.0011
12.2 -0.05 0.0011
12.4 -0.05 0.0011
12.6 -0.05 0.0011
12.8 -0.05 0.0011
13 -0.05 0.0011
13.2 -0.05 0.0011
13.4 -0.05 0.0011
13.6 -0.05 0.0011
13.8 -0.05 0.0011
14 -0.05 0.0011
14.2 -0.05 0.0011
14.4 -0.05 0.0011
14.6 -0.05 0.0011
14.8 -0.05 0.0011
15 -0.05 0.0011
-1.001 -0.05 0.0537316
-1.0008 -0.05 0.0537316
-1.0006 -0.05 0.0537316
-1.0004 -0.05 0.0537316
-1.0002 -0.05 0.0537316
-1 -0.05 0.0537316
-0.8 -0.05 0.0537316
-0.6 -0.05 0.0537316
-0.4 -0.05 0.0537316
-0.2 -0.05 0.0537316
0 -0.05 0.0537316
0.2 -0.05 0.0537316
0.4 -0.05 0.0537316
0.6 -0.05 0.0537316
0.8 -0.05 0.0537316
1 -0.05 0.0537316
1.2 -0.05 0.0537316
1.4 -0.05 0.0537316
1.6 -0.05 0.0537316
1.8 -0.05 0.0537316
2 -0.05 0.0537316
2.2 -0.05 0.0537316
2.4 -0.05 0.0537316
2.6 -0.05 0.0537316
2.8 -0.05 0.0537316
3 -0.05 0.0537316
3.2 -0.05 0.0537316
3.4 -0.05 0.0537316
3.6 -0.05 0.0537316
3.8 -0.05 0.0537316
4 -0.05 0.0537316
4.2 -0.05 0.0537316
4.4 -0.05 0.0537316
4.6 -0.05 0.0537316
4.8 -0.05 0.0537316
5 -0.05 0.0537316
5.2 -0.05 0.0537316
5.4 -0.05 0.0537316
5.6 -0.05 0.0537316
5.8 -0.05 0.0537316
6 -0.05 0.0537316
6.2 -0.05 0.0537316
6.4 -0.05 0.0537316
6.6 -0.05 0.0537316
6.8 -0.05 0.0537316
7 -0.05 0.0537316
7.2 -0.05 0.0537316
7.4 -0.05 0.0537316
7.6 -0.05 0.0537316
7.8 -0.05 0.0537316
8 -0.05 0.0537316
8.2 -0.05 0.0537316
8.4 -0.05 0.0537316
8.6 -0.05 0.0537316
8.8 -0.05 0.0537316
9 -0.05 0.0537316
9.2 -0.05 0.0537316
9.4 -0.05 0.0537316
9.6 -0.05 0.0537316
9.8 -0.05 0.0537316
10 -0.05 0.0537316
10.2 -0.05 0.0537316
10.4 -0.05 0.0537316
10.6 -0.05 0.0537316
10.8 -0.05 0.0537316
11 -0.05 0.0537316
11.2 -0.05 0.0537316
11.4 -0.05 0.0537316
11.6 -0.05 0.0537316
11.8 -0.05 0.0537316
12 -0.05 0.0537316
12.2 -0.05 0.0537316
12.4 -0.05 0.0537316
12.6 -0.05 0.0537316
12.8 -0.05 0.0537316
13 -0.05 0.0537316
13.2 -0.05 0.0537316
13.4 -0.05 0.0537316
13.6 -0.05 0.0537316
13.8 -0.05 0.0537316
14 -0.05 0.0537316
14.2 -0.05 0.0537316
14.4 -0.05 0.0537316
14.6 -0.05 0.0537316
14.8 -0.05 0.0537316
15 -0.05 0.0537316
-1.001 -0.05 0.106363
-1.0008 -0.05 0.106363
-1.0006 -0.05 0.106363
-1.0004 -0.05 0.106363
-1.0002 -0.05 0.106363
-1 -0.05 0.106363
-0.8 -0.05 0.106363
-0.6 -0.05 0.106363
-0.4 -0.05 0.106363
-0.2 -0.05 0.106363
0 -0.05 0.106363
0.2 -0.05 0.106363
0.4 -0.05 0.106363
0.6 -0.05 0.106363
0.8 -0.05 0.106363
1 -0.05 0.106363
1.2 -0.05 0.106363
1.4 -0.05 0.106363
1.6 -0.05 0.106363
1.8 -0.05 0.106363
2 -0.05 0.106363
2.2 -0.05 0.106363
2.4 -0.05 0.106363
2.6 -0.05 0.106363
2.8 -0.05 0.106363
3 -0.05 0.106363
3.2 -0.05 0.106363
3.4 -0.05 0.106363
3.6 -0.05 0.106363
3.8 -0.05 0.106363
4 -0.05 0.106363
4.2 -0.05 0.106363
4.4 -0.05 0.106363
4.6 -0.05 0.106363
4.8 -0.05 0.106363
5 -0.05 0.106363
5.2 -0.05 0.106363
5.4 -0.05 0.106363
5.6 -0.05 0.106363
5.8 -0.05 0.106363
6 -0.05 0.106363
6.2 -0.05 0.106363
6.4 -0.05 0.106363
6.6 -0.05 0.106363
6.8 -0.05 0.106363
7 -0.05 0.106363
7.2 -0.05 0.106363
7.4 -0.05 0.106363
7.6 -0.05 0.106363
7.8 -0.05 0.106363
8 -0.05 0.106363
8.2 -0.05 0.106363
8.4 -0.05 0.106363
8.6 -0.05 0.106363
8.8 -0.05 0.106363
9 -0.05 0.106363
9.2 -0.05 0.106363
9.4 -0.05 0.106363
9.6 -0.05 0.106363
9.8 -0.05 0.106363
10 -0.05 0.106363
10.2 -0.05 0.106363
10.4 -0.05 0.106363
10.6 -0.05 0.106363
10.8 -0.05 0.106363
11 -0.05 0.106363
11.2 -0.05 0.106363
11.4 -0.05 0.106363
11.6 -0.05 0.106363
11.8 -0.05 0.106363
12 -0.05 0.106363
12.2 -0.05 0.106363
12.4 -0.05 0.106363
12.6 -0.05 0.106363
12.8 -0.05 0.106363
13 -0.05 0.106363
13.2 -0.05 0.106363
13.4 -0.05 0.106363
13.6 -0.05 0.106363
13.8 -0.05 0.106363
14 -0.05 0.106363
14.2 -0.05 0.106363
14.4 -0.05 0.106363
14.6 -0.05 0.106363
14.8 -0.05 0.106363
15 -0.05 0.106363
-1.001 -0.05 0.158995
-1.0008 -0.05 0.158995
-1.0006 -0.05 0.158995
-1.0004 -0.05 0.158995
-1.0002 -0.05 0.158995
-1 -0.05 0.158995
-0.8 -0.05 0.158995
-0.6 -0.05 0.158995
-0.4 -0.05 0.158995
-0.2 -0.05 0.158995
0 -0.05 0.158995
0.2 -0.05 0.158995
0.4 -0.05 0.158995
0.6 -0.05 0.158995
0.8 -0.05 0.158995
1 -0.05 0.158995
1.2 -0.05 0.158995
1.4 -0.05 0.158995
1.6 -0.05 0.158995
1.8 -0.05 0.158995
2 -0.05 0.158995
2.2 -0.05 0.158995
2.4 -0.05 0.158995
2.6 -0.05 0.158995
2.8 -0.05 0.158995
3 -0.05 0.158995
3.2 -0.05 0.158995
3.4 -0.05 0.158995
3.6 -0.05 0.158995
3.8 -0.05 0.158995
4 -0.05 0.158995
4.2 -0.05 0.158995
4.4 -0.05 0.158995
4.6 -0.05 0.158995
4.8 -0.05 0.158995
5 -0.05 0.158995
5.2 -0.05 0.158995
5.4 -0.05 0.158995
5.6 -0.05 0.158995
5.8 -0.05 0.158995
6 -0.05 0.158995
6.2 -0.05 0.158995
6.4 -0.05 0.158995
6.6 -0.05 0.158995
6.8 -0.05 0.158995
7 -0.05 0.158995
7.2 -0.05 0.158995
7.4 -0.05 0.158995
7.6 -0.05 0.158995
7.8 -0.05 0.158995
8 -0.05 0.158995
8.2 -0.05 0.158995
8.4 -0.05 0.158995
8.6 -0.05 0.158995
8.8 -0.05 0.158995
9 -0.05 0.158995
9.2 -0.05 0.158995
9.4 -0.05 0.158995
9.6 -0.05 0.158995
9.8 -0.05 0.158995
10 -0.05 0.158995
10.2 -0.05 0.158995
10.4 -0.05 0.158995
10.6 -0.05 0.158995
10.8 -0.05 0.158995
11 -0.05 0.158995
11.2 -0.05 0.158995
11.4 -0.05 0.158995
11.6 -0.05 0.158995
11.8 -0.05 0.158995
12 -0.05 0.158995
12.2 -0.05 0.158995
12.4 -0.05 0.158995
12.6 -0.05 0.158995
12.8 -0.05 0.158995
13 -0.05 0.158995
13.2 -0.05 0.158995
13.4 -0.05 0.158995
13.6 -0.05 0.158995
13.8 -0.05 0.158995
14 -0.05 0.158995
14.2 -0.05 0.158995
14.4 -0.05 0.158995
14.6 -0.05 0.158995
14.8 -0.05 0.158995
15 -0.05 0.158995
-1.001 -0.05 0.211626
-1.0008 -0.05 0.211626
-1.0006 -0.05 0.211626
-1.0004 -0.05 0.211626
-1.0002 -0.05 0.211626
-1 -0.05 0.211626
-0.8 -0.05 0.211626
-0.6 -0.05 0.211626
-0.4 -0.05 0.211626
-0.2 -0.05 0.211626
0 -0.05 0.211626
0.2 -0.05 0.211626
0.4 -0.05 0.211626
0.6 -0.05 0.211626
0.8 -0.05 0.211626
1 -0.05 0.211626
1.2 -0.05 0.211626
1.4 -0.05 0.211626
1.6 -0.05 0.211626
1.8 -0.05 0.211626
2 -0.05 0.211626
2.2 -0.05 0.211626
2.4 -0.05 0.211626
2.6 -0.05 0.211626
2.8 -0.05 0.211626
3 -0.05 0.211626
3.2 -0.05 0.211626
3.4 -0.05 0.211626
3.6 -0.05 0.211626
3.8 -0.05 0.211626
4 -0.05 0.211626
4.2 -0.05 0.211626
4.4 -0.05 0.211626
4.6 -0.05 0.211626
4.8 -0.05 0.211626
5 -0.05 0.211626
5.2 -0.05 0.211626
5.4 -0.05 0.211626
5.6 -0.05 0.211626
5.8 -0.05 0.211626
6 -0.05 0.211626
6.2 -0.05 0.211626
6.4 -0.05 0.211626
6.6 -0.05 0.211626
6.8 -0.05 0.211626
7 -0.05 0.211626
7.2 -0.05 0.211626
7.4 -0.05 0.211626
7.6 -0.05 0.211626
7.8 -0.05 0.211626
8 -0.05 0.211626
8.2 -0.05 0.211626
8.4 -0.05 0.211626
8.6 -0.05 0.211626
8.8 -0.05 0.211626
9 -0.05 0.211626
9.2 -0.05 0.211626
9.4 -0.05 0.211626
9.6 -0.05 0.211626
9.8 -0.05 0.211626
10 -0.05 0.211626
10.2 -0.05 0.211626
10.4 -0.05 0.211626
10.6 -0.05 0.211626
10.8 -0.05 0.211626
11 -0.05 0.211626
11.2 -0.05 0.211626
11.4 -0.05 0.211626
11.6 -0.05 0.211626
11.8 -0.05 0.211626
12 -0.05 0.211626
12.2 -0.05 0.211626
12.4 -0.05 0.211626
12.6 -0.05 0.211626
12.8 -0.05 0.211626
13 -0.05 0.211626
13.2 -0.05 0.211626
13.4 -0.05 0.211626
13.6 -0.05 0.211626
13.8 -0.05 0.211626
14 -0.05 0.211626
14.2 -0.05 0.211626
14.4 -0.05 0.211626
14.6 -0.05 0.211626
14.8 -0.05 0.211626
15 -0.05 0.211626
-1.001 -0.05 0.264258
-1.0008 -0.05 0.264258
-1.0006 -0.05 0.264258
-1.0004 -0.05 0.264258
-1.0002 -0.05 0.264258
-1 -0.05 0.264258
-0.8 -0.05 0.264258
-0.6 -0.05 0.264258
-0.4 -0.05 0.264258
-0.2 -0.05 0.264258
0 -0.05 0.264258
0.2 -0.05 0.264258
0.4 -0.05 0.264258
0.6 -0.05 0.264258
0.8 -0.05 0.264258
1 -0.05 0.264258
1.2 -0.05 0.264258
1.4 -0.05 0.264258
1.6 -0.05 0.264258
1.8 -0.05 0.264258
2 -0.05 0.264258
2.2 -0.05 0.264258
2.4 -0.05 0.264258
2.6 -0.05 0.264258
2.8 -0.05 0.264258
3 -0.05 0.264258
3.2 -0.05 0.264258
3.4 -0.05 0.264258
3.6 -0.05 0.264258
3.8 -0.05 0.264258
4 -0.05 0.264258
4.2 -0.05 0.264258
4.4 -0.05 0.264258
4.6 -0.05 0.264258
4.8 -0.05 0.264258
5 -0.05 0.264258
5.2 -0.05 0.264258
5.4 -0.05 0.264258
5.6 -0.05 0.264258
5.8 -0.05 0.264258
6 -0.05 0.264258
6.2 -0.05 0.264258
6.4 -0.05 0.264258
6.6 -0.05 0.264258
6.8 -0.05 0.264258
7 -0.05 0.264258
7.2 -0.05 0.264258
7.4 -0.05 0.264258
7.6 -0.05 0.264258
7.8 -0.05 0.264258
8 -0.05 0.264258
8.2 -0.05 0.264258
8.4 -0.05 0.264258
8.6 -0.05 0.264258
8.8 -0.05 0.264258
9 -0.05 0.264258
9.2 -0.05 0.264258
9.4 -0.05 0.264258
9.6 -0.05 0.264258
9.8 -0.05 0.264258
10 -0.05 0.264258
10.2 -0.05 0.264258
10.4 -0.05 0.264258
10.6 -0.05 0.264258
10.8 -0.05 0.264258
11 -0.05 0.264258
11.2 -0.05 0.264258
11.4 -0.05 0.264258
11.6 -0.05 0.264258
11.8 -0.05 0.264258
12 -0.05 0.264258
12.2 -0.05 0.264258
12.4 -0.05 0.264258
12.6 -0.05 0.264258
12.8 -0.05 0.264258
13 -0.05 0.264258
13.2 -0.05 0.264258
13.4 -0.05 0.264258
13.6 -0.05 0.264258
13.8 -0.05 0.264258
14 -0.05 0.264258
14.2 -0.05 0.264258
14.4 -0.05 0.264258
14.6 -0.05 0.264258
14.8 -0.05 0.264258
15 -0.05 0.264258
-1.001 -0.05 0.316889
-1.0008 -0.05 0.316889
-1.0006 -0.05 0.316889
-1.0004 -0.05 0.316889
[...]
POINT_DATA 1720
 FIELD attributes 3
age 1 1720 float
0 0.0002 0.0004 0.0006 0.0008 0.001 0.201 0.401 0.601 0.801 1.001 1.201 1.401 1.601 1.801 2.001 2.201 2.401 2.601 2.801 3.001 3.201 3.401 3.601 3.801 4.001 4.201 4.401 4.601 4.801 5.001 5.201 5.401 5.601 5.801 6.001 6.201 6.401 6.601 6.801 7.001 7.201 7.401 7.601 7.801 8.001 8.201 8.401 8.601 8.801 9.001 9.201 9.401 9.601 9.801 10.001 10.201 10.401 10.601 10.801 11.001 11.201 11.401 11.601 11.801 12.001 12.201 12.401 12.601 12.801 13.001 13.201 13.401 13.601 13.801 14.001 14.201 14.401 14.601 14.801 15.001 15.201 15.401 15.601 15.801 16.001
0 0.0002 0.0004 0.0006 0.0008 0.001 0.201 0.401 0.601 0.801 1.001 1.201 1.401 1.601 1.801 2.001 2.201 2.401 2.601 2.801 3.001 3.201 3.401 3.601 3.801 4.001 4.201 4.401 4.601 4.801 5.001 5.201 5.401 5.601 5.801 6.001 6.201 6.401 6.601 6.801 7.001 7.201 7.401 7.601 7.801 8.001 8.201 8.401 8.601 8.801 9.001 9.201 9.401 9.601 9.801 10.001 10.201 10.401 10.601 10.801 11.001 11.201 11.401 11.601 11.801 12.001 12.201 12.401 12.601 12.801 13.001 13.201 13.401 13.601 13.801 14.001 14.201 14.401 14.601 14.801 15.001 15.201 15.401 15.601 15.801 16.001
0 0.0002 0.0004 0.0006 0.0008 0.001 0.201 0.401 0.601 0.801 1.001 1.201 1.401 1.601 1.801 2.001 2.201 2.401 2.601 2.801 3.001 3.201 3.401 3.601 3.801 4.001 4.201 4.401 4.601 4.801 5.001 5.201 5.401 5.601 5.801 6.001 6.201 6.401 6.601 6.801 7.001 7.201 7.401 7.601 7.801 8.001 8.201 8.401 8.601 8.801 9.001 9.201 9.401 9.601 9.801 10.001 10.201 10.401 10.601 10.801 11.001 11.201 11.401 11.601 11.801 12.001 12.201 12.401 12.601 12.801 13.001 13.201 13.401 13.601 13.801 14.001 14.201 14.401 14.601 14.801 15.001 15.201 15.401 15.601 15.801 16.001
0 0.0002 0.0004 0.0006 0.0008 0.001 0.201 0.401 0.601 0.801 1.001 1.201 1.401 1.601 1.801 2.001 2.201 2.401 2.601 2.801 3.001 3.201 3.401 3.601 3.801 4.001 4.201 4.401 4.601 4.801 5.001 5.201 5.401 5.601 5.801 6.001 6.201 6.401 6.601 6.801 7.001 7.201 7.401 7.601 7.801 8.001 8.201 8.401 8.601 8.801 9.001 9.201 9.401 9.601 9.801 10.001 10.201 10.401 10.601 10.801 11.001 11.201 11.401 11.601 11.801 12.001 12.201 12.401 12.601 12.801 13.001 13.201 13.401 13.601 13.801 14.001 14.201 14.401 14.601 14.801 15.001 15.201 15.401 15.601 15.801 16.001
0 0.0002 0.0004 0.0006 0.0008 0.001 0.201 0.401 0.601 0.801 1.001 1.201 1.401 1.601 1.801 2.001 2.201 2.401 2.601 2.801 3.001 3.201 3.401 3.601 3.801 4.001 4.201 4.401 4.601 4.801 5.001 5.201 5.401 5.601 5.801 6.001 6.201 6.401 6.601 6.801 7.001 7.201 7.401 7.601 7.801 8.001 8.201 8.401 8.601 8.801 9.001 9.201 9.401 9.601 9.801 10.001 10.201 10.401 10.601 10.801 11.001 11.201 11.401 11.601 11.801 12.001 12.201 12.401 12.601 12.801 13.001 13.201 13.401 13.601 13.801 14.001 14.201 14.401 14.601 14.801 15.001 15.201 15.401 15.601 15.801 16.001
0 0.0002 0.0004 0.0006 0.0008 0.001 0.201 0.401 0.601 0.801 1.001 1.201 1.401 1.601 1.801 2.001 2.201 2.401 2.601 2.801 3.001 3.201 3.401 3.601 3.801 4.001 4.201 4.401 4.601 4.801 5.001 5.201 5.401 5.601 5.801 6.001 6.201 6.401 6.601 6.801 7.001 7.201 7.401 7.601 7.801 8.001 8.201 8.401 8.601 8.801 9.001 9.201 9.401 9.601 9.801 10.001 10.201 10.401 10.601 10.801 11.001 11.201 11.401 11.601 11.801 12.001 12.201 12.401 12.601 12.801 13.001 13.201 13.401 13.601 13.801 14.001 14.201 14.401 14.601 14.801 15.001 15.201 15.401 15.601 15.801 16.001
0 0.0002 0.0004 0.0006 0.0008 0.001 0.201 0.401 0.601 0.801 1.001 1.201 1.401 1.601 1.801 2.001 2.201 2.401 2.601 2.801 3.001 3.201 3.401 3.601 3.801 4.001 4.201 4.401 4.601 4.801 5.001 5.201 5.401 5.601 5.801 6.001 6.201 6.401 6.601 6.801 7.001 7.201 7.401 7.601 7.801 8.001 8.201 8.401 8.601 8.801 9.001 9.201 9.401 9.601 9.801 10.001 10.201 10.401 10.601 10.801 11.001 11.201 11.401 11.601 11.801 12.001 12.201 12.401 12.601 12.801 13.001 13.201 13.401 13.601 13.801 14.001 14.201 14.401 14.601 14.801 15.001 15.201 15.401 15.601 15.801 16.001
0 0.0002 0.0004 0.0006 0.0008 0.001 0.201 0.401 0.601 0.801 1.001 1.201 1.401 1.601 1.801 2.001 2.201 2.401 2.601 2.801 3.001 3.201 3.401 3.601 3.801 4.001 4.201 4.401 4.601 4.801 5.001 5.201 5.401 5.601 5.801 6.001 6.201 6.401 6.601 6.801 7.001 7.201 7.401 7.601 7.801 8.001 8.201 8.401 8.601 8.801 9.001 9.201 9.401 9.601 9.801 10.001 10.201 10.401 10.601 10.801 11.001 11.201 11.401 11.601 11.801 12.001 12.201 12.401 12.601 12.801 13.001 13.201 13.401 13.601 13.801 14.001 14.201 14.401 14.601 14.801 15.001 15.201 15.401 15.601 15.801 16.001
0 0.0002 0.0004 0.0006 0.0008 0.001 0.201 0.401 0.601 0.801 1.001 1.201 1.401 1.601 1.801 2.001 2.201 2.401 2.601 2.801 3.001 3.201 3.401 3.601 3.801 4.001 4.201 4.401 4.601 4.801 5.001 5.201 5.401 5.601 5.801 6.001 6.201 6.401 6.601 6.801 7.001 7.201 7.401 7.601 7.801 8.001 8.201 8.401 8.601 8.801 9.001 9.201 9.401 9.601 9.801 10.001 10.201 10.401 10.601 10.801 11.001 11.201 11.401 11.601 11.801 12.001 12.201 12.401 12.601 12.801 13.001 13.201 13.401 13.601 13.801 14.001 14.201 14.401 14.601 14.801 15.001 15.201 15.401 15.601 15.801 16.001
0 0.0002 0.0004 0.0006 0.0008 0.001 0.201 0.401 0.601 0.801 1.001 1.201 1.401 1.601 1.801 2.001 2.201 2.401 2.601 2.801 3.001 3.201 3.401 3.601 3.801 4.001 4.201 4.401 4.601 4.801 5.001 5.201 5.401 5.601 5.801 6.001 6.201 6.401 6.601 6.801 7.001 7.201 7.401 7.601 7.801 8.001 8.201 8.401 8.601 8.801 9.001 9.201 9.401 9.601 9.801 10.001 10.201 10.401 10.601 10.801 11.001 11.201 11.401 11.601 11.801 12.001 12.201 12.401 12.601 12.801 13.001 13.201 13.401 13.601 13.801 14.001 14.201 14.401 14.601 14.801 15.001 15.201 15.401 15.601 15.801 16.001
0 0.0002 0.0004 0.0006 0.0008 0.001 0.201 0.401 0.601 0.801 1.001 1.201 1.401 1.601 1.801 2.001 2.201 2.401 2.601 2.801 3.001 3.201 3.401 3.601 3.801 4.001 4.201 4.401 4.601 4.801 5.001 5.201 5.401 5.601 5.801 6.001 6.201 6.401 6.601 6.801 7.001 7.201 7.401 7.601 7.801 8.001 8.201 8.401 8.601 8.801 9.001 9.201 9.401 9.601 9.801 10.001 10.201 10.401 10.601 10.801 11.001 11.201 11.401 11.601 11.801 12.001 12.201 12.401 12.601 12.801 13.001 13.201 13.401 13.601 13.801 14.001 14.201 14.401 14.601 14.801 15.001 15.201 15.401 15.601 15.801 16.001
0 0.0002 0.0004 0.0006 0.0008 0.001 0.201 0.401 0.601 0.801 1.001 1.201 1.401 1.601 1.801 2.001 2.201 2.401 2.601 2.801 3.001 3.201 3.401 3.601 3.801 4.001 4.201 4.401 4.601 4.801 5.001 5.201 5.401 5.601 5.801 6.001 6.201 6.401 6.601 6.801 7.001 7.201 7.401 7.601 7.801 8.001 8.201 8.401 8.601 8.801 9.001 9.201 9.401 9.601 9.801 10.001 10.201 10.401 10.601 10.801 11.001 11.201 11.401 11.601 11.801 12.001 12.201 12.401 12.601 12.801 13.001 13.201 13.401 13.601 13.801 14.001 14.201 14.401 14.601 14.801 15.001 15.201 15.401 15.601 15.801 16.001
0 0.0002 0.0004 0.0006 0.0008 0.001 0.201 0.401 0.601 0.801 1.001 1.201 1.401 1.601 1.801 2.001 2.201 2.401 2.601 2.801 3.001 3.201 3.401 3.601 3.801 4.001 4.201 4.401 4.601 4.801 5.001 5.201 5.401 5.601 5.801 6.001 6.201 6.401 6.601 6.801 7.001 7.201 7.401 7.601 7.801 8.001 8.201 8.401 8.601 8.801 9.001 9.201 9.401 9.601 9.801 10.001 10.201 10.401 10.601 10.801 11.001 11.201 11.401 11.601 11.801 12.001 12.201 12.401 12.601 12.801 13.001 13.201 13.401 13.601 13.801 14.001 14.201 14.401 14.601 14.801 15.001 15.201 15.401 15.601 15.801 16.001
0 0.0002 0.0004 0.0006 0.0008 0.001 0.201 0.401 0.601 0.801 1.001 1.201 1.401 1.601 1.801 2.001 2.201 2.401 2.601 2.801 3.001 3.201 3.401 3.601 3.801 4.001 4.201 4.401 4.601 4.801 5.001 5.201 5.401 5.601 5.801 6.001 6.201 6.401 6.601 6.801 7.001 7.201 7.401 7.601 7.801 8.001 8.201 8.401 8.601 8.801 9.001 9.201 9.401 9.601 9.801 10.001 10.201 10.401 10.601 10.801 11.001 11.201 11.401 11.601 11.801 12.001 12.201 12.401 12.601 12.801 13.001 13.201 13.401 13.601 13.801 14.001 14.201 14.401 14.601 14.801 15.001 15.201 15.401 15.601 15.801 16.001
0 0.0002 0.0004 0.0006 0.0008 0.001 0.201 0.401 0.601 0.801 1.001 1.201 1.401 1.601 1.801 2.001 2.201 2.401 2.601 2.801 3.001 3.201 3.401 3.601 3.801 4.001 4.201 4.401 4.601 4.801 5.001 5.201 5.401 5.601 5.801 6.001 6.201 6.401 6.601 6.801 7.001 7.201 7.401 7.601 7.801 8.001 8.201 8.401 8.601 8.801 9.001 9.201 9.401 9.601 9.801 10.001 10.201 10.401 10.601 10.801 11.001 11.201 11.401 11.601 11.801 12.001 12.201 12.401 12.601 12.801 13.001 13.201 13.401 13.601 13.801 14.001 14.201 14.401 14.601 14.801 15.001 15.201 15.401 15.601 15.801 16.001
0 0.0002 0.0004 0.0006 0.0008 0.001 0.201 0.401 0.601 0.801 1.001 1.201 1.401 1.601 1.801 2.001 2.201 2.401 2.601 2.801 3.001 3.201 3.401 3.601 3.801 4.001 4.201 4.401 4.601 4.801 5.001 5.201 5.401 5.601 5.801 6.001 6.201 6.401 6.601 6.801 7.001 7.201 7.401 7.601 7.801 8.001 8.201 8.401 8.601 8.801 9.001 9.201 9.401 9.601 9.801 10.001 10.201 10.401 10.601 10.801 11.001 11.201 11.401 11.601 11.801 12.001 12.201 12.401 12.601 12.801 13.001 13.201 13.401 13.601 13.801 14.001 14.201 14.401 14.601 14.801 15.001 15.201 15.401 15.601 15.801 16.001
0 0.0002 0.0004 0.0006 0.0008 0.001 0.201 0.401 0.601 0.801 1.001 1.201 1.401 1.601 1.801 2.001 2.201 2.401 2.601 2.801 3.001 3.201 3.401 3.601 3.801 4.001 4.201 4.401 4.601 4.801 5.001 5.201 5.401 5.601 5.801 6.001 6.201 6.401 6.601 6.801 7.001 7.201 7.401 7.601 7.801 8.001 8.201 8.401 8.601 8.801 9.001 9.201 9.401 9.601 9.801 10.001 10.201 10.401 10.601 10.801 11.001 11.201 11.401 11.601 11.801 12.001 12.201 12.401 12.601 12.801 13.001 13.201 13.401 13.601 13.801 14.001 14.201 14.401 14.601 14.801 15.001 15.201 15.401 15.601 15.801 16.001
0 0.0002 0.0004 0.0006 0.0008 0.001 0.201 0.401 0.601 0.801 1.001 1.201 1.401 1.601 1.801 2.001 2.201 2.401 2.601 2.801 3.001 3.201 3.401 3.601 3.801 4.001 4.201 4.401 4.601 4.801 5.001 5.201 5.401 5.601 5.801 6.001 6.201 6.401 6.601 6.801 7.001 7.201 7.401 7.601 7.801 8.001 8.201 8.401 8.601 8.801 9.001 9.201 9.401 9.601 9.801 10.001 10.201 10.401 10.601 10.801 11.001 11.201 11.401 11.601 11.801 12.001 12.201 12.401 12.601 12.801 13.001 13.201 13.401 13.601 13.801 14.001 14.201 14.401 14.601 14.801 15.001 15.201 15.401 15.601 15.801 16.001
0 0.0002 0.0004 0.0006 0.0008 0.001 0.201 0.401 0.601 0.801 1.001 1.201 1.401 1.601 1.801 2.001 2.201 2.401 2.601 2.801 3.001 3.201 3.401 3.601 3.801 4.001 4.201 4.401 4.601 4.801 5.001 5.201 5.401 5.601 5.801 6.001 6.201 6.401 6.601 6.801 7.001 7.201 7.401 7.601 7.801 8.001 8.201 8.401 8.601 8.801 9.001 9.201 9.401 9.601 9.801 10.001 10.201 10.401 10.601 10.801 11.001 11.201 11.401 11.601 11.801 12.001 12.201 12.401 12.601 12.801 13.001 13.201 13.401 13.601 13.801 14.001 14.201 14.401 14.601 14.801 15.001 15.201 15.401 15.601 15.801 16.001
0 0.0002 0.0004 0.0006 0.0008 0.001 0.201 0.401 0.601 0.801 1.001 1.201 1.401 1.601 1.801 2.001 2.201 2.401 2.601 2.801 3.001 3.201 3.401 3.601 3.801 4.001 4.201 4.401 4.601 4.801 5.001 5.201 5.401 5.601 5.801 6.001 6.201 6.401 6.601 6.801 7.001 7.201 7.401 7.601 7.801 8.001 8.201 8.401 8.601 8.801 9.001 9.201 9.401 9.601 9.801 10.001 10.201 10.401 10.601 10.801 11.001 11.201 11.401 11.601 11.801 12.001 12.201 12.401 12.601 12.801 13.001 13.201 13.401 13.601 13.801 14.001 14.201 14.401 14.601 14.801 15.001 15.201 15.401 15.601 15.801 16.001
p 1 1720 float
-2.04856e-13 -2.04853e-13 -2.0485e-13 -2.04847e-13 -2.04844e-13 -2.04842e-13 -2.02431e-13 -2.00046e-13 -1.97661e-13 -1.95276e-13 -1.92679e-13 -1.94217e-13 -1.95765e-13 -1.97314e-13 -1.98863e-13 -2.00182e-13 -1.97994e-13 -1.95785e-13 -1.93577e-13 -1.91368e-13 -1.89303e-13 -1.83059e-13 -1.76796e-13 -1.70534e-13 -1.64272e-13 -1.58172e-13 -1.51631e-13 -1.45082e-13 -1.38533e-13 -1.31984e-13 -1.2544e-13 -1.2217e-13 -1.18935e-13 -1.157e-13 -1.12465e-13 -1.09316e-13 -1.07461e-13 -1.05601e-13 -1.0374e-13 -1.0188e-13 -1.00026e-13 -9.63592e-14 -9.26981e-14 -8.9037e-14 -8.53759e-14 -8.15644e-14 -8.27132e-14 -8.38994e-14 -8.50855e-14 -8.62716e-14 -8.73787e-14 -9.00523e-14 -9.2716e-14 -9.53797e-14 -9.80433e-14 -1.0082e-13 -9.74294e-14 -9.4012e-14 -9.05945e-14 -8.7177e-14 -8.40258e-14 -8.03778e-14 -7.67451e-14 -7.31124e-14 -6.94797e-14 -6.60519e-14 -6.26573e-14 -5.92607e-14 -5.5864e-14 -5.24674e-14 -4.87348e-14 -4.19566e-14 -3.5197e-14 -2.84374e-14 -2.16779e-14 -1.43756e-14 -1.05758e-14 -6.8047e-15 -3.03364e-15 7.3742e-16 4.15196e-15 3.87377e-15 3.58554e-15 3.29732e-15 3.00909e-15 2.2763e-15
-2.05379e-13 -2.05376e-13 -2.05374e-13 -2.05371e-13 -2.05368e-13 -2.05365e-13 -2.01807e-13 -1.99422e-13 -1.97037e-13 -1.94652e-13 -1.92909e-13 -1.93934e-13 -1.95483e-13 -1.97032e-13 -1.9858e-13 -1.9979e-13 -1.98524e-13 -1.96315e-13 -1.94107e-13 -1.91898e-13 -1.88936e-13 -1.83502e-13 -1.7724e-13 -1.70978e-13 -1.64716e-13 -1.58251e-13 -1.52057e-13 -1.45509e-13 -1.3896e-13 -1.32411e-13 -1.25727e-13 -1.20892e-13 -1.17657e-13 -1.14422e-13 -1.11187e-13 -1.09664e-13 -1.08055e-13 -1.06195e-13 -1.04334e-13 -1.02474e-13 -1.00376e-13 -9.64693e-14 -9.28082e-14 -8.91471e-14 -8.5486e-14 -8.19195e-14 -8.13946e-14 -8.25807e-14 -8.37669e-14 -8.4953e-14 -8.75078e-14 -9.06017e-14 -9.32653e-14 -9.5929e-14 -9.85927e-14 -1.00623e-13 -9.84288e-14 -9.50113e-14 -9.15939e-14 -8.81764e-14 -8.39722e-14 -7.96614e-14 -7.60287e-14 -7.2396e-14 -6.87633e-14 -6.62452e-14 -6.29288e-14 -5.95321e-14 -5.61355e-14 -5.27388e-14 -4.87489e-14 -4.11496e-14 -3.439e-14 -2.76304e-14 -2.08708e-14 -1.44837e-14 -9.40937e-15 -5.63831e-15 -1.86725e-15 1.90381e-15 3.95833e-15 4.13076e-15 3.84254e-15 3.55431e-15 3.26609e-15 2.14936e-15
-2.05903e-13 -2.059e-13 -2.05897e-13 -2.05895e-13 -2.05892e-13 -2.05889e-13 -2.02038e-13 -1.99653e-13 -1.97268e-13 -1.94882e-13 -1.9314e-13 -1.93543e-13 -1.95091e-13 -1.9664e-13 -1.98189e-13 -1.99399e-13 -1.98157e-13 -1.95948e-13 -1.9374e-13 -1.91531e-13 -1.88569e-13 -1.83581e-13 -1.77319e-13 -1.71057e-13 -1.64795e-13 -1.58331e-13 -1.52344e-13 -1.45795e-13 -1.39247e-13 -1.32698e-13 -1.26013e-13 -1.2124e-13 -1.18005e-13 -1.1477e-13 -1.11535e-13 -1.10012e-13 -1.08405e-13 -1.06545e-13 -1.04685e-13 -1.02824e-13 -1.00727e-13 -9.68244e-14 -9.31633e-14 -8.95022e-14 -8.58411e-14 -8.22746e-14 -8.15237e-14 -8.27098e-14 -8.38959e-14 -8.50821e-14 -8.76368e-14 -9.04047e-14 -9.30684e-14 -9.5732e-14 -9.83957e-14 -1.00426e-13 -9.83753e-14 -9.49578e-14 -9.15403e-14 -8.81229e-14 -8.39187e-14 -7.98547e-14 -7.6222e-14 -7.25893e-14 -6.89566e-14 -6.64385e-14 -6.29429e-14 -5.95462e-14 -5.61496e-14 -5.27529e-14 -4.8763e-14 -4.12577e-14 -3.44981e-14 -2.77385e-14 -2.09789e-14 -1.45919e-14 -9.60299e-15 -5.83193e-15 -2.06087e-15 1.71019e-15 3.76471e-15 4.00382e-15 3.71559e-15 3.42737e-15 3.13914e-15 2.02241e-15
-2.06427e-13 -2.06424e-13 -2.06421e-13 -2.06418e-13 -2.06415e-13 -2.06413e-13 -2.02269e-13 -1.99884e-13 -1.97499e-13 -1.95113e-13 -1.93371e-13 -1.93151e-13 -1.947e-13 -1.96248e-13 -1.97797e-13 -1.99007e-13 -1.97789e-13 -1.95581e-13 -1.93373e-13 -1.91164e-13 -1.88202e-13 -1.83661e-13 -1.77399e-13 -1.71136e-13 -1.64874e-13 -1.5841e-13 -1.52631e-13 -1.46082e-13 -1.39533e-13 -1.32984e-13 -1.263e-13 -1.21588e-13 -1.18353e-13 -1.15118e-13 -1.11883e-13 -1.1036e-13 -1.08756e-13 -1.06896e-13 -1.05035e-13 -1.03175e-13 -1.01077e-13 -9.71795e-14 -9.35184e-14 -8.98573e-14 -8.61962e-14 -8.26297e-14 -8.16528e-14 -8.28389e-14 -8.4025e-14 -8.52111e-14 -8.77659e-14 -9.02077e-14 -9.28714e-14 -9.55351e-14 -9.81987e-14 -1.00229e-13 -9.83217e-14 -9.49042e-14 -9.14868e-14 -8.80693e-14 -8.38652e-14 -8.0048e-14 -7.64153e-14 -7.27826e-14 -6.91499e-14 -6.66318e-14 -6.29569e-14 -5.95603e-14 -5.61636e-14 -5.2767e-14 -4.8777e-14 -4.13658e-14 -3.46062e-14 -2.78467e-14 -2.10871e-14 -1.47e-14 -9.79662e-15 -6.02556e-15 -2.2545e-15 1.51656e-15 3.57108e-15 3.87687e-15 3.58865e-15 3.30042e-15 3.0122e-15 1.89547e-15
-2.0695e-13 -2.06947e-13 -2.06945e-13 -2.06942e-13 -2.06939e-13 -2.06936e-13 -2.02564e-13 -2.00115e-13 -1.97729e-13 -1.95344e-13 -1.93602e-13 -1.92897e-13 -1.94308e-13 -1.95857e-13 -1.97405e-13 -1.98615e-13 -1.97417e-13 -1.95214e-13 -1.93005e-13 -1.90797e-13 -1.87834e-13 -1.83641e-13 -1.77478e-13 -1.71216e-13 -1.64954e-13 -1.5849e-13 -1.52872e-13 -1.46369e-13 -1.3982e-13 -1.33271e-13 -1.26587e-13 -1.21922e-13 -1.18701e-13 -1.15466e-13 -1.12231e-13 -1.10708e-13 -1.09106e-13 -1.07246e-13 -1.05386e-13 -1.03525e-13 -1.01428e-13 -9.75336e-14 -9.38735e-14 -9.02124e-14 -8.65513e-14 -8.29848e-14 -8.18318e-14 -8.2968e-14 -8.41541e-14 -8.53402e-14 -8.7895e-14 -9.00828e-14 -9.26744e-14 -9.53381e-14 -9.80018e-14 -1.00032e-13 -9.82365e-14 -9.48507e-14 -9.14332e-14 -8.80158e-14 -8.38116e-14 -8.01867e-14 -7.66086e-14 -7.29759e-14 -6.93432e-14 -6.68251e-14 -6.30106e-14 -5.95743e-14 -5.61777e-14 -5.2781e-14 -4.87911e-14 -4.14532e-14 -3.47144e-14 -2.79548e-14 -2.11952e-14 -1.48081e-14 -9.97135e-15 -6.21918e-15 -2.44812e-15 1.32294e-15 3.37746e-15 3.7352e-15 3.4617e-15 3.17348e-15 2.88525e-15 1.76852e-15
-2.07474e-13 -2.07471e-13 -2.07468e-13 -2.07466e-13 -2.07463e-13 -2.0746e-13 -2.03088e-13 -2.00345e-13 -1.9796e-13 -1.95575e-13 -1.93833e-13 -1.93128e-13 -1.93917e-13 -1.95465e-13 -1.97014e-13 -1.98224e-13 -1.97025e-13 -1.94847e-13 -1.92638e-13 -1.9043e-13 -1.87467e-13 -1.83274e-13 -1.77557e-13 -1.71295e-13 -1.65033e-13 -1.58569e-13 -1.52951e-13 -1.46655e-13 -1.40107e-13 -1.33558e-13 -1.26873e-13 -1.22209e-13 -1.19049e-13 -1.15814e-13 -1.12579e-13 -1.11056e-13 -1.09454e-13 -1.07597e-13 -1.05736e-13 -1.03876e-13 -1.01779e-13 -9.78842e-14 -9.42286e-14 -9.05675e-14 -8.69064e-14 -8.33399e-14 -8.21869e-14 -8.3097e-14 -8.42832e-14 -8.54693e-14 -8.80241e-14 -9.02119e-14 -9.24775e-14 -9.51411e-14 -9.78048e-14 -9.98354e-14 -9.80395e-14 -9.47971e-14 -9.13797e-14 -8.79622e-14 -8.37581e-14 -8.01332e-14 -7.68019e-14 -7.31692e-14 -6.95365e-14 -6.70184e-14 -6.32039e-14 -5.95884e-14 -5.61917e-14 -5.27951e-14 -4.88052e-14 -4.14672e-14 -3.48225e-14 -2.80629e-14 -2.13033e-14 -1.49162e-14 -1.00795e-14 -6.41281e-15 -2.64175e-15 1.12931e-15 3.18383e-15 3.54157e-15 3.33476e-15 3.04653e-15 2.75831e-15 1.64158e-15
-2.07998e-13 -2.07995e-13 -2.07992e-13 -2.07989e-13 -2.07986e-13 -2.07984e-13 -2.03612e-13 -2.00576e-13 -1.98191e-13 -1.95806e-13 -1.94064e-13 -1.93359e-13 -1.93525e-13 -1.95074e-13 -1.96622e-13 -1.97832e-13 -1.96634e-13 -1.94479e-13 -1.92271e-13 -1.90063e-13 -1.871e-13 -1.82907e-13 -1.77637e-13 -1.71375e-13 -1.65113e-13 -1.58648e-13 -1.5303e-13 -1.46942e-13 -1.40393e-13 -1.33844e-13 -1.2716e-13 -1.22496e-13 -1.19397e-13 -1.16162e-13 -1.12927e-13 -1.11404e-13 -1.09802e-13 -1.07947e-13 -1.06087e-13 -1.04227e-13 -1.02129e-13 -9.82348e-14 -9.45837e-14 -9.09226e-14 -8.72615e-14 -8.3695e-14 -8.2542e-14 -8.32261e-14 -8.44122e-14 -8.55984e-14 -8.81532e-14 -9.03409e-14 -9.22805e-14 -9.49442e-14 -9.76079e-14 -9.96384e-14 -9.78426e-14 -9.47436e-14 -9.13261e-14 -8.79087e-14 -8.37045e-14 -8.00797e-14 -7.69952e-14 -7.33625e-14 -6.97298e-14 -6.72117e-14 -6.33972e-14 -5.96025e-14 -5.62058e-14 -5.28092e-14 -4.88192e-14 -4.14813e-14 -3.49306e-14 -2.8171e-14 -2.14114e-14 -1.50244e-14 -1.01876e-14 -6.60643e-15 -2.83537e-15 9.35686e-16 2.99021e-15 3.34795e-15 3.20781e-15 2.91959e-15 2.63136e-15 1.51463e-15
-2.08521e-13 -2.08518e-13 -2.08516e-13 -2.08513e-13 -2.0851e-13 -2.08507e-13 -2.04135e-13 -2.00807e-13 -1.98422e-13 -1.96037e-13 -1.94294e-13 -1.9359e-13 -1.93134e-13 -1.94682e-13 -1.96231e-13 -1.97441e-13 -1.96242e-13 -1.94112e-13 -1.91904e-13 -1.89695e-13 -1.86733e-13 -1.8254e-13 -1.77716e-13 -1.71454e-13 -1.65192e-13 -1.58728e-13 -1.5311e-13 -1.47229e-13 -1.4068e-13 -1.34131e-13 -1.27447e-13 -1.22782e-13 -1.19745e-13 -1.1651e-13 -1.13275e-13 -1.11752e-13 -1.1015e-13 -1.08298e-13 -1.06438e-13 -1.04577e-13 -1.0248e-13 -9.85854e-14 -9.49388e-14 -9.12777e-14 -8.76167e-14 -8.40501e-14 -8.28971e-14 -8.33552e-14 -8.45413e-14 -8.57274e-14 -8.82822e-14 -9.047e-14 -9.20836e-14 -9.47472e-14 -9.74109e-14 -9.94415e-14 -9.76456e-14 -9.46901e-14 -9.12726e-14 -8.78551e-14 -8.3651e-14 -8.00261e-14 -7.71885e-14 -7.35558e-14 -6.99231e-14 -6.7405e-14 -6.35905e-14 -5.96165e-14 -5.62199e-14 -5.28232e-14 -4.88333e-14 -4.14954e-14 -3.50387e-14 -2.82791e-14 -2.15196e-14 -1.51325e-14 -1.02957e-14 -6.80006e-15 -3.029e-15 7.42061e-16 2.79658e-15 3.15432e-15 3.08087e-15 2.79264e-15 2.50442e-15 1.38769e-15