# vtk DataFile Version 2.0
track0
ASCII
DATASET POLYDATA
POINTS 1720 float
-1.001 -0.05 0.0011
-1.0008 -0.05 0.0011
-1.0006 -0.05 0.0011
-1.0004 -0.05 0.0011
-1.0002 -0.05 0.0011
-1 -0.05 0.0011
-0.8 -0.05 0.0011
-0.6 -0.05 0.0011
-0.4 -0.05 0.0011
-0.2 -0.05 0.0011
0 -0.05 0.0011
0.2 -0.05 0.0011
0.4 -0.05 0.0011
0.6 -0.05 0.0011
0.8 -0.05 0.0011
1 -0.05 0.0011
1.2 -0.05 0.0011
1.4 -0.05 0.0011
1.6 -0.05 0.0011
1.8 -0.05 0.0011
2 -0.05 0.0011
2.2 -0.05 0.0011
2.4 -0.05 0.0011
2.6 -0.05 0.0011
2.8 -0.05 0.0011
3 -0.05 0.0011
3.2 -0.05 0.0011
3.4 -0.05 0.0011
3.6 -0.05 0.0011
3.8 -0.05 0.0011
4 -0.05 0.0011
4.2 -0.05 0.0011
4.4 -0.05 0.0011
4.6 -0.05 0.0011
4.8 -0.05 0.0011
5 -0.05 0.0011
5.2 -0.05 0.0011
5.4 -0.05 0.0011
5.6 -0.05 0.0011
5.8 -0.05 0.0011
6 -0.05 0.0011
6.2 -0.05 0.0011
6.4 -0.05 0.0011
6.6 -0.05 0.0011
6.8 -0.05 0.0011
7 -0.05 0.0011
7.2 -0.05 0.0011
7.4 -0.05 0.0011
7.6 -0.05 0.0011
7.8 -0.05 0.0011
8 -0.05 0.0011
8.2 -0.05 0.0011
8.4 -0.05 0.0011
8.6 -0.05 0.0011
8.8 -0.05 0.0011
9 -0.05 0.0011
9.2 -0.05 0.0011
9.4 -0.05 0.0011
9.6 -0.05 0.0011
9.8 -0.05 0.0011
10 -0.05 0.0011
10.2 -0.05 0.0011
10.4 -0.05 0.0011
10.6 -0.05 0.0011
10.8 -0.05 0.0011
11 -0.05 0.0011
11.2 -0.05 0.0011
11.4 -0.05 0.0011
11.6 -0.05 0.0011
11.8 -0.05 0.0011
12 -0.05 0.0011
12.2 -0.05 0.0011
12.4 -0.05 0.0011
12.6 -0.05 0.0011
12.8 -0.05 0.0011
13 -0.05 0.0011
13.2 -0.05 0.0011
13.4 -0.05 0.0011
13.6 -0.05 0.0011
13.8 -0.05 0.0011
14 -0.05 0.0011
14.2 -0.05 0.0011
14.4 -0.05 0.0011
14.6 -0.05 0.0011
14.8 -0.05 0.0011
15 -0.05 0.0011
-1.001 -0.05 0.0537316
-1.0008 -0.05 0.0537316
-1.0006 -0.05 0.0537316
-1.0004 -0.05 0.0537316
-1.0002 -0.05 0.0537316
-1 -0.05 0.0537316
-0.8 -0.05 0.0537316
-0.6 -0.05 0.0537316
-0.4 -0.05 0.0537316
-0.2 -0.05 0.0537316
0 -0.05 0.0537316
0.2 -0.05 0.0537316
0.4 -0.05 0.0537316
0.6 -0.05 0.0537316
0.8 -0.05 0.0537316
1 -0.05 0.0537316
1.2 -0.05 0.0537316
1.4 -0.05 0.0537316
1.6 -0.05 0.0537316
1.8 -0.05 0.0537316
2 -0.05 0.0537316
2.2 -0.05 0.0537316
2.4 -0.05 0.0537316
2.6 -0.05 0.0537316
2.8 -0.05 0.0537316
3 -0.05 0.0537316
3.2 -0.05 0.0537316
3.4 -0.05 0.0537316
3.6 -0.05 0.0537316
3.8 -0.05 0.0537316
4 -0.05 0.0537316
4.2 -0.05 0.0537316
4.4 -0.05 0.0537316
4.6 -0.05 0.0537316
4.8 -0.05 0.0537316
5 -0.05 0.0537316
5.2 -0.05 0.0537316
5.4 -0.05 0.0537316
5.6 -0.05 0.0537316
5.8 -0.05 0.0537316
6 -0.05 0.0537316
6.2 -0.05 0.0537316
6.4 -0.05 0.0537316
6.6 -0.05 0.0537316
6.8 -0.05 0.0537316
7 -0.05 0.0537316
7.2 -0.05 0.0537316
7.4 -0.05 0.0537316
7.6 -0.05 0.0537316
7.8 -0.05 0.0537316
8 -0.05 0.0537316
8.2 -0.05 0.0537316
8.4 -0.05 0.0537316
8.6 -0.05 0.0537316
8.8 -0.05 0.0537316
9 -0.05 0.0537316
9.2 -0.05 0.0537316
9.4 -0.05 0.0537316
9.6 -0.05 0.0537316
9.8 -0.05 0.0537316
10 -0.05 0.0537316
10.2 -0.05 0.0537316
10.4 -0.05 0.0537316
10.6 -0.05 0.0537316
10.8 -0.05 0.0537316
11 -0.05 0.0537316
11.2 -0.05 0.0537316
11.4 -0.05 0.0537316
11.6 -0.05 0.0537316
11.8 -0.05 0.0537316
12 -0.05 0.0537316
12.2 -0.05 0.0537316
12.4 -0.05 0.0537316
12.6 -0.05 0.0537316
12.8 -0.05 0.0537316
13 -0.05 0.0537316
13.2 -0.05 0.0537316
13.4 -0.05 0.0537316
13.6 -0.05 0.0537316
13.8 -0.05 0.0537316
14 -0.05 0.0537316
14.2 -0.05 0.0537316
14.4 -0.05 0.0537316
14.6 -0.05 0.0537316
14.8 -0.05 0.0537316
15 -0.05 0.0537316
-1.001 -0.05 0.106363
-1.0008 -0.05 0.106363
-1.0006 -0.05 0.106363
-1.0004 -0.05 0.106363
-1.0002 -0.05 0.106363
-1 -0.05 0.106363
-0.8 -0.05 0.106363
-0.6 -0.05 0.106363
-0.4 -0.05 0.106363
-0.2 -0.05 0.106363
0 -0.05 0.106363
0.2 -0.05 0.106363
0.4 -0.05 0.106363
0.6 -0.05 0.106363
0.8 -0.05 0.106363
1 -0.05 0.106363
1.2 -0.05 0.106363
1.4 -0.05 0.106363
1.6 -0.05 0.106363
1.8 -0.05 0.106363
2 -0.05 0.106363
2.2 -0.05 0.106363
2.4 -0.05 0.106363
2.6 -0.05 0.106363
2.8 -0.05 0.106363
3 -0.05 0.106363
3.2 -0.05 0.106363
3.4 -0.05 0.106363
3.6 -0.05 0.106363
3.8 -0.05 0.106363
4 -0.05 0.106363
4.2 -0.05 0.106363
4.4 -0.05 0.106363
4.6 -0.05 0.106363
4.8 -0.05 0.106363
5 -0.05 0.106363
5.2 -0.05 0.106363
5.4 -0.05 0.106363
5.6 -0.05 0.106363
5.8 -0.05 0.106363
6 -0.05 0.106363
6.2 -0.05 0.106363
6.4 -0.05 0.106363
6.6 -0.05 0.106363
6.8 -0.05 0.106363
7 -0.05 0.106363
7.2 -0.05 0.106363
7.4 -0.05 0.106363
7.6 -0.05 0.106363
7.8 -0.05 0.106363
8 -0.05 0.106363
8.2 -0.05 0.106363
8.4 -0.05 0.106363
8.6 -0.05 0.106363
8.8 -0.05 0.106363
9 -0.05 0.106363
9.2 -0.05 0.106363
9.4 -0.05 0.106363
9.6 -0.05 0.106363
9.8 -0.05 0.106363
10 -0.05 0.106363
10.2 -0.05 0.106363
10.4 -0.05 0.106363
10.6 -0.05 0.106363
10.8 -0.05 0.106363
11 -0.05 0.106363
11.2 -0.05 0.106363
11.4 -0.05 0.106363
11.6 -0.05 0.106363
11.8 -0.05 0.106363
12 -0.05 0.106363
12.2 -0.05 0.106363
12.4 -0.05 0.106363
12.6 -0.05 0.106363
12.8 -0.05 0.106363
13 -0.05 0.106363
13.2 -0.05 0.106363
13.4 -0.05 0.106363
13.6 -0.05 0.106363
13.8 -0.05 0.106363
14 -0.05 0.106363
14.2 -0.05 0.106363
14.4 -0.05 0.106363
14.6 -0.05 0.106363
14.8 -0.05 0.106363
15 -0.05 0.106363
-1.001 -0.05 0.158995
-1.0008 -0.05 0.158995
-1.0006 -0.05 0.158995
-1.0004 -0.05 0.158995
-1.0002 -0.05 0.158995
-1 -0.05 0.158995
-0.8 -0.05 0.158995
-0.6 -0.05 0.158995
-0.4 -0.05 0.158995
-0.2 -0.05 0.158995
0 -0.05 0.158995
0.2 -0.05 0.158995
0.4 -0.05 0.158995
0.6 -0.05 0.158995
0.8 -0.05 0.158995
1 -0.05 0.158995
1.2 -0.05 0.158995
1.4 -0.05 0.158995
1.6 -0.05 0.158995
1.8 -0.05 0.158995
2 -0.05 0.158995
2.2 -0.05 0.158995
2.4 -0.05 0.158995
2.6 -0.05 0.158995
2.8 -0.05 0.158995
3 -0.05 0.158995
3.2 -0.05 0.158995
3.4 -0.05 0.158995
3.6 -0.05 0.158995
3.8 -0.05 0.158995
4 -0.05 0.158995
4.2 -0.05 0.158995
4.4 -0.05 0.158995
4.6 -0.05 0.158995
4.8 -0.05 0.158995
5 -0.05 0.158995
5.2 -0.05 0.158995
5.4 -0.05 0.158995
5.6 -0.05 0.158995
5.8 -0.05 0.158995
6 -0.05 0.158995
6.2 -0.05 0.158995
6.4 -0.05 0.158995
6.6 -0.05 0.158995
6.8 -0.05 0.158995
7 -0.05 0.158995
7.2 -0.05 0.158995
7.4 -0.05 0.158995
7.6 -0.05 0.158995
7.8 -0.05 0.158995
8 -0.05 0.158995
8.2 -0.05 0.158995
8.4 -0.05 0.158995
8.6 -0.05 0.158995
8.8 -0.05 0.158995
9 -0.05 0.158995
9.2 -0.05 0.158995
9.4 -0.05 0.158995
9.6 -0.05 0.158995
9.8 -0.05 0.158995
10 -0.05 0.158995
10.2 -0.05 0.158995
10.4 -0.05 0.158995
10.6 -0.05 0.158995
10.8 -0.05 0.158995
11 -0.05 0.158995
11.2 -0.05 0.158995
11.4 -0.05 0.158995
11.6 -0.05 0.158995
11.8 -0.05 0.158995
12 -0.05 0.158995
12.2 -0.05 0.158995
12.4 -0.05 0.158995
12.6 -0.05 0.158995
12.8 -0.05 0.158995
13 -0.05 0.158995
13.2 -0.05 0.158995
13.4 -0.05 0.158995
13.6 -0.05 0.158995
13.8 -0.05 0.158995
14 -0.05 0.158995
14.2 -0.05 0.158995
14.4 -0.05 0.158995
14.6 -0.05 0.158995
14.8 -0.05 0.158995
15 -0.05 0.158995
-1.001 -0.05 0.211626
-1.0008 -0.05 0.211626
-1.0006 -0.05 0.211626
-1.0004 -0.05 0.211626
-1.0002 -0.05 0.211626
-1 -0.05 0.211626
-0.8 -0.05 0.211626
-0.6 -0.05 0.211626
-0.4 -0.05 0.211626
-0.2 -0.05 0.211626
0 -0.05 0.211626
0.2 -0.05 0.211626
0.4 -0.05 0.211626
0.6 -0.05 0.211626
0.8 -0.05 0.211626
1 -0.05 0.211626
1.2 -0.05 0.211626
1.4 -0.05 0.211626
1.6 -0.05 0.211626
1.8 -0.05 0.211626
2 -0.05 0.211626
2.2 -0.05 0.211626
2.4 -0.05 0.211626
2.6 -0.05 0.211626
2.8 -0.05 0.211626
3 -0.05 0.211626
3.2 -0.05 0.211626
3.4 -0.05 0.211626
3.6 -0.05 0.211626
3.8 -0.05 0.211626
4 -0.05 0.211626
4.2 -0.05 0.211626
4.4 -0.05 0.211626
4.6 -0.05 0.211626
4.8 -0.05 0.211626
5 -0.05 0.211626
5.2 -0.05 0.211626
5.4 -0.05 0.211626
5.6 -0.05 0.211626
5.8 -0.05 0.211626
6 -0.05 0.211626
6.2 -0.05 0.211626
6.4 -0.05 0.211626
6.6 -0.05 0.211626
6.8 -0.05 0.211626
7 -0.05 0.211626
7.2 -0.05 0.211626
7.4 -0.05 0.211626
7.6 -0.05 0.211626
7.8 -0.05 0.211626
8 -0.05 0.211626
8.2 -0.05 0.211626
8.4 -0.05 0.211626
8.6 -0.05 0.211626
8.8 -0.05 0.211626
9 -0.05 0.211626
9.2 -0.05 0.211626
9.4 -0.05 0.211626
9.6 -0.05 0.211626
9.8 -0.05 0.211626
10 -0.05 0.211626
10.2 -0.05 0.211626
10.4 -0.05 0.211626
10.6 -0.05 0.211626
10.8 -0.05 0.211626
11 -0.05 0.211626
11.2 -0.05 0.211626
11.4 -0.05 0.211626
11.6 -0.05 0.211626
11.8 -0.05 0.211626
12 -0.05 0.211626
12.2 -0.05 0.211626
12.4 -0.05 0.211626
12.6 -0.05 0.211626
12.8 -0.05 0.211626
13 -0.05 0.211626
13.2 -0.05 0.211626
13.4 -0.05 0.211626
13.6 -0.05 0.211626
13.8 -0.05 0.211626
14 -0.05 0.211626
14.2 -0.05 0.211626
14.4 -0.05 0.211626
14.6 -0.05 0.211626
14.8 -0.05 0.211626
15 -0.05 0.211626
-1.001 -0.05 0.264258
-1.0008 -0.05 0.264258
-1.0006 -0.05 0.264258
-1.0004 -0.05 0.264258
-1.0002 -0.05 0.264258
-1 -0.05 0.264258
-0.8 -0.05 0.264258
-0.6 -0.05 0.264258
-0.4 -0.05 0.264258
-0.2 -0.05 0.264258
0 -0.05 0.264258
0.2 -0.05 0.264258
0.4 -0.05 0.264258
0.6 -0.05 0.264258
0.8 -0.05 0.264258
1 -0.05 0.264258
1.2 -0.05 0.264258
1.4 -0.05 0.264258
1.6 -0.05 0.264258
1.8 -0.05 0.264258
2 -0.05 0.264258
2.2 -0.05 0.264258
2.4 -0.05 0.264258
2.6 -0.05 0.264258
2.8 -0.05 0.264258
3 -0.05 0.264258
3.2 -0.05 0.264258
3.4 -0.05 0.264258
3.6 -0.05 0.264258
3.8 -0.05 0.264258
4 -0.05 0.264258
4.2 -0.05 0.264258
4.4 -0.05 0.264258
4.6 -0.05 0.264258
4.8 -0.05 0.264258
5 -0.05 0.264258
5.2 -0.05 0.264258
5.4 -0.05 0.264258
5.6 -0.05 0.264258
5.8 -0.05 0.264258
6 -0.05 0.264258
6.2 -0.05 0.264258
6.4 -0.05 0.264258
6.6 -0.05 0.264258
6.8 -0.05 0.264258
7 -0.05 0.264258
7.2 -0.05 0.264258
7.4 -0.05 0.264258
7.6 -0.05 0.264258
7.8 -0.05 0.264258
8 -0.05 0.264258
8.2 -0.05 0.264258
8.4 -0.05 0.264258
8.6 -0.05 0.264258
8.8 -0.05 0.264258
9 -0.05 0.264258
9.2 -0.05 0.264258
9.4 -0.05 0.264258
9.6 -0.05 0.264258
9.8 -0.05 0.264258
10 -0.05 0.264258
10.2 -0.05 0.264258
10.4 -0.05 0.264258
10.6 -0.05 0.264258
10.8 -0.05 0.264258
11 -0.05 0.264258
11.2 -0.05 0.264258
11.4 -0.05 0.264258
11.6 -0.05 0.264258
11.8 -0.05 0.264258
12 -0.05 0.264258
12.2 -0.05 0.264258
12.4 -0.05 0.264258
12.6 -0.05 0.264258
12.8 -0.05 0.264258
13 -0.05 0.264258
13.2 -0.05 0.264258
13.4 -0.05 0.264258
13.6 -0.05 0.264258
13.8 -0.05 0.264258
14 -0.05 0.264258
14.2 -0.05 0.264258
14.4 -0.05 0.264258
14.6 -0.05 0.264258
14.8 -0.05 0.264258
15 -0.05 0.264258
-1.001 -0.05 0.316889
-1.0008 -0.05 0.316889
-1.0006 -0.05 0.316889
-1.0004 -0.05 0.316889
[...]
POINT_DATA 1720
 FIELD attributes 1
U 3 1720 float
20 	-1.15165e-18 	-1.86255e-18 20 	-1.03101e-18 	-1.73254e-18 20 	-9.10373e-19 	-1.60253e-18 20 	-7.89734e-19 	-1.47251e-18 20 	-6.69094e-19 	-1.3425e-18 20 	-5.48455e-19 	-1.21249e-18 20 	-2.48218e-18 	-2.72813e-18 20 	-2.48218e-18 	-2.72813e-18 20 	-2.48218e-18 	-2.72813e-18 20 	-2.48218e-18 	-2.72813e-18 20 	-3.71368e-19 	-1.08897e-18 20 	1.68808e-18 	-2.94697e-18 20 	1.68808e-18 	-2.94697e-18 20 	1.68808e-18 	-2.94697e-18 20 	1.68808e-18 	-2.94697e-18 20 	-4.4308e-20 	-1.40608e-18 20 	1.19095e-19 	-4.6547e-18 20 	1.19095e-19 	-4.6547e-18 20 	1.19095e-19 	-4.6547e-18 20 	1.19095e-19 	-4.6547e-18 20 	-6.78895e-20 	-1.77459e-18 20 	6.31403e-19 	-3.88217e-18 20 	6.31403e-19 	-3.88217e-18 20 	6.31403e-19 	-3.88217e-18 20 	6.31403e-19 	-3.88217e-18 20 	8.23438e-20 	-1.71569e-18 20 	-1.28555e-19 	-3.95548e-18 20 	-1.28555e-19 	-3.95548e-18 20 	-1.28555e-19 	-3.95548e-18 20 	-1.28555e-19 	-3.95548e-18 20 	6.41743e-19 	-1.22424e-18 20 	1.25481e-18 	-2.25365e-18 20 	1.25481e-18 	-2.25365e-18 20 	1.25481e-18 	-2.25365e-18 20 	1.25481e-18 	-2.25365e-18 20 	8.71007e-19 	-5.66138e-19 20 	-8.78343e-19 	-1.17107e-18 20 	-8.78343e-19 	-1.17107e-18 20 	-8.78343e-19 	-1.17107e-18 20 	-8.78343e-19 	-1.17107e-18 20 	8.41714e-19 	-1.64805e-19 20 	1.21776e-18 	-6.05883e-19 20 	1.21776e-18 	-6.05883e-19 20 	1.21776e-18 	-6.05883e-19 20 	1.21776e-18 	-6.05883e-19 20 	9.02935e-19 	-3.05246e-20 20 	2.974e-18 	-5.62541e-19 20 	2.974e-18 	-5.62541e-19 20 	2.974e-18 	-5.62541e-19 20 	2.974e-18 	-5.62541e-19 20 	9.54803e-19 	-1.83748e-19 20 	2.53306e-18 	-3.26648e-19 20 	2.53306e-18 	-3.26648e-19 20 	2.53306e-18 	-3.26648e-19 20 	2.53306e-18 	-3.26648e-19 20 	7.40788e-19 	-6.29036e-19 20 	3.37941e-18 	-1.08555e-18 20 	3.37941e-18 	-1.08555e-18 20 	3.37941e-18 	-1.08555e-18 20 	3.37941e-18 	-1.08555e-18 20 	2.96593e-19 	-6.12257e-19 20 	8.41375e-19 	-1.18835e-18 20 	8.41375e-19 	-1.18835e-18 20 	8.41375e-19 	-1.18835e-18 20 	8.41375e-19 	-1.18835e-18 20 	-1.43903e-19 	-2.03892e-19 20 	-1.67802e-18 	-4.26671e-19 20 	-1.67802e-18 	-4.26671e-19 20 	-1.67802e-18 	-4.26671e-19 20 	-1.67802e-18 	-4.26671e-19 20 	-3.47719e-19 	8.28381e-20 20 	-7.93551e-19 	1.44638e-18 20 	-7.93551e-19 	1.44638e-18 20 	-7.93551e-19 	1.44638e-18 20 	-7.93551e-19 	1.44638e-18 20 	1.91043e-19 	2.29874e-19 20 	4.88731e-18 	2.3405e-18 20 	4.88731e-18 	2.3405e-18 20 	4.88731e-18 	2.3405e-18 20 	4.88731e-18 	2.3405e-18 20 	3.36166e-19 	1.93967e-19 20 	2.99087e-17 	3.67384e-17 20 	5.77532e-17 	7.15728e-17 20 	8.55978e-17 	1.06407e-16 20 	1.13442e-16 	1.41242e-16 20 	1.38477e-16 	1.82295e-16
20 	-2.73935e-17 	-5.98764e-17 20 	-2.72729e-17 	-5.97464e-17 20 	-2.71522e-17 	-5.96164e-17 20 	-2.70316e-17 	-5.94864e-17 20 	-2.6911e-17 	-5.93564e-17 20 	-2.67903e-17 	-5.92264e-17 20 	-1.14086e-16 	-1.277e-16 20 	-1.14086e-16 	-1.277e-16 20 	-1.14086e-16 	-1.277e-16 20 	-1.14086e-16 	-1.277e-16 20 	-1.81402e-17 	-5.31928e-17 20 	7.65806e-17 	-1.38723e-16 20 	7.65806e-17 	-1.38723e-16 20 	7.65806e-17 	-1.38723e-16 20 	7.65806e-17 	-1.38723e-16 20 	-2.16431e-18 	-6.86827e-17 20 	5.18309e-18 	-2.17597e-16 20 	5.18309e-18 	-2.17597e-16 20 	5.18309e-18 	-2.17597e-16 20 	5.18309e-18 	-2.17597e-16 20 	-3.31619e-18 	-8.66834e-17 20 	2.89795e-17 	-1.82282e-16 20 	2.89795e-17 	-1.82282e-16 20 	2.89795e-17 	-1.82282e-16 20 	2.89795e-17 	-1.82282e-16 20 	4.02224e-18 	-8.38061e-17 20 	-3.6664e-18 	-1.83948e-16 20 	-3.6664e-18 	-1.83948e-16 20 	-3.6664e-18 	-1.83948e-16 20 	-3.6664e-18 	-1.83948e-16 20 	3.13471e-17 	-5.98005e-17 20 	5.99916e-17 	-1.04359e-16 20 	5.99916e-17 	-1.04359e-16 20 	5.99916e-17 	-1.04359e-16 20 	5.99916e-17 	-1.04359e-16 20 	4.2546e-17 	-2.76541e-17 20 	-3.70693e-17 	-5.37894e-17 20 	-3.70693e-17 	-5.37894e-17 20 	-3.70693e-17 	-5.37894e-17 20 	-3.70693e-17 	-5.37894e-17 20 	4.11151e-17 	-8.05023e-18 20 	5.84158e-17 	-2.76437e-17 20 	5.84158e-17 	-2.76437e-17 20 	5.84158e-17 	-2.76437e-17 20 	5.84158e-17 	-2.76437e-17 20 	4.41055e-17 	-1.49103e-18 20 	1.38421e-16 	-2.61934e-17 20 	1.38421e-16 	-2.61934e-17 20 	1.38421e-16 	-2.61934e-17 20 	1.38421e-16 	-2.61934e-17 20 	4.66392e-17 	-8.97553e-18 20 	1.17652e-16 	-1.69815e-17 20 	1.17652e-16 	-1.69815e-17 20 	1.17652e-16 	-1.69815e-17 20 	1.17652e-16 	-1.69815e-17 20 	3.61852e-17 	-3.07264e-17 20 	1.54616e-16 	-5.142e-17 20 	1.54616e-16 	-5.142e-17 20 	1.54616e-16 	-5.142e-17 20 	1.54616e-16 	-5.142e-17 20 	1.44876e-17 	-2.99068e-17 20 	3.77561e-17 	-5.47077e-17 20 	3.77561e-17 	-5.47077e-17 20 	3.77561e-17 	-5.47077e-17 20 	3.77561e-17 	-5.47077e-17 20 	-7.02921e-18 	-9.9595e-18 20 	-7.74533e-17 	-1.91131e-17 20 	-7.74533e-17 	-1.91131e-17 20 	-7.74533e-17 	-1.91131e-17 20 	-7.74533e-17 	-1.91131e-17 20 	-1.6985e-17 	4.04639e-18 20 	-3.54224e-17 	6.65244e-17 20 	-3.54224e-17 	6.65244e-17 20 	-3.54224e-17 	6.65244e-17 20 	-3.54224e-17 	6.65244e-17 20 	9.33185e-18 	1.12286e-17 20 	2.23291e-16 	1.07045e-16 20 	2.23291e-16 	1.07045e-16 20 	2.23291e-16 	1.07045e-16 20 	2.23291e-16 	1.07045e-16 20 	1.64207e-17 	9.47468e-18 20 	1.21244e-16 	1.21396e-16 20 	1.49088e-16 	1.56231e-16 20 	1.76933e-16 	1.91065e-16 20 	2.04777e-16 	2.259e-16 20 	1.32444e-16 	1.82526e-16
20 	-5.36354e-17 	-1.1789e-16 20 	-5.35147e-17 	-1.1776e-16 20 	-5.33941e-17 	-1.1763e-16 20 	-5.32734e-17 	-1.175e-16 20 	-5.31528e-17 	-1.1737e-16 20 	-5.30322e-17 	-1.1724e-16 20 	-1.31855e-16 	-1.79804e-16 20 	-1.31855e-16 	-1.79804e-16 20 	-1.31855e-16 	-1.79804e-16 20 	-1.31855e-16 	-1.79804e-16 20 	-3.59089e-17 	-1.05297e-16 20 	7.44606e-17 	-2.06e-16 20 	7.44606e-17 	-2.06e-16 20 	7.44606e-17 	-2.06e-16 20 	7.44606e-17 	-2.06e-16 20 	-4.2843e-18 	-1.35959e-16 20 	1.93479e-18 	-3.02506e-16 20 	1.93479e-18 	-3.02506e-16 20 	1.93479e-18 	-3.02506e-16 20 	1.93479e-18 	-3.02506e-16 20 	-6.56449e-18 	-1.71592e-16 20 	3.29194e-17 	-2.64373e-16 20 	3.29194e-17 	-2.64373e-16 20 	3.29194e-17 	-2.64373e-16 20 	3.29194e-17 	-2.64373e-16 20 	7.96213e-18 	-1.65896e-16 20 	2.7039e-17 	-2.42524e-16 20 	2.7039e-17 	-2.42524e-16 20 	2.7039e-17 	-2.42524e-16 20 	2.7039e-17 	-2.42524e-16 20 	6.20525e-17 	-1.18377e-16 20 	1.01667e-16 	-1.31447e-16 20 	1.01667e-16 	-1.31447e-16 20 	1.01667e-16 	-1.31447e-16 20 	1.01667e-16 	-1.31447e-16 20 	8.4221e-17 	-5.4742e-17 20 	3.2041e-18 	-6.16748e-17 20 	3.2041e-18 	-6.16748e-17 20 	3.2041e-18 	-6.16748e-17 20 	3.2041e-18 	-6.16748e-17 20 	8.13885e-17 	-1.59357e-17 20 	1.01618e-16 	-2.91042e-17 20 	1.01618e-16 	-2.91042e-17 20 	1.01618e-16 	-2.91042e-17 20 	1.01618e-16 	-2.91042e-17 20 	8.73082e-17 	-2.95153e-18 20 	1.84105e-16 	-3.49852e-17 20 	1.84105e-16 	-3.49852e-17 20 	1.84105e-16 	-3.49852e-17 20 	1.84105e-16 	-3.49852e-17 20 	9.23235e-17 	-1.77673e-17 20 	1.53096e-16 	-4.7079e-17 20 	1.53096e-16 	-4.7079e-17 20 	1.53096e-16 	-4.7079e-17 20 	1.53096e-16 	-4.7079e-17 20 	7.16296e-17 	-6.08239e-17 20 	1.68807e-16 	-8.07145e-17 20 	1.68807e-16 	-8.07145e-17 20 	1.68807e-16 	-8.07145e-17 20 	1.68807e-16 	-8.07145e-17 20 	2.86787e-17 	-5.92014e-17 20 	3.08708e-17 	-6.44633e-17 20 	3.08708e-17 	-6.44633e-17 20 	3.08708e-17 	-6.44633e-17 20 	3.08708e-17 	-6.44633e-17 20 	-1.39145e-17 	-1.97151e-17 20 	-9.40906e-17 	-1.51496e-17 20 	-9.40906e-17 	-1.51496e-17 20 	-9.40906e-17 	-1.51496e-17 20 	-9.40906e-17 	-1.51496e-17 20 	-3.36223e-17 	8.00993e-18 20 	-2.62816e-17 	7.75231e-17 20 	-2.62816e-17 	7.75231e-17 20 	-2.62816e-17 	7.75231e-17 20 	-2.62816e-17 	7.75231e-17 20 	1.84726e-17 	2.22274e-17 20 	2.39376e-16 	1.16325e-16 20 	2.39376e-16 	1.16325e-16 20 	2.39376e-16 	1.16325e-16 20 	2.39376e-16 	1.16325e-16 20 	3.25052e-17 	1.87554e-17 20 	1.1521e-16 	1.21628e-16 20 	1.43054e-16 	1.56462e-16 20 	1.70899e-16 	1.91297e-16 20 	1.98743e-16 	2.26131e-16 20 	1.2641e-16 	1.82758e-16
20 	-7.98772e-17 	-1.75904e-16 20 	-7.97566e-17 	-1.75774e-16 20 	-7.96359e-17 	-1.75644e-16 20 	-7.95153e-17 	-1.75514e-16 20 	-7.93947e-17 	-1.75384e-16 20 	-7.9274e-17 	-1.75254e-16 20 	-1.49624e-16 	-2.31908e-16 20 	-1.49624e-16 	-2.31908e-16 20 	-1.49624e-16 	-2.31908e-16 20 	-1.49624e-16 	-2.31908e-16 20 	-5.36777e-17 	-1.57401e-16 20 	7.23406e-17 	-2.73276e-16 20 	7.23406e-17 	-2.73276e-16 20 	7.23406e-17 	-2.73276e-16 20 	7.23406e-17 	-2.73276e-16 20 	-6.4043e-18 	-2.03236e-16 20 	-1.31351e-18 	-3.87415e-16 20 	-1.31351e-18 	-3.87415e-16 20 	-1.31351e-18 	-3.87415e-16 20 	-1.31351e-18 	-3.87415e-16 20 	-9.81279e-18 	-2.56501e-16 20 	3.68593e-17 	-3.46463e-16 20 	3.68593e-17 	-3.46463e-16 20 	3.68593e-17 	-3.46463e-16 20 	3.68593e-17 	-3.46463e-16 20 	1.1902e-17 	-2.47987e-16 20 	5.77444e-17 	-3.011e-16 20 	5.77444e-17 	-3.011e-16 20 	5.77444e-17 	-3.011e-16 20 	5.77444e-17 	-3.011e-16 20 	9.27579e-17 	-1.76953e-16 20 	1.43342e-16 	-1.58535e-16 20 	1.43342e-16 	-1.58535e-16 20 	1.43342e-16 	-1.58535e-16 20 	1.43342e-16 	-1.58535e-16 20 	1.25896e-16 	-8.18299e-17 20 	4.34775e-17 	-6.95602e-17 20 	4.34775e-17 	-6.95602e-17 20 	4.34775e-17 	-6.95602e-17 20 	4.34775e-17 	-6.95602e-17 20 	1.21662e-16 	-2.38211e-17 20 	1.44821e-16 	-3.05647e-17 20 	1.44821e-16 	-3.05647e-17 20 	1.44821e-16 	-3.05647e-17 20 	1.44821e-16 	-3.05647e-17 20 	1.30511e-16 	-4.41204e-18 20 	2.2979e-16 	-4.3777e-17 20 	2.2979e-16 	-4.3777e-17 20 	2.2979e-16 	-4.3777e-17 20 	2.2979e-16 	-4.3777e-17 20 	1.38008e-16 	-2.65591e-17 20 	1.88541e-16 	-7.71764e-17 20 	1.88541e-16 	-7.71764e-17 20 	1.88541e-16 	-7.71764e-17 20 	1.88541e-16 	-7.71764e-17 20 	1.07074e-16 	-9.09213e-17 20 	1.82998e-16 	-1.10009e-16 20 	1.82998e-16 	-1.10009e-16 20 	1.82998e-16 	-1.10009e-16 20 	1.82998e-16 	-1.10009e-16 20 	4.28698e-17 	-8.8496e-17 20 	2.39855e-17 	-7.42189e-17 20 	2.39855e-17 	-7.42189e-17 20 	2.39855e-17 	-7.42189e-17 20 	2.39855e-17 	-7.42189e-17 20 	-2.07998e-17 	-2.94707e-17 20 	-1.10728e-16 	-1.1186e-17 20 	-1.10728e-16 	-1.1186e-17 20 	-1.10728e-16 	-1.1186e-17 20 	-1.10728e-16 	-1.1186e-17 20 	-5.02596e-17 	1.19735e-17 20 	-1.71408e-17 	8.85219e-17 20 	-1.71408e-17 	8.85219e-17 20 	-1.71408e-17 	8.85219e-17 20 	-1.71408e-17 	8.85219e-17 20 	2.76135e-17 	3.32262e-17 20 	2.5546e-16 	1.25606e-16 20 	2.5546e-16 	1.25606e-16 20 	2.5546e-16 	1.25606e-16 20 	2.5546e-16 	1.25606e-16 20 	4.85896e-17 	2.80361e-17 20 	1.09176e-16 	1.21859e-16 20 	1.37021e-16 	1.56694e-16 20 	1.64865e-16 	1.91528e-16 20 	1.9271e-16 	2.26362e-16 20 	1.20376e-16 	1.82989e-16
20 	-1.06119e-16 	-2.33918e-16 20 	-1.05998e-16 	-2.33788e-16 20 	-1.05878e-16 	-2.33658e-16 20 	-1.05757e-16 	-2.33528e-16 20 	-1.05637e-16 	-2.33398e-16 20 	-1.05516e-16 	-2.33268e-16 20 	-1.69264e-16 	-2.85317e-16 20 	-1.67393e-16 	-2.84012e-16 20 	-1.67393e-16 	-2.84012e-16 20 	-1.67393e-16 	-2.84012e-16 20 	-7.14465e-17 	-2.09504e-16 20 	6.67638e-17 	-3.37201e-16 20 	7.02206e-17 	-3.40553e-16 20 	7.02206e-17 	-3.40553e-16 20 	7.02206e-17 	-3.40553e-16 20 	-8.5243e-18 	-2.70513e-16 20 	-4.31257e-18 	-4.68429e-16 20 	-4.56181e-18 	-4.72324e-16 20 	-4.56181e-18 	-4.72324e-16 20 	-4.56181e-18 	-4.72324e-16 20 	-1.30611e-17 	-3.4141e-16 20 	3.92113e-17 	-4.29176e-16 20 	4.07992e-17 	-4.28554e-16 20 	4.07992e-17 	-4.28554e-16 20 	4.07992e-17 	-4.28554e-16 20 	1.58419e-17 	-3.30077e-16 20 	8.25373e-17 	-3.64871e-16 20 	8.84498e-17 	-3.59676e-16 20 	8.84498e-17 	-3.59676e-16 20 	8.84498e-17 	-3.59676e-16 20 	1.23463e-16 	-2.35529e-16 20 	1.82593e-16 	-1.92579e-16 20 	1.85017e-16 	-1.85623e-16 20 	1.85017e-16 	-1.85623e-16 20 	1.85017e-16 	-1.85623e-16 20 	1.67571e-16 	-1.08918e-16 20 	8.40605e-17 	-8.16875e-17 20 	8.37509e-17 	-7.74457e-17 20 	8.37509e-17 	-7.74457e-17 20 	8.37509e-17 	-7.74457e-17 20 	1.61935e-16 	-3.17065e-17 20 	1.87377e-16 	-3.34445e-17 20 	1.88024e-16 	-3.20252e-17 20 	1.88024e-16 	-3.20252e-17 20 	1.88024e-16 	-3.20252e-17 20 	1.73713e-16 	-5.87255e-18 20 	2.74926e-16 	-5.09493e-17 20 	2.75474e-16 	-5.25687e-17 20 	2.75474e-16 	-5.25687e-17 20 	2.75474e-16 	-5.25687e-17 20 	1.83692e-16 	-3.53509e-17 20 	2.26247e-16 	-1.02567e-16 20 	2.23985e-16 	-1.07274e-16 20 	2.23985e-16 	-1.07274e-16 20 	2.23985e-16 	-1.07274e-16 20 	1.42518e-16 	-1.21019e-16 20 	2.01884e-16 	-1.39481e-16 20 	1.97189e-16 	-1.39304e-16 20 	1.97189e-16 	-1.39304e-16 20 	1.97189e-16 	-1.39304e-16 20 	5.70608e-17 	-1.17791e-16 20 	2.1756e-17 	-8.82907e-17 20 	1.71002e-17 	-8.39745e-17 20 	1.71002e-17 	-8.39745e-17 20 	1.71002e-17 	-8.39745e-17 20 	-2.76851e-17 	-3.92263e-17 20 	-1.25211e-16 	-1.0253e-17 20 	-1.27365e-16 	-7.22248e-18 20 	-1.27365e-16 	-7.22248e-18 20 	-1.27365e-16 	-7.22248e-18 20 	-6.68969e-17 	1.5937e-17 20 	-1.36944e-17 	9.79666e-17 20 	-8.00003e-18 	9.95207e-17 20 	-8.00003e-18 	9.95207e-17 20 	-8.00003e-18 	9.95207e-17 20 	3.67543e-17 	4.42249e-17 20 	2.70011e-16 	1.35266e-16 20 	2.71545e-16 	1.34887e-16 20 	2.71545e-16 	1.34887e-16 20 	2.71545e-16 	1.34887e-16 20 	6.46741e-17 	3.73168e-17 20 	1.08028e-16 	1.2409e-16 20 	1.30987e-16 	1.56925e-16 20 	1.58832e-16 	1.91759e-16 20 	1.86676e-16 	2.26594e-16 20 	1.14343e-16 	1.8322e-16
20 	-1.32361e-16 	-2.91932e-16 20 	-1.3224e-16 	-2.91802e-16 20 	-1.3212e-16 	-2.91672e-16 20 	-1.31999e-16 	-2.91542e-16 20 	-1.31878e-16 	-2.91412e-16 20 	-1.31758e-16 	-2.91282e-16 20 	-1.95506e-16 	-3.43331e-16 20 	-1.85161e-16 	-3.36116e-16 20 	-1.85161e-16 	-3.36116e-16 20 	-1.85161e-16 	-3.36116e-16 20 	-8.92153e-17 	-2.61608e-16 20 	4.8995e-17 	-3.89305e-16 20 	6.81006e-17 	-4.07829e-16 20 	6.81006e-17 	-4.07829e-16 20 	6.81006e-17 	-4.07829e-16 20 	-1.06443e-17 	-3.37789e-16 20 	-6.43257e-18 	-5.35705e-16 20 	-7.81011e-18 	-5.57233e-16 20 	-7.81011e-18 	-5.57233e-16 20 	-7.81011e-18 	-5.57233e-16 20 	-1.63094e-17 	-4.26318e-16 20 	3.5963e-17 	-5.14085e-16 20 	4.4739e-17 	-5.10644e-16 20 	4.4739e-17 	-5.10644e-16 20 	4.4739e-17 	-5.10644e-16 20 	1.97818e-17 	-4.12168e-16 20 	8.64772e-17 	-4.46961e-16 20 	1.19155e-16 	-4.18253e-16 20 	1.19155e-16 	-4.18253e-16 20 	1.19155e-16 	-4.18253e-16 20 	1.54169e-16 	-2.94105e-16 20 	2.13299e-16 	-2.51155e-16 20 	2.26692e-16 	-2.12711e-16 20 	2.26692e-16 	-2.12711e-16 20 	2.26692e-16 	-2.12711e-16 20 	2.09246e-16 	-1.36006e-16 20 	1.25735e-16 	-1.08775e-16 20 	1.24024e-16 	-8.53311e-17 20 	1.24024e-16 	-8.53311e-17 20 	1.24024e-16 	-8.53311e-17 20 	2.02209e-16 	-3.95919e-17 20 	2.2765e-16 	-4.13299e-17 20 	2.31226e-16 	-3.34857e-17 20 	2.31226e-16 	-3.34857e-17 20 	2.31226e-16 	-3.34857e-17 20 	2.16916e-16 	-7.33305e-18 20 	3.18128e-16 	-5.24098e-17 20 	3.21158e-16 	-6.13605e-17 20 	3.21158e-16 	-6.13605e-17 20 	3.21158e-16 	-6.13605e-17 20 	2.29377e-16 	-4.41426e-17 20 	2.71932e-16 	-1.11359e-16 20 	2.5943e-16 	-1.37371e-16 20 	2.5943e-16 	-1.37371e-16 20 	2.5943e-16 	-1.37371e-16 20 	1.77963e-16 	-1.51116e-16 20 	2.37328e-16 	-1.69578e-16 20 	2.1138e-16 	-1.68598e-16 20 	2.1138e-16 	-1.68598e-16 20 	2.1138e-16 	-1.68598e-16 20 	7.12519e-17 	-1.47085e-16 20 	3.59471e-17 	-1.17585e-16 20 	1.02149e-17 	-9.37301e-17 20 	1.02149e-17 	-9.37301e-17 20 	1.02149e-17 	-9.37301e-17 20 	-3.45704e-17 	-4.89819e-17 20 	-1.32096e-16 	-2.00086e-17 20 	-1.44002e-16 	-3.25893e-18 20 	-1.44002e-16 	-3.25893e-18 20 	-1.44002e-16 	-3.25893e-18 20 	-8.35342e-17 	1.99006e-17 20 	-3.03317e-17 	1.0193e-16 20 	1.14077e-18 	1.10519e-16 20 	1.14077e-18 	1.10519e-16 20 	1.14077e-18 	1.10519e-16 20 	4.58951e-17 	5.52237e-17 20 	2.79151e-16 	1.46265e-16 20 	2.87629e-16 	1.44167e-16 20 	2.87629e-16 	1.44167e-16 20 	2.87629e-16 	1.44167e-16 20 	8.07586e-17 	4.65975e-17 20 	1.24113e-16 	1.3337e-16 20 	1.24953e-16 	1.57156e-16 20 	1.52798e-16 	1.91991e-16 20 	1.80642e-16 	2.26825e-16 20 	1.08309e-16 	1.83452e-16
20 	-1.58603e-16 	-3.49946e-16 20 	-1.58482e-16 	-3.49816e-16 20 	-1.58362e-16 	-3.49686e-16 20 	-1.58241e-16 	-3.49556e-16 20 	-1.5812e-16 	-3.49426e-16 20 	-1.58e-16 	-3.49296e-16 20 	-2.21748e-16 	-4.01345e-16 20 	-2.0293e-16 	-3.88219e-16 20 	-2.0293e-16 	-3.88219e-16 20 	-2.0293e-16 	-3.88219e-16 20 	-1.06984e-16 	-3.13712e-16 20 	3.12262e-17 	-4.41409e-16 20 	6.59806e-17 	-4.75106e-16 20 	6.59806e-17 	-4.75106e-16 20 	6.59806e-17 	-4.75106e-16 20 	-1.27643e-17 	-4.05066e-16 20 	-8.55257e-18 	-6.02982e-16 20 	-1.10584e-17 	-6.42141e-16 20 	-1.10584e-17 	-6.42141e-16 20 	-1.10584e-17 	-6.42141e-16 20 	-1.95577e-17 	-5.11227e-16 20 	3.27147e-17 	-5.98994e-16 20 	4.86789e-17 	-5.92734e-16 20 	4.86789e-17 	-5.92734e-16 20 	4.86789e-17 	-5.92734e-16 20 	2.37217e-17 	-4.94258e-16 20 	9.04171e-17 	-5.29051e-16 20 	1.49861e-16 	-4.76829e-16 20 	1.49861e-16 	-4.76829e-16 20 	1.49861e-16 	-4.76829e-16 20 	1.84874e-16 	-3.52682e-16 20 	2.44004e-16 	-3.09731e-16 20 	2.68367e-16 	-2.39799e-16 20 	2.68367e-16 	-2.39799e-16 20 	2.68367e-16 	-2.39799e-16 20 	2.50921e-16 	-1.63094e-16 20 	1.6741e-16 	-1.35863e-16 20 	1.64298e-16 	-9.32165e-17 20 	1.64298e-16 	-9.32165e-17 20 	1.64298e-16 	-9.32165e-17 20 	2.42482e-16 	-4.74774e-17 20 	2.67923e-16 	-4.92153e-17 20 	2.74429e-16 	-3.49462e-17 20 	2.74429e-16 	-3.49462e-17 20 	2.74429e-16 	-3.49462e-17 20 	2.60119e-16 	-8.79356e-18 20 	3.61331e-16 	-5.38703e-17 20 	3.66843e-16 	-7.01523e-17 20 	3.66843e-16 	-7.01523e-17 20 	3.66843e-16 	-7.01523e-17 20 	2.75061e-16 	-5.29344e-17 20 	3.17616e-16 	-1.20151e-16 20 	2.94874e-16 	-1.67469e-16 20 	2.94874e-16 	-1.67469e-16 20 	2.94874e-16 	-1.67469e-16 20 	2.13407e-16 	-1.81214e-16 20 	2.72773e-16 	-1.99676e-16 20 	2.25571e-16 	-1.97893e-16 20 	2.25571e-16 	-1.97893e-16 20 	2.25571e-16 	-1.97893e-16 20 	8.54429e-17 	-1.7638e-16 20 	5.01381e-17 	-1.4688e-16 20 	3.32962e-18 	-1.03486e-16 20 	3.32962e-18 	-1.03486e-16 20 	3.32962e-18 	-1.03486e-16 20 	-4.14557e-17 	-5.87375e-17 20 	-1.38982e-16 	-2.97643e-17 20 	-1.6064e-16 	7.04613e-19 20 	-1.6064e-16 	7.04613e-19 20 	-1.6064e-16 	7.04613e-19 20 	-1.00171e-16 	2.38641e-17 20 	-4.6969e-17 	1.05894e-16 20 	1.02816e-17 	1.21518e-16 20 	1.02816e-17 	1.21518e-16 20 	1.02816e-17 	1.21518e-16 20 	5.50359e-17 	6.62225e-17 20 	2.88292e-16 	1.57264e-16 20 	3.03714e-16 	1.53448e-16 20 	3.03714e-16 	1.53448e-16 20 	3.03714e-16 	1.53448e-16 20 	9.68431e-17 	5.58783e-17 20 	1.40197e-16 	1.42651e-16 20 	1.1892e-16 	1.57388e-16 20 	1.46764e-16 	1.92222e-16 20 	1.74609e-16 	2.27056e-16 20 	1.02275e-16 	1.83683e-16