/*--------------------------------*- C++ -*----------------------------------*\
  =========                 |
  \\      /  F ield         | OpenFOAM: The Open Source CFD Toolbox
   \\    /   O peration     | Website:  https://openfoam.org
    \\  /    A nd           | Version:  9
     \\/     M anipulation  |
\*---------------------------------------------------------------------------*/
FoamFile
{
    format      ascii;
    class       volVectorField;
    location    "91";
    object      ddtCorrDdt0(hU);
}
// * * * * * * * * * * * * * * * * * * * * * * * * * * * * * * * * * * * * * //

dimensions      [0 2 -2 0 0 0 0];

internalField   nonuniform List<vector> 
400
(
(5.75752e-10 1.84848e-10 0)
(6.30537e-10 1.40088e-09 0)
(2.56633e-09 1.05431e-09 0)
(1.83697e-09 -1.09664e-09 0)
(3.5226e-11 -2.10271e-09 0)
(1.67575e-10 1.35781e-10 0)
(4.77907e-10 1.121e-10 0)
(7.61167e-10 5.31027e-10 0)
(-1.64285e-09 6.11154e-10 0)
(-2.75572e-09 3.22687e-09 0)
(-8.17263e-10 2.28043e-09 0)
(-2.57041e-09 2.33039e-09 0)
(9.03218e-10 2.1132e-10 0)
(-2.39573e-10 4.65746e-11 0)
(3.41323e-10 1.31807e-09 0)
(2.17203e-09 2.56266e-10 0)
(-2.10966e-09 -4.9075e-10 0)
(-6.55077e-09 1.26442e-09 0)
(-3.72597e-09 3.59317e-09 0)
(5.43697e-09 2.20744e-09 0)
(1.88664e-09 -2.75088e-10 0)
(1.30534e-09 2.93871e-09 0)
(1.00817e-09 1.75498e-09 0)
(-3.57253e-10 -2.73077e-09 0)
(-1.74475e-10 -3.05398e-09 0)
(1.3537e-11 1.4088e-09 0)
(1.40967e-09 -1.09803e-09 0)
(-6.16281e-10 1.39225e-09 0)
(1.36204e-09 5.75658e-10 0)
(-2.02284e-09 5.31456e-09 0)
(-1.0878e-09 2.90924e-09 0)
(-2.16075e-09 2.34156e-09 0)
(-1.91698e-09 2.70573e-09 0)
(2.60801e-09 4.42289e-10 0)
(5.19303e-10 3.10465e-09 0)
(5.20045e-10 2.10144e-09 0)
(1.11334e-09 -5.76867e-10 0)
(-4.20419e-10 2.15275e-09 0)
(-1.15508e-09 6.80473e-09 0)
(7.18602e-10 4.04347e-09 0)
(2.87559e-09 -1.50617e-10 0)
(2.86765e-09 2.64956e-09 0)
(-4.01113e-10 4.56283e-10 0)
(-1.51469e-09 -2.38936e-09 0)
(-3.63946e-10 3.22321e-10 0)
(6.48672e-11 -4.9011e-10 0)
(7.92664e-10 -2.23572e-09 0)
(2.17989e-10 -7.94955e-10 0)
(3.13696e-10 1.84059e-09 0)
(1.30469e-09 8.76612e-11 0)
(-3.9868e-09 4.82867e-09 0)
(2.63327e-09 1.17218e-09 0)
(-1.47679e-09 3.38228e-09 0)
(8.19847e-10 3.89378e-09 0)
(2.60361e-09 3.38104e-09 0)
(-1.76344e-09 3.39271e-09 0)
(3.33246e-10 9.72758e-10 0)
(3.22958e-09 1.89282e-09 0)
(-6.95666e-10 5.39035e-09 0)
(-3.74709e-09 3.53319e-09 0)
(2.29588e-09 1.81277e-09 0)
(3.02059e-09 1.78216e-09 0)
(-7.72225e-10 -1.00922e-09 0)
(-1.03249e-09 -1.69162e-10 0)
(-1.02234e-09 1.18959e-09 0)
(2.9877e-10 -3.39777e-09 0)
(-1.40889e-09 -1.67627e-09 0)
(3.10644e-09 -1.43665e-09 0)
(-2.60644e-09 -3.82768e-10 0)
(2.14196e-09 3.22219e-09 0)
(4.31985e-09 -5.02798e-09 0)
(-6.04322e-09 7.50419e-09 0)
(3.71932e-09 1.84431e-09 0)
(6.17474e-10 2.24261e-09 0)
(-4.38942e-10 3.20074e-09 0)
(-1.72889e-09 2.22494e-09 0)
(-1.11832e-09 1.03453e-09 0)
(2.90635e-09 9.70613e-10 0)
(9.51501e-10 2.40716e-09 0)
(-6.26558e-09 1.90455e-09 0)
(1.35457e-10 3.36402e-09 0)
(1.50986e-09 7.66734e-10 0)
(-3.68255e-10 -1.18623e-09 0)
(-6.64811e-10 6.17379e-10 0)
(-1.36196e-10 -3.65132e-10 0)
(-1.2357e-09 -2.14709e-09 0)
(1.3776e-09 2.41537e-10 0)
(-2.25477e-09 9.25236e-10 0)
(7.73563e-09 -4.79736e-09 0)
(-1.1805e-08 6.03451e-09 0)
(5.03488e-09 -3.62777e-09 0)
(1.18625e-08 -6.89249e-09 0)
(-1.15584e-08 6.17138e-09 0)
(3.95523e-09 -1.21003e-09 0)
(3.25131e-09 -3.19684e-09 0)
(-4.10663e-09 -1.32793e-09 0)
(-3.60947e-09 2.00554e-10 0)
(1.04703e-09 7.09702e-10 0)
(1.16256e-09 -3.0485e-11 0)
(-6.00046e-09 -2.12224e-10 0)
(-2.60972e-09 2.69925e-09 0)
(-2.88545e-10 -1.74822e-10 0)
(-4.82309e-10 -8.57016e-10 0)
(5.35769e-10 2.61974e-10 0)
(-7.15624e-11 -5.60103e-10 0)
(7.83175e-10 6.96923e-10 0)
(-6.7015e-10 3.67072e-09 0)
(1.90459e-09 -2.52798e-09 0)
(-4.159e-09 7.44873e-09 0)
(1.8156e-08 -2.58072e-08 0)
(-2.5689e-08 3.29007e-08 0)
(2.19994e-08 -1.98322e-08 0)
(1.02128e-08 -1.32578e-08 0)
(-1.37573e-08 -2.04643e-10 0)
(1.50778e-09 -5.38383e-09 0)
(3.38112e-09 -5.21225e-09 0)
(-1.31026e-09 -1.49931e-09 0)
(-4.58786e-10 -1.49988e-10 0)
(2.76925e-10 -1.69597e-09 0)
(-4.75055e-09 -1.31627e-09 0)
(-3.70913e-09 3.2945e-10 0)
(-1.6366e-09 -1.18579e-09 0)
(-3.63801e-10 -4.27255e-10 0)
(7.36506e-10 3.40828e-10 0)
(1.65101e-09 4.9104e-10 0)
(9.50599e-10 3.51909e-09 0)
(-3.74542e-10 2.18171e-09 0)
(3.62521e-09 3.6459e-10 0)
(-1.47197e-08 -1.65783e-09 0)
(2.77275e-08 -1.71249e-08 0)
(2.6171e-09 1.44748e-07 0)
(-6.47328e-08 3.78245e-08 0)
(2.43335e-08 -1.38518e-08 0)
(1.3297e-08 -7.45224e-09 0)
(-3.67476e-09 -3.04282e-09 0)
(1.94105e-09 -5.67228e-09 0)
(2.42083e-09 -4.43566e-09 0)
(1.25714e-09 -3.03116e-09 0)
(9.89902e-10 -3.16497e-09 0)
(-2.00268e-09 -1.65017e-09 0)
(-2.90583e-09 -2.12345e-09 0)
(-1.95997e-09 -1.92982e-09 0)
(-4.31923e-10 1.58138e-10 0)
(1.56887e-09 8.21361e-10 0)
(1.91128e-09 1.74496e-09 0)
(1.27057e-09 3.9675e-09 0)
(-6.44496e-10 -8.49724e-10 0)
(-2.72995e-09 -1.42903e-09 0)
(-1.83543e-09 -8.73322e-09 0)
(1.08396e-07 2.45818e-08 0)
(1.36391e-08 -1.79175e-07 0)
(-1.90742e-07 -2.37254e-08 0)
(-5.22999e-08 1.38456e-08 0)
(3.15419e-09 -1.72211e-10 0)
(3.46862e-09 -2.50257e-09 0)
(2.46409e-09 -4.00512e-09 0)
(4.15978e-09 -3.12294e-09 0)
(3.97921e-09 -3.86385e-09 0)
(2.8213e-09 -3.22339e-09 0)
(6.69805e-10 -1.49838e-09 0)
(-8.73829e-10 -3.27125e-09 0)
(-1.44172e-09 -1.83567e-09 0)
(1.51934e-10 1.07705e-09 0)
(1.78646e-09 1.47376e-09 0)
(2.56194e-09 1.92768e-09 0)
(-4.24071e-10 1.27304e-09 0)
(-2.70059e-09 -2.8827e-09 0)
(-2.20491e-09 -2.72566e-09 0)
(-4.72535e-10 -3.6813e-09 0)
(-1.08545e-07 3.32692e-08 0)
(-1.26015e-08 -1.69649e-07 0)
(1.87376e-07 -1.48066e-08 0)
(4.36086e-08 2.25032e-08 0)
(-1.29237e-08 9.38993e-09 0)
(-8.77099e-09 3.81859e-09 0)
(1.34588e-09 7.61864e-10 0)
(-2.87335e-09 -3.59522e-09 0)
(3.43617e-09 -2.96245e-09 0)
(3.04232e-09 -2.36664e-09 0)
(5.57303e-09 -1.10043e-09 0)
(9.88226e-10 -2.35966e-09 0)
(-2.81747e-10 -1.06385e-09 0)
(8.74269e-10 1.79124e-09 0)
(1.97962e-09 1.90484e-09 0)
(1.05187e-09 3.32857e-10 0)
(-1.34058e-09 -1.43199e-09 0)
(-2.99373e-09 -4.24975e-09 0)
(-4.71987e-09 1.35962e-09 0)
(1.70849e-08 1.09051e-08 0)
(-2.16388e-08 -7.33056e-09 0)
(-4.58377e-09 1.46745e-07 0)
(7.00405e-08 4.20044e-08 0)
(-3.1874e-08 -3.47731e-09 0)
(-2.41375e-08 7.28061e-09 0)
(-7.98202e-09 8.39005e-09 0)
(-6.56775e-09 4.66537e-09 0)
(9.18107e-09 5.96141e-10 0)
(5.39864e-09 4.37654e-10 0)
(2.4276e-09 -3.54443e-10 0)
(-1.37119e-09 -4.58518e-10 0)
(1.7168e-09 1.76525e-10 0)
(5.92069e-10 1.05624e-10 0)
(1.42453e-09 1.0461e-09 0)
(1.2709e-09 1.66984e-09 0)
(-1.4095e-10 -1.33395e-09 0)
(-2.54546e-09 -2.61885e-09 0)
(-1.30607e-09 -4.90626e-10 0)
(4.67026e-09 -1.30575e-09 0)
(1.34592e-09 1.30857e-08 0)
(-6.24245e-09 -1.11104e-08 0)
(4.80069e-08 2.02823e-08 0)
(-3.4305e-08 9.89722e-09 0)
(4.47227e-09 -8.93901e-09 0)
(7.60075e-09 2.49512e-09 0)
(-1.08994e-08 2.99566e-09 0)
(-7.85915e-09 3.11595e-09 0)
(1.93457e-10 6.08296e-09 0)
(1.17652e-09 3.25599e-09 0)
(-7.84131e-10 6.29903e-10 0)
(5.49924e-10 -3.43136e-10 0)
(9.15306e-10 2.97295e-09 0)
(1.83637e-10 1.39089e-09 0)
(1.45349e-09 -6.41838e-10 0)
(3.54711e-10 -2.94552e-10 0)
(-7.96453e-10 -1.60975e-09 0)
(-1.91933e-09 -1.80625e-09 0)
(-8.51925e-10 3.6062e-09 0)
(3.49475e-09 5.31913e-10 0)
(1.03791e-08 -1.51621e-08 0)
(-1.49142e-08 -7.3249e-09 0)
(4.70325e-07 1.98697e-09 0)
(2.37083e-08 -4.34048e-08 0)
(-2.41986e-08 -6.31377e-09 0)
(-3.89556e-09 -1.31303e-08 0)
(-7.41891e-09 -9.39612e-09 0)
(-3.48585e-09 -7.69583e-10 0)
(2.73207e-10 3.48736e-09 0)
(-1.68432e-09 2.37594e-09 0)
(-2.94809e-09 -6.82476e-10 0)
(3.93882e-10 -9.59895e-10 0)
(-9.74323e-10 3.66221e-09 0)
(-1.14775e-09 2.45601e-09 0)
(3.84978e-10 -1.96722e-09 0)
(-1.10786e-10 -2.63037e-09 0)
(-7.05243e-10 -1.35088e-09 0)
(2.87031e-10 -8.01439e-10 0)
(-7.29409e-10 4.65925e-09 0)
(-1.28028e-09 2.43545e-09 0)
(-1.25754e-08 -1.53624e-08 0)
(4.08368e-08 -1.2925e-08 0)
(-4.92892e-07 -2.14795e-08 0)
(-3.57445e-08 -3.08375e-08 0)
(3.47354e-08 -1.7464e-08 0)
(-2.13343e-09 -1.69326e-08 0)
(3.19659e-09 -9.601e-09 0)
(7.10363e-09 -5.93916e-10 0)
(2.75794e-09 2.3663e-09 0)
(-3.23219e-09 1.28273e-09 0)
(-2.98335e-09 -8.1522e-10 0)
(2.86642e-09 -6.95665e-10 0)
(-2.10438e-09 1.1582e-09 0)
(-2.09647e-09 2.41009e-09 0)
(-8.7547e-10 -7.34416e-10 0)
(-9.51062e-10 -3.32759e-09 0)
(-2.87754e-10 -1.02654e-09 0)
(1.09401e-09 -1.04538e-09 0)
(8.35438e-10 1.61771e-09 0)
(-8.24598e-09 4.23115e-09 0)
(5.68098e-09 4.45597e-09 0)
(-2.13975e-08 2.17661e-09 0)
(-5.57374e-09 -2.1922e-08 0)
(2.27924e-08 2.57006e-08 0)
(-1.82829e-08 -3.34016e-09 0)
(3.06689e-09 -1.62503e-09 0)
(1.21573e-08 2.48073e-09 0)
(1.0345e-08 4.37585e-09 0)
(2.46255e-09 2.40165e-09 0)
(-3.31588e-09 1.12518e-09 0)
(-6.10911e-10 1.8784e-09 0)
(4.77475e-09 1.32014e-09 0)
(-1.2289e-09 -2.61964e-09 0)
(-6.78727e-10 1.18009e-09 0)
(-1.72939e-09 2.24825e-09 0)
(-1.71942e-09 -8.62054e-10 0)
(-1.20284e-09 -1.51183e-09 0)
(1.89257e-09 -1.57129e-09 0)
(8.8786e-10 -3.32971e-09 0)
(-7.60562e-11 3.27839e-09 0)
(-6.1618e-09 1.29703e-08 0)
(-2.95569e-09 2.77463e-09 0)
(3.11309e-09 2.7351e-08 0)
(-7.56956e-09 -1.30754e-10 0)
(7.42246e-09 8.62676e-09 0)
(1.04803e-08 1.13955e-08 0)
(1.23804e-08 1.04011e-08 0)
(7.35681e-09 6.54705e-09 0)
(-9.4874e-10 1.73722e-09 0)
(-2.64207e-09 1.57053e-09 0)
(1.05892e-09 4.60655e-09 0)
(2.20026e-09 2.94241e-09 0)
(1.38136e-09 -4.17199e-09 0)
(2.41278e-09 -7.38698e-10 0)
(-1.12466e-09 3.34427e-09 0)
(-3.03405e-09 2.17008e-09 0)
(-2.18956e-09 -7.83843e-10 0)
(5.40927e-10 -2.02765e-09 0)
(2.57051e-09 -5.46424e-09 0)
(1.56915e-09 -2.13692e-09 0)
(-1.4284e-09 4.04056e-09 0)
(4.49037e-09 1.33994e-08 0)
(2.22825e-09 1.03131e-08 0)
(9.46688e-10 1.40594e-08 0)
(7.3755e-09 1.49353e-08 0)
(9.50167e-09 1.2552e-08 0)
(8.14639e-09 9.26954e-09 0)
(-4.23653e-12 3.54901e-09 0)
(-3.99734e-09 9.51509e-11 0)
(-1.55698e-09 8.01228e-10 0)
(-4.9332e-10 3.27953e-09 0)
(-3.87005e-09 2.13086e-09 0)
(3.44068e-09 -1.82396e-09 0)
(4.33374e-09 -2.47402e-09 0)
(-9.48392e-11 3.81015e-10 0)
(-3.09678e-09 2.00167e-09 0)
(-2.94205e-09 8.8578e-10 0)
(-2.64937e-10 3.65719e-10 0)
(1.81959e-09 -2.66669e-09 0)
(2.39758e-09 -4.70247e-09 0)
(8.08444e-10 -2.35732e-09 0)
(4.97915e-10 5.05208e-10 0)
(-3.67103e-10 -1.20744e-09 0)
(2.57316e-09 6.02353e-09 0)
(3.5903e-09 6.40819e-09 0)
(4.28043e-09 5.32651e-09 0)
(9.28971e-10 9.58189e-10 0)
(-4.68463e-09 -2.5207e-09 0)
(-5.0155e-09 -2.16351e-09 0)
(-1.72164e-09 -1.49199e-09 0)
(-2.72065e-09 -1.58174e-09 0)
(-7.27308e-09 -7.7718e-10 0)
(3.10197e-09 2.54938e-09 0)
(2.55476e-09 -2.94003e-09 0)
(1.75802e-10 -4.79094e-09 0)
(-1.736e-09 -1.12341e-09 0)
(-1.50872e-09 2.19641e-09 0)
(-2.52935e-10 4.01062e-09 0)
(1.20185e-09 3.39023e-09 0)
(1.26364e-09 -8.87614e-10 0)
(3.6539e-10 -3.47717e-09 0)
(-2.07493e-09 -5.53161e-09 0)
(-6.06023e-10 -5.39193e-09 0)
(1.88256e-09 -4.33836e-09 0)
(1.20744e-09 -4.08115e-09 0)
(6.13085e-10 -4.7426e-09 0)
(-2.77146e-09 -7.67683e-09 0)
(-5.20731e-09 -8.02742e-09 0)
(-3.35735e-09 -4.43819e-09 0)
(-1.31215e-09 -3.95061e-09 0)
(-2.67802e-09 -6.53024e-09 0)
(-4.60579e-09 -3.8037e-09 0)
(-5.85903e-11 5.13365e-09 0)
(-2.19472e-09 -1.71053e-09 0)
(-5.97069e-10 -6.84413e-09 0)
(7.51514e-10 -3.79945e-09 0)
(1.52249e-09 2.33716e-09 0)
(1.10195e-09 5.00213e-09 0)
(1.17455e-09 6.35848e-09 0)
(4.5243e-10 3.31702e-09 0)
(-1.5466e-10 -9.25822e-11 0)
(-1.81609e-09 -3.24011e-09 0)
(-1.82691e-09 -3.02175e-09 0)
(-9.98531e-10 -4.83878e-09 0)
(-2.0509e-10 -6.3726e-09 0)
(-1.2874e-09 -7.63948e-09 0)
(-3.32839e-09 -9.67104e-09 0)
(-2.21396e-09 -8.45015e-09 0)
(-8.30509e-10 -4.48043e-09 0)
(-9.68666e-10 -4.08269e-09 0)
(5.21498e-10 -6.94728e-09 0)
(3.80482e-09 -4.19936e-09 0)
(-3.25713e-09 2.72273e-09 0)
(-6.3318e-09 -3.21133e-10 0)
(-1.99379e-09 -3.17683e-09 0)
(2.54416e-09 -2.19054e-09 0)
(3.877e-09 8.75835e-10 0)
(2.60766e-09 2.28655e-09 0)
(1.37307e-09 3.00603e-09 0)
(6.40499e-10 2.18899e-09 0)
(-1.49572e-10 7.52288e-10 0)
(-9.88768e-10 -5.42327e-10 0)
(-5.01102e-10 -8.57365e-10 0)
(-9.87651e-10 -1.46131e-09 0)
(-6.29568e-10 -2.4555e-09 0)
(-2.03194e-09 -3.32742e-09 0)
(-2.09959e-09 -4.08311e-09 0)
(7.63151e-10 -3.37792e-09 0)
(1.10616e-09 -1.79146e-09 0)
(2.38761e-10 -1.49826e-09 0)
(4.1098e-09 -2.57302e-09 0)
(1.02268e-08 -1.66265e-09 0)
)
;

boundaryField
{
    sides
    {
        type            calculated;
        value           nonuniform List<vector> 
40
(
(-3.25713e-09 0 0)
(-6.3318e-09 0 0)
(-1.99379e-09 0 0)
(2.54416e-09 0 0)
(3.877e-09 0 0)
(2.60766e-09 0 0)
(1.37307e-09 0 0)
(6.40499e-10 0 0)
(-1.49572e-10 0 0)
(-9.88768e-10 0 0)
(-5.01102e-10 0 0)
(-9.87651e-10 0 0)
(-6.29568e-10 0 0)
(-2.03194e-09 0 0)
(-2.09959e-09 0 0)
(7.63151e-10 0 0)
(1.10616e-09 0 0)
(2.38761e-10 0 0)
(4.1098e-09 0 0)
(1.02268e-08 0 0)
(5.75752e-10 0 0)
(6.30537e-10 0 0)
(2.56633e-09 0 0)
(1.83697e-09 0 0)
(3.5226e-11 0 0)
(1.67575e-10 0 0)
(4.77907e-10 0 0)
(7.61167e-10 0 0)
(-1.64285e-09 0 0)
(-2.75572e-09 0 0)
(-8.17263e-10 0 0)
(-2.57041e-09 0 0)
(9.03218e-10 0 0)
(-2.39573e-10 0 0)
(3.41323e-10 0 0)
(2.17203e-09 0 0)
(-2.10966e-09 0 0)
(-6.55077e-09 0 0)
(-3.72597e-09 0 0)
(5.43697e-09 0 0)
)
;
    }
    inlet
    {
        type            calculated;
        value           uniform (0 0 0);
    }
    outlet
    {
        type            calculated;
        value           nonuniform List<vector> 
20
(
(5.43697e-09 2.20744e-09 0)
(7.18602e-10 4.04347e-09 0)
(-3.74709e-09 3.53319e-09 0)
(-6.26558e-09 1.90455e-09 0)
(-6.00046e-09 -2.12224e-10 0)
(-4.75055e-09 -1.31627e-09 0)
(-2.00268e-09 -1.65017e-09 0)
(6.69805e-10 -1.49838e-09 0)
(5.57303e-09 -1.10043e-09 0)
(-1.37119e-09 -4.58518e-10 0)
(5.49924e-10 -3.43136e-10 0)
(3.93882e-10 -9.59895e-10 0)
(2.86642e-09 -6.95665e-10 0)
(4.77475e-09 1.32014e-09 0)
(2.20026e-09 2.94241e-09 0)
(-3.87005e-09 2.13086e-09 0)
(-7.27308e-09 -7.7718e-10 0)
(-4.60579e-09 -3.8037e-09 0)
(3.80482e-09 -4.19936e-09 0)
(1.02268e-08 -1.66265e-09 0)
)
;
    }
    frontAndBack
    {
        type            empty;
    }
}


// ************************************************************************* //
