/*--------------------------------*- C++ -*----------------------------------*\
  =========                 |
  \\      /  F ield         | OpenFOAM: The Open Source CFD Toolbox
   \\    /   O peration     | Website:  https://openfoam.org
    \\  /    A nd           | Version:  9
     \\/     M anipulation  |
\*---------------------------------------------------------------------------*/
FoamFile
{
    format      ascii;
    class       volVectorField;
    location    "91";
    object      hU;
}
// * * * * * * * * * * * * * * * * * * * * * * * * * * * * * * * * * * * * * //

dimensions      [0 2 -1 0 0 0 0];

internalField   nonuniform List<vector> 
400
(
(0.001 -2.42033e-08 0)
(0.00100004 -7.04195e-08 0)
(0.00100012 -1.13044e-07 0)
(0.00100024 -1.52411e-07 0)
(0.00100039 -1.87548e-07 0)
(0.00100058 -2.16914e-07 0)
(0.00100078 -2.37108e-07 0)
(0.00100099 -2.45544e-07 0)
(0.00100118 -2.36445e-07 0)
(0.00100133 -2.11049e-07 0)
(0.0010014 -1.68102e-07 0)
(0.0010014 -1.28057e-07 0)
(0.00100129 -9.86867e-08 0)
(0.00100111 -9.28335e-08 0)
(0.00100087 -9.94672e-08 0)
(0.00100065 -1.35455e-07 0)
(0.00100044 -1.56315e-07 0)
(0.00100034 -2.00713e-07 0)
(0.00100026 -1.88103e-07 0)
(0.00100033 -2.68238e-07 0)
(0.001 -2.66958e-08 0)
(0.00100005 -7.85108e-08 0)
(0.00100013 -1.27864e-07 0)
(0.00100026 -1.74194e-07 0)
(0.00100042 -2.13815e-07 0)
(0.00100062 -2.4059e-07 0)
(0.00100084 -2.46359e-07 0)
(0.00100108 -2.20749e-07 0)
(0.0010013 -1.54784e-07 0)
(0.00100147 -4.71637e-08 0)
(0.00100156 9.46197e-08 0)
(0.00100154 2.48601e-07 0)
(0.00100141 3.90486e-07 0)
(0.00100119 4.77305e-07 0)
(0.00100093 5.05618e-07 0)
(0.00100067 4.52268e-07 0)
(0.00100048 3.78733e-07 0)
(0.00100036 2.57655e-07 0)
(0.00100033 2.06046e-07 0)
(0.00100029 8.14317e-08 0)
(0.001 -5.26479e-08 0)
(0.00100004 -1.58794e-07 0)
(0.00100013 -2.66608e-07 0)
(0.00100026 -3.73878e-07 0)
(0.00100043 -4.7375e-07 0)
(0.00100064 -5.55763e-07 0)
(0.0010009 -6.04123e-07 0)
(0.00100117 -5.98043e-07 0)
(0.00100143 -5.18008e-07 0)
(0.00100164 -3.51299e-07 0)
(0.00100176 -1.08742e-07 0)
(0.00100176 1.63714e-07 0)
(0.00100159 4.03032e-07 0)
(0.00100131 5.21064e-07 0)
(0.00100095 5.00229e-07 0)
(0.00100062 3.54331e-07 0)
(0.00100037 2.03353e-07 0)
(0.00100026 4.64218e-08 0)
(0.00100022 -2.66114e-09 0)
(0.0010003 -1.16821e-07 0)
(0.001 -7.35301e-08 0)
(0.00100004 -2.22251e-07 0)
(0.00100013 -3.7492e-07 0)
(0.00100026 -5.30528e-07 0)
(0.00100045 -6.8051e-07 0)
(0.00100069 -8.10227e-07 0)
(0.001001 -8.89402e-07 0)
(0.00100134 -8.85779e-07 0)
(0.00100171 -7.55459e-07 0)
(0.00100203 -4.74435e-07 0)
(0.00100222 -2.24377e-08 0)
(0.00100219 4.94326e-07 0)
(0.00100192 9.37925e-07 0)
(0.00100146 1.14048e-06 0)
(0.00100097 1.05525e-06 0)
(0.00100058 7.43288e-07 0)
(0.00100041 4.23777e-07 0)
(0.00100035 1.7015e-07 0)
(0.0010004 1.02452e-07 0)
(0.00100034 6.15589e-10 0)
(0.001 -9.07308e-08 0)
(0.00100004 -2.77976e-07 0)
(0.00100012 -4.77198e-07 0)
(0.00100025 -6.94015e-07 0)
(0.00100044 -9.20679e-07 0)
(0.00100072 -1.13935e-06 0)
(0.00100109 -1.29872e-06 0)
(0.00100155 -1.33669e-06 0)
(0.00100207 -1.17499e-06 0)
(0.00100257 -7.77603e-07 0)
(0.0010029 -1.70026e-07 0)
(0.00100288 5.79262e-07 0)
(0.00100244 1.23169e-06 0)
(0.00100167 1.51175e-06 0)
(0.00100086 1.37502e-06 0)
(0.00100031 9.64336e-07 0)
(0.00100013 5.81023e-07 0)
(0.00100021 3.1422e-07 0)
(0.00100036 2.62264e-07 0)
(0.00100043 1.68e-07 0)
(0.001 -1.02918e-07 0)
(0.00100003 -3.18447e-07 0)
(0.00100009 -5.62397e-07 0)
(0.00100019 -8.44877e-07 0)
(0.00100038 -1.17296e-06 0)
(0.00100068 -1.52506e-06 0)
(0.00100115 -1.85857e-06 0)
(0.00100179 -2.0534e-06 0)
(0.00100254 -1.91046e-06 0)
(0.00100326 -1.20053e-06 0)
(0.00100377 8.62958e-08 0)
(0.00100378 1.5415e-06 0)
(0.00100309 2.43338e-06 0)
(0.00100192 2.30494e-06 0)
(0.00100082 1.42965e-06 0)
(0.00100019 4.91821e-07 0)
(0.00100017 1.27885e-08 0)
(0.00100037 -8.55476e-08 0)
(0.00100064 6.01787e-08 0)
(0.00100054 4.99731e-08 0)
(0.001 -1.0215e-07 0)
(0.001 -3.33409e-07 0)
(0.00100002 -6.02227e-07 0)
(0.00100008 -9.624e-07 0)
(0.00100021 -1.39286e-06 0)
(0.00100048 -1.94629e-06 0)
(0.001001 -2.48883e-06 0)
(0.00100188 -3.08355e-06 0)
(0.00100321 -3.2332e-06 0)
(0.00100473 -2.88061e-06 0)
(0.00100574 -6.62865e-07 0)
(0.00100535 2.55912e-06 0)
(0.0010035 4.82676e-06 0)
(0.00100112 4.73569e-06 0)
(0.000999608 3.0277e-06 0)
(0.000999372 1.26323e-06 0)
(0.00100001 4.30622e-07 0)
(0.00100056 3.26558e-07 0)
(0.00100093 5.61976e-07 0)
(0.00100066 5.33892e-07 0)
(0.000999996 -9.22166e-08 0)
(0.000999968 -2.88713e-07 0)
(0.000999907 -5.77321e-07 0)
(0.000999876 -9.5727e-07 0)
(0.000999879 -1.578e-06 0)
(0.0010001 -2.34495e-06 0)
(0.0010005 -3.40248e-06 0)
(0.00100152 -4.12489e-06 0)
(0.00100308 -4.37427e-06 0)
(0.00100602 -2.55084e-06 0)
(0.00100912 7.41379e-07 0)
(0.00100914 4.261e-06 0)
(0.0010055 4.71778e-06 0)
(0.00100074 2.78121e-06 0)
(0.000998151 7.34407e-07 0)
(0.000998275 -2.75246e-07 0)
(0.000999799 -2.85935e-07 0)
(0.00100088 -9.89308e-09 0)
(0.00100133 2.11777e-07 0)
(0.00100085 1.02673e-07 0)
(0.000999995 -4.90364e-08 0)
(0.000999915 -2.03821e-07 0)
(0.000999756 -3.86749e-07 0)
(0.000999531 -7.35297e-07 0)
(0.000999288 -1.33885e-06 0)
(0.000999211 -2.48164e-06 0)
(0.000999707 -4.68804e-06 0)
(0.00100139 -8.06929e-06 0)
(0.00100491 -1.32869e-05 0)
(0.00100957 -1.49132e-05 0)
(0.00101187 3.83084e-06 0)
(0.00100894 1.87246e-05 0)
(0.00100222 1.57815e-05 0)
(0.000997566 5.74183e-06 0)
(0.000996886 -3.16161e-07 0)
(0.000998462 -1.26368e-06 0)
(0.00100027 -9.49716e-08 0)
(0.001001 6.34094e-07 0)
(0.00100107 6.51342e-07 0)
(0.00100054 2.43562e-07 0)
(0.000999804 -1.9715e-08 0)
(0.00100017 -6.66919e-08 0)
(0.000999216 -1.51462e-07 0)
(0.000999904 -2.48725e-07 0)
(0.000997522 -5.92431e-07 0)
(0.000998843 -1.13179e-06 0)
(0.000993346 -2.88453e-06 0)
(0.00099753 -5.59335e-06 0)
(0.000991667 -1.15413e-05 0)
(0.000915831 -1.27047e-05 0)
(0.000951467 2.82655e-07 0)
(0.00101023 1.46457e-05 0)
(0.000990948 1.3086e-05 0)
(0.000983973 5.14242e-06 0)
(0.000989586 1.9515e-07 0)
(0.000996281 -7.81215e-07 0)
(0.000999237 -1.11908e-07 0)
(0.000999413 2.47968e-07 0)
(0.000998648 1.73847e-07 0)
(0.000998505 -1.85038e-07 0)
(0.000999804 1.31526e-08 0)
(0.00100017 4.59402e-08 0)
(0.000999215 1.17475e-07 0)
(0.000999903 2.00062e-07 0)
(0.000997519 5.29187e-07 0)
(0.000998838 1.05085e-06 0)
(0.000993338 2.78606e-06 0)
(0.000997519 5.47339e-06 0)
(0.000991651 1.13984e-05 0)
(0.000915809 1.25501e-05 0)
(0.000951434 -4.72184e-07 0)
(0.0010102 -1.49048e-05 0)
(0.000990945 -1.34076e-05 0)
(0.000983966 -5.53469e-06 0)
(0.000989566 -6.47876e-07 0)
(0.000996243 2.4846e-07 0)
(0.000999195 -4.71922e-07 0)
(0.000999367 -1.00222e-06 0)
(0.000998634 -9.88732e-07 0)
(0.000998455 -8.88755e-07 0)
(0.000999995 4.28458e-08 0)
(0.000999915 1.84007e-07 0)
(0.000999755 3.53443e-07 0)
(0.000999531 6.87287e-07 0)
(0.000999286 1.27624e-06 0)
(0.00099921 2.40097e-06 0)
(0.000999702 4.58924e-06 0)
(0.00100139 7.94345e-06 0)
(0.0010049 1.31312e-05 0)
(0.00100958 1.47161e-05 0)
(0.00101191 -4.06406e-06 0)
(0.0010089 -1.90102e-05 0)
(0.00100214 -1.60978e-05 0)
(0.000997477 -6.12459e-06 0)
(0.000996814 -8.52559e-08 0)
(0.000998401 7.75237e-07 0)
(0.00100017 -4.2689e-07 0)
(0.00100085 -1.30467e-06 0)
(0.00100088 -1.37913e-06 0)
(0.00100037 -1.2507e-06 0)
(0.000999995 8.64351e-08 0)
(0.000999967 2.70198e-07 0)
(0.000999905 5.44873e-07 0)
(0.000999871 9.10041e-07 0)
(0.00099987 1.51326e-06 0)
(0.00100008 2.26087e-06 0)
(0.00100048 3.29388e-06 0)
(0.00100149 3.99196e-06 0)
(0.00100303 4.21074e-06 0)
(0.00100595 2.36175e-06 0)
(0.00100899 -9.79606e-07 0)
(0.00100906 -4.54407e-06 0)
(0.00100543 -5.02225e-06 0)
(0.00100067 -3.13128e-06 0)
(0.000998059 -1.13209e-06 0)
(0.000998136 -2.51327e-07 0)
(0.000999623 -3.22197e-07 0)
(0.00100064 -7.40955e-07 0)
(0.00100106 -9.66805e-07 0)
(0.00100055 -1.07369e-06 0)
(0.001 9.65335e-08 0)
(0.001 3.15629e-07 0)
(0.00100002 5.71729e-07 0)
(0.00100007 9.17424e-07 0)
(0.0010002 1.33327e-06 0)
(0.00100047 1.87022e-06 0)
(0.00100097 2.39829e-06 0)
(0.00100185 2.97535e-06 0)
(0.00100318 3.11249e-06 0)
(0.00100469 2.73407e-06 0)
(0.00100568 5.05613e-07 0)
(0.00100528 -2.74915e-06 0)
(0.00100339 -5.07596e-06 0)
(0.00100097 -5.06963e-06 0)
(0.000999412 -3.44858e-06 0)
(0.000999123 -1.79343e-06 0)
(0.000999745 -1.02044e-06 0)
(0.00100025 -1.05872e-06 0)
(0.00100061 -1.30667e-06 0)
(0.00100024 -1.51525e-06 0)
(0.001 9.74371e-08 0)
(0.00100003 3.02274e-07 0)
(0.00100008 5.35607e-07 0)
(0.00100018 8.05939e-07 0)
(0.00100036 1.12138e-06 0)
(0.00100066 1.45872e-06 0)
(0.00100112 1.77713e-06 0)
(0.00100174 1.95038e-06 0)
(0.00100248 1.78361e-06 0)
(0.00100317 1.03685e-06 0)
(0.00100366 -2.75948e-07 0)
(0.00100363 -1.77887e-06 0)
(0.00100292 -2.7074e-06 0)
(0.00100171 -2.6293e-06 0)
(0.00100058 -1.77733e-06 0)
(0.000999905 -8.94524e-07 0)
(0.000999859 -4.26917e-07 0)
(0.000999982 -4.47958e-07 0)
(0.00100022 -6.16304e-07 0)
(0.00100001 -8.4841e-07 0)
(0.001 8.55329e-08 0)
(0.00100004 2.63609e-07 0)
(0.00100011 4.54099e-07 0)
(0.00100024 6.6187e-07 0)
(0.00100043 8.77883e-07 0)
(0.0010007 1.08406e-06 0)
(0.00100106 1.22894e-06 0)
(0.0010015 1.25177e-06 0)
(0.001002 1.07322e-06 0)
(0.00100248 6.57667e-07 0)
(0.0010028 1.92557e-08 0)
(0.00100275 -7.688e-07 0)
(0.00100228 -1.4483e-06 0)
(0.00100146 -1.7729e-06 0)
(0.00100062 -1.66714e-06 0)
(0.00100001 -1.34788e-06 0)
(0.000999794 -1.02954e-06 0)
(0.000999766 -9.37491e-07 0)
(0.000999885 -9.45807e-07 0)
(0.000999767 -1.10856e-06 0)
(0.001 6.90813e-08 0)
(0.00100004 2.09212e-07 0)
(0.00100012 3.53543e-07 0)
(0.00100025 5.01294e-07 0)
(0.00100043 6.44201e-07 0)
(0.00100066 7.65806e-07 0)
(0.00100096 8.37308e-07 0)
(0.00100129 8.25267e-07 0)
(0.00100163 6.90641e-07 0)
(0.00100191 4.05661e-07 0)
(0.00100206 -4.77388e-08 0)
(0.001002 -5.76314e-07 0)
(0.00100171 -1.03577e-06 0)
(0.0010012 -1.28147e-06 0)
(0.00100065 -1.22987e-06 0)
(0.00100016 -9.94776e-07 0)
(0.000999914 -7.02459e-07 0)
(0.00099974 -5.57504e-07 0)
(0.000999752 -4.88012e-07 0)
(0.000999561 -5.98552e-07 0)
(0.001 5.07602e-08 0)
(0.00100004 1.49656e-07 0)
(0.00100012 2.45907e-07 0)
(0.00100025 3.37966e-07 0)
(0.00100041 4.21248e-07 0)
(0.00100062 4.83496e-07 0)
(0.00100086 5.09257e-07 0)
(0.00100112 4.73912e-07 0)
(0.00100137 3.61724e-07 0)
(0.00100157 1.55456e-07 0)
(0.00100167 -1.17937e-07 0)
(0.00100161 -4.22485e-07 0)
(0.00100139 -6.82802e-07 0)
(0.00100103 -8.43358e-07 0)
(0.00100064 -8.51218e-07 0)
(0.00100022 -7.71694e-07 0)
(0.00099995 -6.38545e-07 0)
(0.00099969 -5.97253e-07 0)
(0.000999628 -5.62044e-07 0)
(0.000999388 -6.84896e-07 0)
(0.001 3.51898e-08 0)
(0.00100004 1.04815e-07 0)
(0.00100011 1.73705e-07 0)
(0.00100023 2.4058e-07 0)
(0.00100038 3.01491e-07 0)
(0.00100056 3.49736e-07 0)
(0.00100077 3.76149e-07 0)
(0.00100097 3.70052e-07 0)
(0.00100116 3.20954e-07 0)
(0.0010013 2.24542e-07 0)
(0.00100136 8.60013e-08 0)
(0.00100131 -7.11655e-08 0)
(0.00100115 -2.06957e-07 0)
(0.00100086 -2.98037e-07 0)
(0.00100054 -3.13045e-07 0)
(0.00100017 -2.82439e-07 0)
(0.000999902 -2.03062e-07 0)
(0.000999614 -1.68936e-07 0)
(0.000999518 -1.18768e-07 0)
(0.000999251 -1.98375e-07 0)
(0.001 -3.79952e-09 0)
(0.00100004 -9.81677e-09 0)
(0.00100012 -1.32788e-08 0)
(0.00100024 -1.53237e-08 0)
(0.00100039 -1.75074e-08 0)
(0.00100056 -2.29546e-08 0)
(0.00100075 -3.34456e-08 0)
(0.00100094 -5.28495e-08 0)
(0.00100111 -8.12292e-08 0)
(0.00100123 -1.21862e-07 0)
(0.00100128 -1.69723e-07 0)
(0.00100122 -2.3137e-07 0)
(0.00100107 -2.90661e-07 0)
(0.00100081 -3.41387e-07 0)
(0.00100053 -3.59774e-07 0)
(0.00100018 -3.68089e-07 0)
(0.000999947 -3.42445e-07 0)
(0.000999611 -3.52846e-07 0)
(0.000999524 -3.27881e-07 0)
(0.000999132 -4.1057e-07 0)
)
;

boundaryField
{
    sides
    {
        type            slip;
    }
    inlet
    {
        type            fixedValue;
        value           uniform (0.001 0 0);
    }
    outlet
    {
        type            zeroGradient;
    }
    frontAndBack
    {
        type            empty;
    }
}


// ************************************************************************* //
