/*--------------------------------*- C++ -*----------------------------------*\
  =========                 |
  \\      /  F ield         | OpenFOAM: The Open Source CFD Toolbox
   \\    /   O peration     | Website:  https://openfoam.org
    \\  /    A nd           | Version:  9
     \\/     M anipulation  |
\*---------------------------------------------------------------------------*/
FoamFile
{
    format      ascii;
    class       surfaceScalarField;
    location    "91";
    object      phi;
}
// * * * * * * * * * * * * * * * * * * * * * * * * * * * * * * * * * * * * * //

dimensions      [0 4 -1 0 0 0 0];

internalField   nonuniform List<scalar> 
760
(
5.00009e-06
-9.31701e-11
5.0004e-06
-3.04654e-10
5.00092e-06
-5.10668e-10
5.00162e-06
-7.06035e-10
5.00249e-06
-8.77796e-10
5.0035e-06
-1.00469e-09
5.00456e-06
-1.06061e-09
5.00557e-06
-1.01448e-09
5.0064e-06
-8.32281e-10
5.00692e-06
-5.2067e-10
5.00705e-06
-1.21394e-10
5.00665e-06
4.00686e-10
5.0058e-06
8.56237e-10
5.0047e-06
1.1043e-09
5.00353e-06
1.17321e-09
5.00257e-06
9.52976e-10
5.00185e-06
7.14999e-10
5.00161e-06
2.4581e-10
5.00151e-06
1.08805e-10
-3.90238e-10
5.00012e-06
-2.14587e-10
5.00045e-06
-6.31846e-10
5.00098e-06
-1.04337e-09
5.00172e-06
-1.445e-09
5.00265e-06
-1.80885e-09
5.00374e-06
-2.09444e-09
5.00493e-06
-2.24854e-09
5.00611e-06
-2.19293e-09
5.00713e-06
-1.85361e-09
5.00777e-06
-1.16651e-09
5.00775e-06
-8.96865e-11
5.00726e-06
8.89295e-10
5.00627e-06
1.84719e-09
5.00496e-06
2.41635e-09
5.00368e-06
2.44651e-09
5.00278e-06
1.85881e-09
5.00225e-06
1.24351e-09
5.00191e-06
5.79142e-10
5.00165e-06
3.69608e-10
-1.46903e-10
5.00011e-06
-3.2259e-10
5.00043e-06
-9.51765e-10
5.00096e-06
-1.5761e-09
5.00172e-06
-2.20658e-09
5.00272e-06
-2.805e-09
5.00394e-06
-3.31688e-09
5.00532e-06
-3.62566e-09
5.00672e-06
-3.59485e-09
5.00793e-06
-3.05893e-09
5.00872e-06
-1.96145e-09
5.00894e-06
-3.01958e-10
5.00825e-06
1.57159e-09
5.00687e-06
3.2288e-09
5.00515e-06
4.13576e-09
5.00351e-06
4.09298e-09
5.00231e-06
3.05569e-09
5.00166e-06
1.8874e-09
5.00147e-06
7.6721e-10
5.00145e-06
3.96695e-10
-2.21098e-10
5.0001e-06
-4.20986e-10
5.00041e-06
-1.26143e-09
5.00094e-06
-2.11311e-09
5.00175e-06
-3.00827e-09
5.00285e-06
-3.91117e-09
5.00428e-06
-4.74881e-09
5.00601e-06
-5.35115e-09
5.00795e-06
-5.52672e-09
5.00984e-06
-4.94908e-09
5.01108e-06
-3.18989e-09
5.0112e-06
-4.3446e-10
5.00999e-06
2.77955e-09
5.00765e-06
5.57201e-09
5.00514e-06
6.63814e-09
5.00347e-06
5.76265e-09
5.0027e-06
3.82744e-09
5.00248e-06
2.1081e-09
5.00231e-06
9.35829e-10
5.00199e-06
7.1012e-10
3.39834e-10
5.00009e-06
-5.01278e-10
5.00034e-06
-1.52052e-09
5.00083e-06
-2.60733e-09
5.00164e-06
-3.81125e-09
5.00286e-06
-5.13353e-09
5.00457e-06
-6.46475e-09
5.0068e-06
-7.57156e-09
5.00942e-06
-8.14296e-09
5.01239e-06
-7.91645e-09
5.01478e-06
-5.58706e-09
5.01483e-06
-4.60183e-10
5.01284e-06
4.74293e-09
5.00867e-06
9.74959e-09
5.00459e-06
1.07137e-08
5.00224e-06
8.11436e-09
5.00174e-06
4.32149e-09
5.00204e-06
1.80539e-09
5.00226e-06
7.26802e-10
5.00201e-06
9.54343e-10
6.28395e-10
5.00005e-06
-5.42184e-10
5.0002e-06
-1.67678e-09
5.00054e-06
-2.94854e-09
5.00121e-06
-4.48432e-09
5.00241e-06
-6.33418e-09
5.00452e-06
-8.57603e-09
5.0076e-06
-1.06475e-08
5.01167e-06
-1.22151e-08
5.01554e-06
-1.17637e-08
5.01901e-06
-9.09033e-09
5.02021e-06
-1.64598e-09
5.01602e-06
8.94149e-09
5.0095e-06
1.62438e-08
5.00421e-06
1.60042e-08
5.00217e-06
1.01575e-08
5.00249e-06
3.99765e-09
5.00327e-06
1.03115e-09
5.0034e-06
6.01684e-10
5.0028e-06
1.55052e-09
1.42398e-09
4.99998e-06
-5.22483e-10
4.99994e-06
-1.63524e-09
5.00003e-06
-3.04112e-09
5.00036e-06
-4.81501e-09
5.00122e-06
-7.19432e-09
5.00292e-06
-1.02757e-08
5.0068e-06
-1.45321e-08
5.01393e-06
-1.93333e-08
5.02374e-06
-2.16135e-08
5.03096e-06
-1.6228e-08
5.0287e-06
4.65247e-10
5.01674e-06
2.09588e-08
5.00419e-06
2.88104e-08
4.99873e-06
2.14513e-08
5.00057e-06
8.31147e-09
5.00285e-06
1.72638e-09
5.00372e-06
1.62601e-10
5.00367e-06
6.53763e-10
5.00305e-06
2.1657e-09
1.68245e-09
4.99987e-06
-3.89155e-10
4.99955e-06
-1.32135e-09
4.99912e-06
-2.61387e-09
4.99886e-06
-4.54455e-09
4.99933e-06
-7.6688e-09
5.00036e-06
-1.13047e-08
5.00365e-06
-1.78248e-08
5.00982e-06
-2.55189e-08
5.02488e-06
-3.66639e-08
5.05624e-06
-4.75117e-08
5.05002e-06
5.12036e-09
5.02314e-06
4.77406e-08
4.99817e-06
5.38099e-08
4.9935e-06
2.61394e-08
4.99947e-06
2.34265e-09
5.00408e-06
-2.87867e-09
5.00491e-06
-6.70556e-10
5.00373e-06
1.83498e-09
5.00351e-06
2.38105e-09
9.70043e-10
4.99977e-06
-1.58162e-10
4.99915e-06
-7.05819e-10
4.99792e-06
-1.38013e-09
4.99611e-06
-2.73288e-09
4.99402e-06
-5.57773e-09
4.99374e-06
-1.10296e-08
4.99945e-06
-2.35376e-08
5.01713e-06
-4.32008e-08
5.0557e-06
-7.52398e-08
5.06671e-06
-5.85728e-08
5.04974e-06
2.36637e-08
4.99653e-06
1.01063e-07
4.98931e-06
6.10205e-08
4.99591e-06
1.95435e-08
5.00019e-06
-1.93457e-09
5.00294e-06
-5.61569e-09
5.00253e-06
-2.79154e-10
5.00184e-06
2.5148e-09
5.00255e-06
1.67664e-09
8.277e-11
4.99986e-06
-1.63521e-11
4.9992e-06
-5.20455e-11
4.99791e-06
-8.63405e-11
4.99531e-06
-1.26748e-10
4.9899e-06
-1.69288e-10
4.97908e-06
-2.21012e-10
4.95582e-06
-2.73206e-10
4.91295e-06
-3.34141e-10
4.83815e-06
-3.92244e-10
4.77996e-06
-4.63437e-10
4.80431e-06
-5.51755e-10
4.90603e-06
-7.1885e-10
4.96777e-06
-7.47434e-10
4.98822e-06
-8.95508e-10
4.98745e-06
-1.158e-09
4.98326e-06
-1.42482e-09
4.98456e-06
-1.55561e-09
4.98891e-06
-1.82788e-09
4.99248e-06
-1.8965e-09
-2.58559e-09
4.99985e-06
1.26525e-10
4.9992e-06
6.01585e-10
4.99791e-06
1.21153e-09
4.9953e-06
2.48341e-09
4.98988e-06
5.24987e-09
4.97905e-06
1.05987e-08
4.95577e-06
2.30119e-08
4.91291e-06
4.25434e-08
4.83803e-06
7.44585e-08
4.77975e-06
5.78587e-08
4.80426e-06
-2.52051e-08
4.90598e-06
-1.02469e-07
4.96777e-06
-6.25133e-08
4.98806e-06
-2.12003e-08
4.98735e-06
-4.54016e-10
4.98293e-06
2.99785e-09
4.98443e-06
-3.05015e-09
4.98889e-06
-6.28547e-09
4.99235e-06
-5.35903e-09
-4.98459e-09
4.99977e-06
3.58928e-10
4.99915e-06
1.22319e-09
4.99792e-06
2.44314e-09
4.9961e-06
4.29596e-09
4.99402e-06
7.33191e-09
4.99373e-06
1.08847e-08
4.99942e-06
1.73177e-08
5.01708e-06
2.48975e-08
5.05564e-06
3.59035e-08
5.0671e-06
4.6324e-08
5.04959e-06
-7.6905e-09
4.99609e-06
-4.91195e-08
4.98884e-06
-5.5283e-08
4.99569e-06
-2.80569e-08
5.0001e-06
-4.87063e-09
5.00231e-06
7.88934e-10
5.00165e-06
-2.39098e-09
5.0009e-06
-5.5341e-09
5.00168e-06
-6.13828e-09
-5.95202e-09
4.99986e-06
4.93332e-10
4.99955e-06
1.54187e-09
4.99911e-06
2.87935e-09
4.99883e-06
4.57733e-09
4.99927e-06
6.88626e-09
5.00027e-06
9.89016e-09
5.00348e-06
1.41046e-08
5.0096e-06
1.87711e-08
5.02458e-06
2.09172e-08
5.05556e-06
1.54243e-08
5.04962e-06
-1.81522e-09
5.02284e-06
-2.21629e-08
4.99788e-06
-3.03115e-08
4.99316e-06
-2.33373e-08
4.99864e-06
-1.03457e-08
5.00345e-06
-4.01932e-09
5.00373e-06
-2.67022e-09
5.00235e-06
-4.16115e-09
5.00216e-06
-5.94496e-09
-6.53563e-09
4.99998e-06
5.13658e-10
4.99993e-06
1.59049e-09
5e-06
2.8038e-09
5.00031e-06
4.27555e-09
5.00113e-06
6.06239e-09
5.0028e-06
8.22918e-09
5.00669e-06
1.02136e-08
5.01378e-06
1.16661e-08
5.02357e-06
1.1136e-08
5.03069e-06
8.27922e-09
5.0284e-06
6.5192e-10
5.01625e-06
-1.00243e-08
5.00351e-06
-1.75495e-08
4.99778e-06
-1.76005e-08
4.99942e-06
-1.19786e-08
5.00161e-06
-6.21346e-09
5.0024e-06
-3.46467e-09
5.00213e-06
-3.89107e-09
5.00119e-06
-5.00905e-09
-5.97723e-09
5.00004e-06
4.74148e-10
5.00018e-06
1.44396e-09
5.0005e-06
2.48269e-09
5.00115e-06
3.63231e-09
5.00232e-06
4.89478e-09
5.0044e-06
6.15637e-09
5.00742e-06
7.191e-09
5.0114e-06
7.68228e-09
5.01513e-06
7.38703e-09
5.01853e-06
4.89078e-09
5.01956e-06
-3.93708e-10
5.01523e-06
-5.68721e-09
5.00855e-06
-1.0857e-08
5.00312e-06
-1.21682e-08
5.00088e-06
-9.74645e-09
5.00101e-06
-6.34636e-09
5.00155e-06
-4.0112e-09
5.00131e-06
-3.65549e-09
5.00035e-06
-4.04858e-09
-4.97795e-09
5.00008e-06
3.96418e-10
5.00033e-06
1.19681e-09
5.00079e-06
2.01033e-09
5.00156e-06
2.86019e-09
5.00275e-06
3.71474e-09
5.00441e-06
4.49881e-09
5.00656e-06
5.04661e-09
5.0091e-06
5.1453e-09
5.01203e-06
4.44622e-09
5.01441e-06
2.50802e-09
5.01414e-06
-1.40232e-10
5.01209e-06
-3.63515e-09
5.00776e-06
-6.53446e-09
5.00349e-06
-7.90902e-09
5.00093e-06
-7.19075e-09
5.00013e-06
-5.55307e-09
5.0001e-06
-3.98722e-09
4.99987e-06
-3.42633e-09
4.99917e-06
-3.34591e-09
-4.17412e-09
5.0001e-06
3.00216e-10
5.0004e-06
8.99703e-10
5.00091e-06
1.49647e-09
5.00167e-06
2.08997e-09
5.00273e-06
2.6514e-09
5.00412e-06
3.1165e-09
5.00579e-06
3.38489e-09
5.00763e-06
3.31058e-09
5.00933e-06
2.75088e-09
5.01027e-06
1.56552e-09
5.01043e-06
-3.08767e-10
5.00903e-06
-2.24251e-09
5.0065e-06
-4.01612e-09
5.00367e-06
-5.0867e-09
5.00154e-06
-5.06542e-09
5.00034e-06
-4.35825e-09
4.9997e-06
-3.34622e-09
4.99917e-06
-2.8894e-09
4.99845e-06
-2.6286e-09
-3.21742e-09
5.0001e-06
1.99973e-10
5.00041e-06
5.93026e-10
5.00093e-06
9.78932e-10
5.00166e-06
1.3526e-09
5.00262e-06
1.6937e-09
5.00378e-06
1.95408e-09
5.00509e-06
2.07309e-09
5.00645e-06
1.96227e-09
5.00765e-06
1.55991e-09
5.00839e-06
8.27814e-10
5.00822e-06
-1.32156e-10
5.00734e-06
-1.36487e-09
5.0057e-06
-2.38316e-09
5.00368e-06
-3.07088e-09
5.00179e-06
-3.17495e-09
5.00033e-06
-2.90191e-09
4.99931e-06
-2.32631e-09
4.99852e-06
-2.09362e-09
4.99773e-06
-1.83378e-09
-2.2793e-09
5.00008e-06
1.16096e-10
5.00037e-06
3.04501e-10
5.00087e-06
4.89235e-10
5.00155e-06
6.69306e-10
5.00241e-06
8.31473e-10
5.00341e-06
9.50485e-10
5.00448e-06
9.99404e-10
5.00551e-06
9.40173e-10
5.00633e-06
7.40497e-10
5.00679e-06
3.63859e-10
5.00681e-06
-1.41906e-10
5.00608e-06
-6.29769e-10
5.00479e-06
-1.09337e-09
5.00315e-06
-1.43046e-09
5.00148e-06
-1.50285e-09
5.00002e-06
-1.43894e-09
4.99889e-06
-1.18639e-09
4.99793e-06
-1.13314e-09
4.99707e-06
-9.76e-10
-1.42503e-09
5.00011e-06
5.00041e-06
5.00091e-06
5.00159e-06
5.00242e-06
5.00337e-06
5.00436e-06
5.00529e-06
5.00603e-06
5.00639e-06
5.00625e-06
5.00563e-06
5.00454e-06
5.00311e-06
5.00161e-06
5.00017e-06
4.99899e-06
4.99785e-06
4.99688e-06
)
;

boundaryField
{
    sides
    {
        type            calculated;
        value           uniform 0;
    }
    inlet
    {
        type            calculated;
        value           nonuniform List<scalar> 
20
(
-5e-06
-5e-06
-5e-06
-5e-06
-5e-06
-5e-06
-5e-06
-5e-06
-5e-06
-5e-06
-5e-06
-5e-06
-5e-06
-5e-06
-5e-06
-5e-06
-5e-06
-5e-06
-5e-06
-5e-06
)
;
    }
    outlet
    {
        type            calculated;
        value           nonuniform List<scalar> 
20
(
5.00191e-06
5.00141e-06
5.00152e-06
5.00143e-06
5.00172e-06
5.002e-06
5.00279e-06
5.00422e-06
5.00344e-06
4.99514e-06
4.99475e-06
5.00265e-06
5.00275e-06
5.00064e-06
4.99935e-06
4.99836e-06
4.99749e-06
4.99679e-06
4.99622e-06
4.99545e-06
)
;
    }
    frontAndBack
    {
        type            empty;
        value           nonuniform List<scalar> 0();
    }
}


// ************************************************************************* //
