/*--------------------------------*- C++ -*----------------------------------*\
  =========                 |
  \\      /  F ield         | OpenFOAM: The Open Source CFD Toolbox
   \\    /   O peration     | Website:  https://openfoam.org
    \\  /    A nd           | Version:  9
     \\/     M anipulation  |
\*---------------------------------------------------------------------------*/
FoamFile
{
    format      ascii;
    class       volScalarField;
    location    "60";
    object      sigmayz;
}
// * * * * * * * * * * * * * * * * * * * * * * * * * * * * * * * * * * * * * //

dimensions      [1 -1 -2 0 0 0 0];

internalField   nonuniform List<scalar> 
1000
(
5.9784e-14
8.03319e-14
-2.31695e-14
-1.88418e-14
-1.82305e-14
6.82044e-15
-8.40553e-14
5.80635e-14
-2.97758e-14
0
1.80957e-14
0
6.58798e-14
-1.20859e-13
-5.51123e-14
5.41546e-14
4.38575e-14
9.97139e-14
0
0
0
0
6.60029e-14
1.16833e-14
1.02711e-16
-5.21274e-14
4.32251e-14
-3.91242e-14
-4.28777e-15
-1.50108e-14
6.89298e-15
-1.53778e-14
-3.14645e-14
7.13721e-15
5.61732e-14
-4.6728e-14
-4.19273e-14
-9.41399e-14
-1.19713e-14
1.72866e-14
7.07193e-16
1.67875e-16
-8.45517e-14
-1.5653e-15
1.53064e-15
4.27155e-14
-1.20646e-15
3.67269e-14
-1.26595e-15
-2.37214e-14
1.09991e-14
-8.08205e-17
2.82331e-17
3.29998e-16
-4.18336e-14
1.12197e-16
3.40537e-14
7.40062e-14
1.3858e-14
-2.12619e-14
-1.44862e-14
9.77888e-15
2.01243e-14
-2.20841e-15
3.06622e-14
-2.73444e-14
9.06464e-15
-2.50262e-14
-6.87498e-15
-1.82725e-14
-2.31439e-14
-2.88582e-14
4.17446e-16
7.06662e-15
4.55457e-14
-4.69226e-15
-2.19694e-16
-2.20988e-14
3.63109e-15
6.46364e-15
-2.08715e-14
-2.82288e-14
1.26131e-14
1.33845e-14
-7.15106e-15
8.12682e-15
5.96952e-15
2.24511e-14
5.14949e-15
-1.21236e-14
-2.91914e-14
-2.097e-14
1.64962e-14
1.00438e-14
-3.36985e-16
-3.04728e-15
6.56254e-15
2.3434e-15
-8.1983e-15
-5.11357e-15
-6.59895e-14
5.15816e-15
-1.59597e-14
0
-1.73303e-15
-1.01514e-14
5.25591e-16
-7.05575e-15
3.15139e-15
8.79925e-15
-6.07934e-14
3.14476e-14
-2.03417e-14
-3.70847e-15
0
-1.16504e-14
1.56373e-15
1.73966e-18
5.11096e-16
4.50435e-15
-3.58872e-14
3.73554e-14
1.60083e-14
-5.95892e-15
0
-1.43741e-14
-1.81119e-14
1.08772e-14
-2.45171e-19
-7.91368e-15
4.16114e-14
-1.75611e-14
1.75696e-14
0
-1.10884e-14
9.73827e-15
-3.1489e-15
-1.47931e-15
6.02107e-15
1.08816e-14
-3.47381e-15
1.37678e-14
-2.10323e-14
2.00405e-14
1.8468e-16
1.45824e-14
9.39129e-15
0
-6.75723e-15
6.38611e-15
-1.24684e-13
-4.49669e-14
-3.92662e-14
-1.07035e-14
3.11067e-14
-1.86867e-14
2.71103e-17
-2.15825e-14
-6.95377e-19
-2.08418e-14
-4.80264e-14
-9.90799e-16
-9.28192e-16
-5.54628e-14
1.53604e-14
-3.23427e-14
5.68667e-14
3.52467e-18
1.20633e-14
-1.70123e-14
-3.19624e-14
-4.80911e-14
1.813e-14
-1.10415e-14
6.97564e-16
2.78582e-14
-4.24391e-15
7.31758e-16
-9.66273e-16
9.67177e-15
7.99647e-14
1.07971e-13
-9.08334e-16
4.16638e-14
4.76126e-14
4.14312e-14
4.25209e-15
-4.95684e-14
3.18509e-14
1.33516e-14
8.32187e-15
2.37423e-14
-3.36952e-14
8.44846e-14
-1.98139e-16
-4.58681e-14
-3.52581e-14
-1.8064e-14
3.80084e-15
6.30623e-15
3.04046e-15
5.59839e-15
2.46608e-15
-1.12775e-16
-8.07868e-15
0
0
2.38994e-16
2.32785e-15
6.6392e-16
5.91371e-15
-1.73839e-15
4.36226e-15
-1.75284e-15
-6.54841e-17
2.70992e-18
-8.56926e-16
9.50433e-16
-6.76066e-15
2.29822e-15
3.6693e-15
6.34304e-15
2.69969e-15
7.30592e-15
-2.85337e-15
-4.47398e-15
5.59541e-15
0
2.49069e-15
4.72787e-15
1.18086e-14
4.73184e-17
1.61351e-15
1.72287e-15
1.99692e-15
-2.22411e-15
-2.52873e-15
-5.69451e-15
-1.97092e-17
1.40601e-14
1.17106e-15
3.93192e-15
-2.67208e-15
-2.92391e-15
9.50296e-15
-6.21915e-15
-1.28709e-15
2.54782e-15
2.88905e-15
-3.51256e-15
3.65113e-15
6.45669e-15
8.03218e-17
-2.81596e-15
3.12802e-15
1.2551e-17
-4.11118e-15
5.16681e-15
1.16693e-14
-1.77939e-17
0
4.84965e-15
1.69617e-15
1.9756e-15
0
2.46783e-15
-9.15311e-15
-3.74551e-15
-3.72929e-15
-1.46871e-15
-3.03789e-15
5.48556e-15
3.57068e-15
1.82054e-15
2.84721e-15
-4.87234e-15
-1.74071e-17
1.91316e-14
-8.12161e-15
-2.02088e-14
-4.29267e-15
-6.40174e-15
-1.16425e-14
7.42263e-15
2.05978e-14
-2.56678e-15
0
2.54996e-15
-1.19282e-14
-6.93933e-15
5.18993e-16
-4.71807e-15
3.41331e-15
1.1728e-14
2.07911e-15
-4.40687e-15
1.93544e-15
3.19672e-16
1.67456e-14
3.10816e-14
2.79847e-15
3.96776e-16
-1.14209e-14
-2.45688e-14
8.93383e-15
6.88858e-15
-3.2413e-15
-2.13017e-15
1.87365e-14
-1.08196e-14
-4.58256e-15
1.44745e-14
-1.21928e-14
-1.6379e-14
-3.57275e-15
-1.82857e-14
-2.61796e-16
2.75268e-14
1.02207e-14
-2.00585e-15
-4.37789e-15
6.45061e-15
9.33967e-15
-5.21481e-15
-1.51156e-14
7.06242e-15
1.81557e-14
-2.74901e-14
-1.77413e-14
2.57165e-14
-1.00613e-14
1.50237e-14
1.45697e-14
-1.42255e-14
3.01445e-15
6.40412e-16
-3.00807e-14
9.79969e-15
1.20074e-14
-4.01232e-16
8.90578e-16
-8.30131e-15
2.69156e-15
0
0
-1.97632e-14
1.38185e-14
3.35031e-14
-2.1663e-14
-2.29556e-14
1.0423e-14
-4.87182e-16
1.57633e-14
2.76182e-14
9.65981e-16
-6.3727e-15
0
-4.62892e-15
1.37752e-15
9.13482e-16
-1.1845e-15
1.33504e-14
-1.3387e-14
-1.24404e-14
3.03155e-14
2.25111e-14
-2.4766e-14
5.70833e-15
2.09913e-15
-3.68151e-15
-2.33337e-14
5.69456e-16
-1.29329e-14
-9.24184e-16
9.67066e-15
-6.67382e-16
3.41133e-14
-2.80224e-15
-5.202e-14
-2.93439e-14
-3.60613e-15
-1.77786e-14
1.32335e-14
-2.62491e-14
-2.83061e-14
1.02233e-14
7.92778e-15
1.96901e-14
-2.26298e-14
-8.1956e-16
1.59745e-15
-1.90943e-14
0
-1.29942e-14
1.01697e-16
-1.60496e-14
9.69429e-15
7.74712e-15
9.88406e-17
-3.82306e-15
1.85592e-14
-2.02032e-14
-7.37017e-15
1.72838e-14
-3.73267e-14
-2.37753e-14
-2.04275e-14
5.96738e-15
4.0556e-14
-1.05811e-15
2.0156e-14
-8.44504e-16
0
-7.18775e-15
6.43641e-15
-4.89349e-16
-4.43608e-15
2.56018e-16
1.01588e-16
-9.03766e-17
1.98043e-14
0
-1.14046e-14
2.22383e-28
7.91729e-29
2.3338e-28
1.91888e-28
-7.35667e-15
0
6.96064e-15
-3.70771e-29
-7.13055e-15
7.41646e-15
1.01312e-28
-8.40045e-15
-6.32504e-29
1.00013e-14
1.10835e-14
-7.03364e-29
-8.37184e-29
-1.45264e-15
-1.54196e-14
-2.69846e-14
0
-3.77686e-15
-1.6808e-14
-2.08312e-14
-3.10906e-14
7.8661e-15
-1.99073e-14
-9.22533e-15
-1.70457e-14
-1.5699e-14
-7.20831e-15
-1.32054e-14
-1.20752e-14
-1.0519e-14
-5.06089e-15
-4.67671e-15
-4.39404e-15
7.52863e-14
1.47473e-14
-3.92993e-14
5.31167e-28
7.73299e-15
0
1.21698e-14
-1.77826e-14
5.0302e-28
1.68775e-14
-9.37959e-15
-5.55331e-29
-3.59877e-28
7.47664e-15
-1.97252e-28
-2.0397e-14
1.86988e-28
1.83204e-14
-5.22418e-15
-5.02959e-15
2.81352e-14
2.75774e-14
2.77832e-14
3.25835e-29
3.73962e-14
2.09737e-15
2.03852e-15
2.27678e-14
9.27186e-15
1.92073e-14
1.89344e-14
-2.84702e-16
7.18699e-15
7.69916e-15
2.445e-14
6.70988e-15
2.52657e-30
2.41756e-14
1.14481e-14
1.12133e-14
-1.68628e-14
-1.33617e-14
-1.28957e-14
0
1.15797e-14
2.32862e-14
-2.23042e-14
-1.01545e-14
9.88092e-15
1.00732e-14
1.61924e-28
8.9306e-15
0
-7.87719e-15
0
6.98693e-15
-1.1723e-14
8.66696e-29
4.24887e-29
-8.16059e-30
1.69575e-14
1.2691e-14
-1.30078e-14
3.44899e-28
2.12528e-30
1.19053e-14
1.14813e-14
-1.06765e-14
0
2.02554e-14
-3.10873e-28
-1.27892e-15
1.03835e-14
8.01344e-15
-1.09804e-14
7.22421e-15
1.20135e-14
1.27036e-14
-4.5212e-29
-1.45349e-28
1.18994e-14
1.20525e-14
1.20826e-14
0
1.17928e-14
0
1.1156e-14
0
0
0
9.40772e-15
0
0
8.11157e-15
0
0
0
6.98983e-15
6.91084e-15
6.9576e-15
-2.69993e-14
0
-1.15135e-14
0
-1.13223e-14
-1.10983e-14
0
0
0
-9.70955e-15
-9.30974e-15
-8.91352e-15
0
0
0
-7.58521e-15
0
-7.24148e-15
-7.20178e-15
-7.28161e-15
-4.34811e-14
-1.08973e-14
6.67206e-30
1.01363e-29
1.2568e-14
-2.29919e-14
-2.25098e-14
0
1.16624e-14
2.01233e-15
2.37922e-29
-2.03374e-14
-1.15696e-14
-8.21076e-15
1.19403e-14
-7.71374e-15
5.46386e-29
1.30273e-14
5.20642e-29
-4.68676e-29
1.30011e-14
5.45453e-29
-1.30063e-14
0
1.26833e-14
1.24823e-14
-1.22837e-14
-1.21042e-14
1.19572e-14
-2.90141e-28
-1.25164e-28
1.97544e-29
5.82491e-29
3.63713e-28
-2.88207e-29
5.85826e-29
-1.27094e-14
-5.24586e-29
-1.45095e-28
-5.34105e-29
-4.09649e-14
-1.4683e-28
-7.03182e-29
9.15379e-29
1.27639e-14
-1.26184e-14
-1.24655e-14
0
1.22e-14
1.21111e-14
-6.02609e-29
-1.20601e-14
-1.21065e-14
8.38317e-29
1.23498e-14
-2.78567e-30
2.83945e-30
1.307e-14
-1.45628e-28
-5.45449e-29
-9.65992e-16
-9.48642e-15
-1.28907e-14
0
1.28164e-14
2.22489e-14
-2.20309e-14
-3.10665e-14
1.23953e-14
8.93897e-15
1.17675e-28
8.5505e-15
-1.67231e-14
-8.18818e-15
-1.60808e-14
7.92887e-15
-1.28364e-14
0
-9.13432e-29
0
1.31595e-14
9.0958e-15
-1.28263e-14
2.23186e-29
3.05958e-29
9.1872e-15
3.45329e-14
-1.26249e-14
-2.50949e-14
2.12347e-14
-1.77357e-28
2.08873e-14
1.24688e-14
8.15528e-15
-1.26091e-14
-1.74879e-14
1.28601e-14
1.30197e-14
4.53254e-29
-4.60154e-29
-4.23992e-29
8.74143e-15
1.22475e-28
0
-1.21385e-28
-8.87236e-15
8.82784e-15
1.75189e-14
0
-8.56916e-15
-1.14676e-28
-8.34073e-15
1.64518e-14
8.11924e-15
1.60583e-14
-7.96624e-15
0
1.10625e-28
2.91628e-28
2.30152e-29
-1.22226e-14
4.30431e-29
-4.78736e-29
2.64824e-29
1.28474e-14
-1.28491e-14
-1.28223e-14
0
1.27377e-14
1.27016e-14
-1.88008e-28
-1.26756e-14
-1.26903e-14
0
1.27621e-14
7.92054e-30
-1.06398e-28
1.29035e-14
3.24742e-29
1.10565e-29
8.03209e-15
0
8.00877e-29
0
-2.38714e-29
-3.08102e-29
0
0
0
-1.00758e-28
1.10213e-29
-5.6259e-29
0
0
0
-5.4856e-29
0
2.77059e-28
5.56614e-29
5.7074e-29
-2.32997e-14
4.43216e-15
1.58348e-29
-2.62395e-29
1.27843e-14
-2.09668e-14
-2.09981e-14
0
1.28018e-14
4.62328e-15
-1.12485e-29
-2.08981e-14
-1.28007e-14
-8.05153e-15
1.28555e-14
-7.98258e-15
-3.23702e-29
1.27669e-14
-1.13477e-28
-1.84847e-30
4.32212e-15
-7.69181e-15
-4.67902e-15
0
2.06709e-14
1.27835e-14
-2.08406e-14
-1.28056e-14
1.27981e-14
-2.61291e-28
8.08443e-15
-2.84221e-30
-5.54037e-29
-8.05076e-15
-5.51936e-29
6.12825e-29
-1.28731e-14
7.95914e-15
8.00302e-15
8.33176e-15
-6.15645e-15
-4.07683e-15
-4.16169e-15
0
4.26132e-15
4.28521e-15
-4.29795e-15
-4.30373e-15
4.30621e-15
-4.96383e-29
2.96837e-29
8.24836e-30
1.84117e-29
4.83116e-29
1.83997e-29
4.85124e-29
-4.37823e-15
0
0
0
1.34367e-14
9.97608e-15
-6.58871e-15
2.17843e-15
-1.28697e-14
-3.71977e-15
4.23071e-14
-1.23969e-14
-1.73836e-14
0
6.29071e-15
2.92223e-14
3.00219e-14
4.14879e-14
-1.38108e-14
-2.55661e-14
-4.8478e-14
5.08387e-14
-1.92619e-14
1.87288e-14
-1.34853e-14
-2.22373e-14
-2.04639e-14
2.62125e-14
3.23505e-14
2.59595e-14
-5.53375e-15
-1.0263e-14
-1.89292e-15
1.91898e-14
-1.36616e-48
-4.25939e-15
-2.69275e-14
-3.86418e-14
2.23275e-14
-2.57038e-14
2.11794e-14
3.23768e-14
-2.83316e-15
3.8434e-14
7.99688e-16
1.90821e-14
0
-1.78618e-14
-9.06368e-15
1.30248e-14
-2.84833e-14
-3.00793e-14
-1.72292e-14
-6.38808e-14
-1.51515e-15
1.20036e-14
2.35461e-14
-7.15627e-15
-1.98173e-14
2.47806e-14
1.28854e-14
-8.22867e-16
4.35848e-14
-1.69541e-14
-1.12018e-48
-2.60943e-14
1.41663e-14
6.33182e-15
-2.59836e-14
-8.13177e-15
2.225e-14
-1.57521e-14
2.98292e-14
6.07983e-14
-8.01995e-15
-9.20677e-15
3.01737e-16
9.70515e-15
-2.93057e-14
-1.33263e-14
-9.57656e-16
-3.89603e-14
-6.17299e-14
1.7039e-14
1.79381e-14
2.49507e-14
-4.05944e-15
1.82939e-14
1.97144e-14
-3.78345e-14
4.64312e-14
1.26659e-15
-6.37793e-14
-8.03906e-14
2.77685e-14
3.31245e-14
2.1922e-15
-1.20019e-14
5.44969e-14
2.0101e-14
2.38321e-14
6.82435e-14
3.46938e-14
-1.81163e-14
-4.71013e-14
-2.1587e-14
-2.66644e-15
-6.15235e-15
-3.42733e-14
4.98427e-14
1.89986e-14
3.34799e-14
3.33952e-14
2.8474e-16
-2.04383e-14
-3.32033e-14
-3.7919e-15
-5.007e-15
-4.47855e-14
-1.56678e-14
9.16725e-15
1.0453e-14
2.79628e-14
1.4475e-15
2.96723e-14
1.17276e-14
6.24485e-15
2.82218e-16
-2.37872e-14
-1.92962e-14
-4.68383e-15
-5.161e-17
-5.38773e-17
1.6421e-14
-5.90383e-49
9.8186e-15
9.92414e-15
4.91711e-15
9.78535e-15
3.50558e-16
9.629e-15
-9.84997e-15
-1.96741e-14
2.26214e-14
-5.16987e-49
0
-2.95509e-14
0
-3.21554e-14
2.08397e-14
3.54663e-14
2.0099e-14
-1.29925e-14
-4.52635e-14
-9.6772e-15
5.73424e-15
1.90012e-14
5.85052e-16
-1.26595e-14
-3.95583e-14
4.41224e-14
9.02521e-15
2.85023e-14
1.16418e-14
-4.6123e-16
-5.42929e-15
2.92892e-14
-2.04705e-14
2.90725e-14
-3.31917e-14
7.65383e-16
2.73374e-14
-9.03831e-15
-8.6877e-15
3.38694e-17
1.87764e-14
-3.80953e-14
-9.93014e-15
-1.59576e-14
0
-1.85649e-14
9.11111e-15
2.01208e-14
-1.28675e-14
1.69846e-14
-5.52584e-15
8.36803e-15
1.53549e-14
-1.4337e-14
-9.12734e-15
0
-8.85909e-15
8.59798e-15
-6.5625e-17
9.15321e-15
-7.72004e-15
7.89097e-15
4.29518e-15
-1.2727e-15
-5.04579e-15
6.3725e-17
-2.94943e-15
3.25962e-15
-2.4219e-15
)
;

boundaryField
{
    left
    {
        type            symmetryPlane;
    }
    right
    {
        type            calculated;
        value           nonuniform List<scalar> 
30
(
2.29822e-15
1.40601e-14
-1.77939e-17
-2.02088e-14
3.10816e-14
-2.00585e-15
-4.01232e-16
9.13482e-16
-2.93439e-14
-3.82306e-15
-9.03766e-17
-8.37184e-29
-4.39404e-15
-5.02959e-15
1.12133e-14
-8.16059e-30
-1.45349e-28
6.9576e-15
-7.28161e-15
-4.68676e-29
-5.34105e-29
-5.45449e-29
0
-4.60154e-29
2.30152e-29
1.10565e-29
5.7074e-29
-1.84847e-30
8.33176e-15
0
)
;
    }
    down
    {
        type            symmetryPlane;
    }
    up
    {
        type            calculated;
        value           nonuniform List<scalar> 
30
(
-5.77868e-17
7.33858e-17
-6.96544e-17
-2.77954e-18
3.73991e-17
-9.57046e-18
7.26345e-19
1.23437e-17
4.14326e-17
6.12753e-17
-3.8536e-17
-5.50424e-17
-5.73301e-17
0
6.16214e-17
6.36007e-17
-6.55272e-17
-6.74876e-17
6.95962e-17
-1.01017e-30
5.15017e-31
-4.57623e-32
-5.86966e-32
5.43997e-31
-6.3771e-32
6.43052e-31
-1.16563e-16
0
0
0
)
;
    }
    hole
    {
        type            calculated;
        value           nonuniform List<scalar> 
20
(
6.30023e-14
6.36002e-14
0
2.69983e-14
1.67928e-14
3.84579e-14
-4.50434e-14
-5.73554e-14
-2.06362e-14
-7.51437e-15
-6.61396e-14
-5.95294e-14
-3.36524e-14
3.35377e-14
7.92979e-15
-9.56357e-14
-4.91253e-14
-7.80736e-14
2.73655e-14
8.58772e-15
)
;
    }
    frontAndBack
    {
        type            empty;
    }
}


// ************************************************************************* //
