/*--------------------------------*- C++ -*----------------------------------*\
  =========                 |
  \\      /  F ield         | OpenFOAM: The Open Source CFD Toolbox
   \\    /   O peration     | Website:  https://openfoam.org
    \\  /    A nd           | Version:  9
     \\/     M anipulation  |
\*---------------------------------------------------------------------------*/
FoamFile
{
    format      ascii;
    class       volScalarField;
    location    "60";
    object      sigmaxz;
}
// * * * * * * * * * * * * * * * * * * * * * * * * * * * * * * * * * * * * * //

dimensions      [1 -1 -2 0 0 0 0];

internalField   nonuniform List<scalar> 
1000
(
-7.11383e-14
-1.12175e-13
1.39594e-13
2.22573e-14
-1.30019e-13
-7.44131e-16
-1.52484e-13
9.12867e-14
-9.25204e-14
0
-1.17128e-13
0
1.31869e-13
-2.27233e-13
-9.82197e-14
8.47533e-14
7.72788e-14
1.61323e-13
0
0
0
0
1.28195e-13
-2.49151e-14
-1.84544e-16
-8.17141e-14
7.10545e-14
-6.79784e-14
1.58434e-14
-1.08296e-14
-7.21629e-14
6.03233e-14
-6.22411e-14
-2.33633e-14
8.13023e-14
-8.22776e-14
-7.29787e-14
-1.63694e-13
-4.35022e-14
4.5482e-14
-4.41405e-14
-1.58035e-15
-1.90173e-13
1.09803e-14
-1.25325e-14
7.49848e-14
1.22274e-15
5.92246e-14
-5.81268e-14
-4.39151e-14
-1.38294e-13
-1.3994e-15
8.50012e-16
9.77932e-15
-8.70715e-14
2.17055e-16
6.71697e-14
1.53421e-13
2.71494e-14
-5.59243e-14
1.68917e-13
3.77499e-14
6.05434e-14
-8.95091e-15
7.43181e-14
-6.9446e-14
-1.80401e-15
-5.77976e-14
7.28157e-15
-2.72334e-14
2.96221e-13
-1.49712e-13
8.06557e-16
1.2824e-14
1.56105e-13
-2.63224e-15
2.09321e-17
-5.38908e-14
-2.55451e-15
2.23512e-15
1.74524e-13
-1.59616e-13
1.17791e-14
1.17542e-14
-4.69162e-15
6.69797e-14
-2.56605e-16
1.08178e-13
2.44692e-14
1.89366e-14
1.88311e-13
-5.70884e-15
6.21005e-14
2.73049e-15
-6.93868e-17
6.69236e-14
-6.58124e-17
5.31215e-14
1.06879e-15
-3.52323e-16
6.46874e-15
8.15164e-15
-6.82272e-15
0
-1.32733e-14
-4.29049e-15
2.28472e-14
1.04979e-14
1.94873e-14
5.90094e-15
-3.68959e-15
1.8126e-14
-1.69035e-14
-4.01486e-15
0
-2.01539e-14
2.3247e-14
1.01243e-16
-7.05233e-14
8.96657e-15
-4.61407e-15
2.63122e-14
2.35461e-14
-3.03166e-15
0
-3.49816e-14
-4.73441e-14
4.16465e-14
2.04659e-17
-4.22881e-14
1.93508e-14
1.77934e-15
3.23277e-14
0
-4.39581e-14
2.23204e-14
-1.99178e-14
-3.92774e-14
1.69801e-14
3.22359e-14
-3.93005e-14
-5.3807e-14
-4.00532e-14
-6.3046e-17
9.00711e-17
4.56529e-14
2.50242e-14
0
-5.35491e-14
1.72737e-14
-1.93999e-14
1.76688e-14
-4.13964e-14
1.93403e-15
7.5643e-14
-5.74659e-14
1.09167e-16
-6.62409e-14
1.7816e-17
-5.47437e-14
2.61787e-14
5.33412e-16
4.60646e-16
-9.04644e-14
2.74929e-16
-7.5525e-14
1.35669e-13
7.61509e-17
1.41022e-14
-4.12534e-14
1.21744e-13
3.35309e-14
-1.18704e-14
5.68914e-15
-1.26522e-16
7.54375e-14
-1.27987e-14
1.85146e-14
1.31468e-14
4.23745e-14
4.58127e-14
3.55596e-15
7.58028e-16
1.16375e-13
9.55554e-14
8.50308e-14
1.16944e-14
-1.03037e-13
3.88009e-14
2.79253e-14
-8.22568e-15
-2.62159e-14
-6.17486e-14
2.50747e-13
1.19382e-16
-8.73427e-14
-6.43303e-14
-3.63302e-14
-3.2378e-14
6.6477e-14
4.87795e-14
3.73633e-15
-7.84024e-14
-2.80599e-14
-4.64747e-15
0
0
3.18217e-14
1.38389e-15
6.59532e-14
3.75044e-15
-1.4209e-15
3.33568e-15
-1.0314e-13
3.34718e-14
1.23147e-16
-3.42265e-14
3.38148e-14
-6.50941e-14
-3.34457e-14
7.89737e-14
1.11229e-14
-2.23661e-14
9.66713e-14
-2.36334e-15
-9.66563e-14
9.31771e-15
0
3.43322e-15
7.89811e-15
5.02242e-14
7.15866e-16
-2.90533e-14
3.41556e-14
3.47349e-14
-3.41515e-14
-3.41153e-14
-6.74458e-14
-6.04096e-16
1.9957e-14
2.68392e-14
1.07117e-14
-8.66039e-14
1.81478e-14
1.07104e-13
-1.006e-13
-3.39897e-14
6.48179e-14
-5.16649e-14
-6.81068e-14
6.54286e-14
1.00673e-13
7.36716e-16
-3.40928e-14
3.35181e-14
1.17904e-16
-3.38739e-14
2.93734e-14
1.44795e-14
2.49451e-17
0
1.33932e-14
3.0802e-14
3.50614e-14
0
-2.06111e-14
-5.18303e-14
-6.5358e-14
-1.19321e-14
5.02921e-14
1.78105e-14
1.7343e-14
-1.11577e-14
2.63085e-14
2.73633e-14
-3.35496e-14
-1.05024e-16
9.39463e-14
-2.67578e-14
-3.58059e-14
3.69984e-14
-1.86361e-14
-8.3482e-14
4.44182e-14
1.12939e-13
-3.45548e-14
0
3.30701e-14
-3.34358e-14
-4.51176e-14
-4.4177e-14
-5.91013e-14
6.8019e-14
9.13417e-14
8.95491e-15
-2.45828e-14
1.57905e-14
7.5224e-15
7.75515e-14
2.99211e-14
3.24622e-14
1.97423e-15
-5.43979e-14
-1.40317e-13
4.71805e-14
7.01028e-14
-3.37986e-14
1.73172e-14
7.90416e-14
-9.78343e-14
-3.59642e-14
1.40847e-13
-2.31518e-14
-9.8133e-14
-2.24275e-14
-8.60685e-14
-1.27445e-15
1.04557e-13
2.35265e-14
5.11849e-15
-3.49108e-14
3.57962e-14
2.51111e-14
-3.6364e-14
-4.0188e-14
1.90597e-14
7.40066e-14
-1.21918e-13
-7.51404e-14
1.1583e-13
-2.96039e-14
9.67506e-14
6.17384e-14
-8.20182e-14
2.41597e-14
2.67287e-15
-1.15799e-13
3.11168e-14
4.08701e-14
3.08681e-15
2.94635e-15
-3.70964e-14
-1.35158e-14
0
0
-9.40325e-14
9.67207e-14
1.94581e-13
-1.5338e-13
-1.21728e-13
6.40799e-14
1.35133e-14
4.82509e-14
1.08603e-13
3.64114e-15
-2.3616e-14
0
-2.47574e-14
1.09998e-14
1.04892e-14
-3.44497e-15
2.91698e-14
-3.1246e-14
-2.99823e-14
9.35306e-14
5.83297e-14
-8.13587e-14
-2.32459e-14
1.94406e-14
2.49634e-14
-6.52082e-14
2.08052e-15
-7.28655e-14
-3.23656e-15
3.07018e-14
-2.30117e-15
1.01834e-13
-1.26012e-14
-1.28712e-13
-2.33514e-14
-4.87275e-15
-3.26382e-14
4.02719e-14
-1.12275e-13
-1.08469e-13
7.0541e-14
7.50704e-14
9.58533e-14
-8.15944e-14
4.98919e-17
-2.03522e-15
-8.78219e-14
0
-2.76374e-14
-1.40805e-16
-5.05843e-14
2.83542e-14
3.02552e-14
1.08656e-15
-7.97604e-15
5.08599e-14
-3.44729e-14
-2.27854e-14
3.13147e-14
-4.74769e-14
-3.40167e-14
-5.71496e-14
-4.24665e-15
1.01148e-13
-5.57439e-15
4.81184e-14
-4.15996e-15
0
-1.85145e-14
1.75957e-14
-1.54053e-15
-9.91026e-15
3.14523e-16
-2.77503e-16
-2.87687e-16
4.27386e-14
0
-3.46612e-14
6.34681e-28
7.52277e-29
4.77373e-28
5.55466e-28
-3.0132e-14
0
2.88468e-14
-2.26774e-28
-2.7811e-14
2.73704e-14
2.95121e-28
-2.66159e-14
-1.82354e-28
2.60083e-14
2.57604e-14
-1.20897e-28
-4.00459e-29
1.84528e-14
-1.81727e-14
-5.30418e-14
0
1.46587e-14
-4.04583e-15
-4.90228e-14
-6.55497e-14
2.97991e-14
-3.39636e-14
-1.67155e-14
-3.2929e-14
-3.24644e-14
-1.60194e-14
-3.16501e-14
-3.12917e-14
-2.61868e-14
-1.53114e-14
-1.51404e-14
-5.02613e-15
1.59655e-13
1.63748e-14
-8.57471e-14
1.31279e-27
4.87608e-14
0
1.70275e-14
-6.13467e-14
1.46993e-27
5.8778e-14
-1.64657e-14
-1.88944e-28
-1.14651e-27
1.59837e-14
-5.56228e-28
-5.3285e-14
4.5776e-28
3.67926e-14
-1.52462e-14
-5.0679e-15
2.83093e-14
4.95016e-14
3.06253e-14
1.68946e-28
6.47016e-14
-1.59368e-14
-1.51581e-14
3.25231e-14
3.00915e-14
4.56962e-14
3.22637e-14
-1.23722e-14
3.96179e-15
1.58511e-14
5.86074e-14
1.56352e-14
5.87873e-30
5.70253e-14
3.0513e-14
1.01566e-14
-1.55359e-14
-1.34391e-14
-3.35972e-14
0
3.2479e-14
4.71062e-14
-4.6707e-14
-3.06548e-14
3.00675e-14
1.5731e-14
3.13161e-28
1.57302e-14
0
-1.56447e-14
0
1.55018e-14
-2.65841e-14
1.95904e-28
1.04544e-28
4.94405e-30
3.58439e-14
1.22933e-14
-3.30011e-14
7.03572e-28
-1.85906e-28
1.44009e-14
1.47074e-14
-3.04874e-14
0
4.46788e-14
-8.02263e-28
-1.30931e-14
2.80281e-14
1.53853e-14
-2.72594e-14
1.53086e-14
2.66702e-14
2.64609e-14
-1.03643e-28
-9.4708e-29
1.05546e-14
1.13432e-14
1.2048e-14
0
1.32021e-14
0
1.40287e-14
0
0
0
1.49013e-14
0
0
1.5092e-14
0
0
0
1.49636e-14
1.48798e-14
4.97435e-15
-4.31822e-14
0
-1.12915e-14
0
-1.25068e-14
-1.30013e-14
0
0
0
-1.43019e-14
-1.44848e-14
-1.46224e-14
0
0
0
-1.48118e-14
0
-1.47389e-14
-1.46713e-14
-4.91202e-15
-9.56532e-14
-9.9681e-15
6.53694e-29
1.2724e-28
3.05511e-14
-4.27103e-14
-4.28409e-14
0
2.92419e-14
1.50039e-14
-9.73534e-31
-4.24319e-14
-2.78413e-14
-1.44678e-14
2.72517e-14
-1.45383e-14
1.0577e-28
2.66599e-14
1.01036e-28
-2.93077e-29
3.03471e-14
-7.45406e-29
-3.0304e-14
0
2.99909e-14
2.97677e-14
-2.95114e-14
-2.92304e-14
2.8933e-14
-5.7636e-28
-1.92283e-28
9.41223e-29
9.65926e-29
7.67914e-28
-8.95255e-29
1.36813e-28
-2.68205e-14
-9.81008e-29
-2.80757e-28
-3.28543e-29
-8.98753e-14
-1.96902e-28
-7.13847e-29
2.09987e-28
2.94299e-14
-2.92671e-14
-2.90716e-14
0
2.86101e-14
2.83582e-14
-9.08513e-29
-2.78448e-14
-2.75965e-14
1.87973e-28
2.71504e-14
-5.98791e-30
5.95527e-30
2.67174e-14
-2.79449e-28
-3.23747e-29
-2.77497e-16
-9.02667e-15
-2.8976e-14
0
2.88786e-14
4.01672e-14
-4.04883e-14
-5.29855e-14
2.82845e-14
1.29019e-14
1.74798e-28
1.33445e-14
-2.69983e-14
-1.36152e-14
-2.73943e-14
1.37495e-14
-2.68093e-14
0
-1.83374e-28
0
2.81777e-14
8.97903e-15
-2.83461e-14
1.18816e-28
9.95064e-29
1.1247e-14
6.81047e-14
-2.80982e-14
-5.59327e-14
4.05129e-14
-2.66645e-28
4.06139e-14
2.73258e-14
1.33831e-14
-2.7016e-14
-4.02582e-14
2.67893e-14
2.67279e-14
9.1741e-29
-3.0578e-29
-9.44358e-29
9.06002e-15
1.34117e-28
0
-1.46612e-28
-1.11991e-14
1.16115e-14
2.39469e-14
0
-1.25503e-14
-2.89266e-28
-1.29451e-14
2.61635e-14
1.31836e-14
2.6512e-14
-1.33056e-14
0
1.85408e-28
5.52562e-28
1.53361e-30
-2.6852e-14
9.30616e-29
-1.5154e-29
1.10655e-28
2.73708e-14
-2.74174e-14
-2.74342e-14
0
2.73894e-14
2.73348e-14
-3.68092e-28
-2.71798e-14
-2.70873e-14
0
2.6894e-14
-7.94499e-30
-1.74578e-28
2.66982e-14
9.12676e-29
-3.41576e-31
9.04991e-15
0
1.17861e-28
0
-4.87288e-29
-1.07284e-28
0
0
0
-1.78856e-28
-9.12228e-30
-8.76494e-29
0
0
0
-8.91124e-29
0
5.50165e-28
8.93512e-29
3.04129e-29
-4.91428e-14
1.58205e-14
3.37214e-29
-3.4842e-29
2.65812e-14
-3.83772e-14
-3.87451e-14
0
2.6952e-14
1.44992e-14
7.33016e-30
-3.96519e-14
-2.69273e-14
-1.28115e-14
2.68415e-14
-1.28211e-14
-9.31231e-29
2.66671e-14
-1.79497e-28
-9.66301e-31
1.47868e-14
-1.08231e-14
-1.45853e-14
0
3.80878e-14
2.64766e-14
-3.88187e-14
-2.67339e-14
2.68103e-14
-5.48652e-28
1.26318e-14
-5.97005e-30
-8.75382e-29
-1.2774e-14
-8.78254e-29
1.40783e-28
-2.67874e-14
1.25844e-14
1.24125e-14
4.22569e-15
-3.42716e-14
-2.51083e-14
-2.54855e-14
0
2.60959e-14
2.6326e-14
-2.65073e-14
-2.6643e-14
2.67382e-14
-3.22424e-28
1.84696e-28
3.77199e-29
8.7538e-29
2.72514e-28
8.78711e-29
2.72849e-28
-2.69046e-14
0
0
0
4.57326e-14
-4.02284e-15
-4.21722e-14
7.01942e-15
-1.20558e-14
2.83095e-14
5.15062e-14
-1.74999e-14
-3.13407e-14
0
1.17653e-15
5.28504e-14
5.49666e-14
4.9165e-14
-1.23896e-14
-6.38643e-14
-4.6645e-14
7.69961e-14
-2.11294e-14
3.84672e-14
-2.07597e-15
-4.75559e-14
-4.71701e-14
6.76165e-14
5.51422e-14
6.5826e-14
-6.68603e-15
-4.8964e-14
-2.40339e-15
7.69806e-15
-5.41012e-47
1.74342e-14
-1.47732e-14
-4.16851e-14
3.21913e-14
-5.11679e-14
-2.47782e-14
5.82079e-14
-3.81586e-15
8.48314e-14
1.95216e-14
2.48207e-14
0
-2.77213e-14
-2.20173e-14
9.68249e-15
-2.27265e-14
-1.03272e-14
-1.61823e-14
-7.56272e-14
-3.85066e-14
2.25821e-14
6.35745e-14
-2.12247e-14
-2.87805e-14
1.73967e-14
2.564e-14
1.4495e-14
3.73524e-14
-3.48039e-14
-5.10999e-47
-6.83845e-15
2.37872e-14
2.02717e-14
-6.61926e-14
-2.02207e-14
6.36131e-14
-4.53511e-14
1.04104e-14
1.04039e-13
1.80321e-14
-2.44826e-15
4.2648e-16
4.37784e-15
-3.34355e-14
7.99197e-15
-1.33361e-15
-7.80387e-14
-4.74607e-14
4.66863e-14
1.43114e-15
-1.24673e-14
-1.90356e-14
6.08865e-14
9.57379e-15
-7.21985e-14
4.85446e-14
5.01308e-14
-5.13547e-14
-1.18183e-13
2.14e-15
4.36274e-14
5.32885e-14
-4.06112e-14
3.18385e-14
1.07577e-14
5.1481e-14
1.29249e-13
2.67516e-14
-5.35417e-14
-3.56708e-15
4.87775e-14
3.31663e-14
-5.38368e-14
-5.15279e-14
6.4309e-14
4.45221e-14
2.45236e-14
2.58178e-14
2.30086e-16
-3.70417e-14
-4.22184e-14
-1.86435e-14
-1.88484e-14
-5.82516e-14
-4.13961e-14
3.88008e-14
3.88407e-14
7.16661e-14
1.23701e-14
1.97513e-14
1.98016e-14
-1.47771e-14
5.36555e-16
-4.67194e-14
-1.08762e-14
4.22533e-14
-3.95542e-17
-4.35182e-17
-4.01837e-15
-4.46491e-47
2.28372e-15
3.7001e-15
1.87447e-14
5.37038e-15
7.84788e-16
6.56866e-15
-2.2531e-14
-1.65718e-14
3.68457e-14
-4.35663e-47
0
-1.15471e-14
0
-5.10906e-14
1.59664e-14
7.10913e-14
6.02559e-14
-2.76541e-14
-8.44819e-14
-8.51783e-16
5.04066e-14
7.1408e-15
1.32677e-15
-3.94533e-14
-7.1173e-14
7.81954e-14
7.61709e-15
2.78177e-14
2.46883e-14
-1.61064e-14
-4.89674e-14
1.36079e-14
1.67737e-14
2.11788e-14
-5.47957e-14
1.59797e-15
5.12703e-14
-9.37858e-15
-9.36993e-15
3.47371e-18
5.71882e-15
2.56942e-14
-7.3672e-15
-5.1899e-14
0
-1.88458e-14
2.12349e-14
4.45082e-14
-2.80927e-14
-4.34062e-14
2.8004e-14
4.61318e-14
-2.78573e-14
-2.50464e-14
-9.48197e-15
0
-1.08307e-14
1.10277e-14
-8.70536e-17
4.61348e-14
1.90167e-14
1.90623e-15
2.31138e-14
6.78989e-15
-2.76121e-14
4.58472e-16
-1.24875e-14
2.12996e-14
-5.5526e-15
)
;

boundaryField
{
    left
    {
        type            symmetryPlane;
    }
    right
    {
        type            calculated;
        value           nonuniform List<scalar> 
30
(
5.72499e-17
-5.74899e-17
9.72419e-20
2.24704e-17
-6.89238e-17
4.89742e-17
2.98115e-17
1.03691e-16
-1.93126e-17
-8.58159e-17
-4.42084e-18
2.82759e-31
-6.23832e-17
-6.43912e-17
1.32223e-16
4.93038e-31
-4.26099e-31
7.14558e-17
-7.36537e-17
4.28935e-32
-5.44183e-31
-5.67644e-31
0
2.91564e-32
1.43718e-30
7.70672e-31
8.56633e-31
-3.37896e-32
2.12903e-16
0
)
;
    }
    down
    {
        type            symmetryPlane;
    }
    up
    {
        type            calculated;
        value           nonuniform List<scalar> 
30
(
4.61348e-14
1.90167e-14
1.90623e-15
2.31138e-14
6.78989e-15
-2.76121e-14
4.58472e-16
-1.24875e-14
2.12996e-14
-5.5526e-15
-3.42716e-14
-2.51083e-14
-2.54855e-14
0
2.60959e-14
2.6326e-14
-2.65073e-14
-2.6643e-14
2.67382e-14
-3.22424e-28
1.84696e-28
3.77199e-29
8.7538e-29
2.72514e-28
8.78711e-29
2.72849e-28
-2.69046e-14
0
0
0
)
;
    }
    hole
    {
        type            calculated;
        value           nonuniform List<scalar> 
20
(
-6.81633e-14
-8.12554e-14
0
-6.24381e-14
-3.6725e-14
-1.29252e-13
1.60299e-13
2.89416e-13
1.74552e-13
1.89163e-13
2.64877e-15
6.98975e-15
6.62103e-15
-9.27628e-15
-5.3931e-15
4.361e-14
2.69868e-14
5.27342e-14
-2.0909e-14
-7.93809e-15
)
;
    }
    frontAndBack
    {
        type            empty;
    }
}


// ************************************************************************* //
