/*--------------------------------*- C++ -*----------------------------------*\
  =========                 |
  \\      /  F ield         | OpenFOAM: The Open Source CFD Toolbox
   \\    /   O peration     | Website:  https://openfoam.org
    \\  /    A nd           | Version:  9
     \\/     M anipulation  |
\*---------------------------------------------------------------------------*/
FoamFile
{
    format      ascii;
    class       volSymmTensorField;
    location    "60";
    object      sigma;
}
// * * * * * * * * * * * * * * * * * * * * * * * * * * * * * * * * * * * * * //

dimensions      [1 -1 -2 0 0 0 0];

internalField   nonuniform List<symmTensor> 
1000
(
(7758.76 -5579.48 -7.11383e-14 4558.84 5.9784e-14 2842.52)
(10920 -4250.3 -1.12175e-13 1162.28 8.03319e-14 2788.21)
(12528.4 -3360.04 1.39594e-13 -679.528 -2.31695e-14 2734.34)
(13349.3 -2727.8 2.22573e-14 -1688.83 -1.88418e-14 2690.89)
(13738.1 -2262.54 -1.30019e-13 -2231.43 -1.82305e-14 2655.39)
(13880.1 -1910.34 -7.44131e-16 -2501.45 6.82044e-15 2625.83)
(13877.9 -1637.43 -1.52484e-13 -2608.34 -8.40553e-14 2600.66)
(13790.9 -1421.53 9.12867e-14 -2618.17 5.80635e-14 2578.32)
(13663.3 -1243.71 -9.25204e-14 -2574.03 -2.97758e-14 2559.06)
(13495.3 -1015.85 0 -2496.99 0 2538.08)
(10737.1 -6856.14 -1.17128e-13 5125.53 1.80957e-14 3660.6)
(13141 -4603.76 0 1851.48 0 3459.81)
(14256.4 -3206.15 1.31869e-13 50.6788 6.58798e-14 3301.64)
(14727.8 -2296.89 -2.27233e-13 -970.283 -1.20859e-13 3174.81)
(14858.8 -1683.77 -9.82197e-14 -1549.35 -5.51123e-14 3071.42)
(14805.2 -1258.13 8.47533e-14 -1866.38 5.41546e-14 2985.89)
(14651.2 -954.908 7.72788e-14 -2023.89 4.38575e-14 2913.99)
(14445.5 -732.645 1.61323e-13 -2083.64 9.97139e-14 2852.75)
(14224.8 -560.752 0 -2082.85 0 2801.99)
(13982.9 -366.715 0 -2022.59 0 2760.08)
(14029.7 -7807.11 0 5243.3 0 4447.6)
(15419.4 -4793.49 0 2373.51 0 4106.05)
(15902.2 -2981.67 1.28195e-13 771.413 6.60029e-14 3847.76)
(15949.4 -1850.27 -2.49151e-14 -173.447 1.16833e-14 3640.6)
(15785.4 -1121.8 -1.84544e-16 -740.302 1.02711e-16 3471.94)
(15520.3 -641.889 -8.17141e-14 -1079.02 -5.21274e-14 3332.6)
(15211.2 -319.74 7.10545e-14 -1275.59 4.32251e-14 3215.91)
(14889.6 -99.53 -6.79784e-14 -1382.35 -3.91242e-14 3117.07)
(14579.6 56.1247 1.58434e-14 -1430.6 -4.28777e-15 3034.38)
(14272.4 214.763 -1.08296e-14 -1416.41 -1.50108e-14 2966.77)
(17493.6 -8322.6 -7.21629e-14 4974.36 6.89298e-15 5184.92)
(17678 -4785.96 6.03233e-14 2737.49 -1.53778e-14 4711.26)
(17427.1 -2695.93 -6.22411e-14 1461.95 -3.14645e-14 4359.01)
(16999.5 -1420.75 -2.33633e-14 666.099 7.13721e-15 4076.68)
(16517.4 -622.502 8.13023e-14 152.344 5.61732e-14 3846.87)
(16033.3 -114.627 -8.22776e-14 -185.902 -4.6728e-14 3657.09)
(15569.8 211.312 -7.29787e-14 -410.925 -4.19273e-14 3498.21)
(15137.2 421.026 -1.63694e-13 -561.315 -9.41399e-14 3363.65)
(14743.6 557.619 -4.35022e-14 -660.526 -1.19713e-14 3249.93)
(14374.3 684.237 4.5482e-14 -701.563 1.72866e-14 3155.25)
(20957.4 -8327.52 -4.41405e-14 4412.5 7.07193e-16 5854.6)
(19832.5 -4560.97 -1.58035e-15 2963.46 1.67875e-16 5260.61)
(18797.3 -2358.84 -1.90173e-13 2102.54 -8.45517e-14 4823.04)
(17873.8 -1035.02 1.09803e-14 1506.41 -1.5653e-15 4472.35)
(17067.9 -221.459 -1.25325e-14 1075.61 1.53064e-15 4186.97)
(16367.1 283.725 7.49848e-14 755.095 4.27155e-14 3951.27)
(15755.6 597.209 1.22274e-15 511.361 -1.20646e-15 3753.91)
(15219.6 789.306 5.92246e-14 322.363 3.67269e-14 3586.6)
(14750.7 905.763 -5.81268e-14 174.053 -1.26595e-15 3444.17)
(14327.8 1003.18 -4.39151e-14 75.4686 -2.37214e-14 3323.84)
(24234.6 -7788.67 -1.38294e-13 3674.48 1.09991e-14 6440.56)
(21795.7 -4113.91 -1.3994e-15 3080.44 -8.08205e-17 5740.66)
(19982.9 -1981.15 8.50012e-16 2673.04 2.82331e-17 5228.29)
(18575.8 -711.452 9.77932e-15 2301.69 3.29998e-16 4817.88)
(17459.8 59.1929 -8.70715e-14 1970.41 -4.18336e-14 4483.9)
(16555.7 529.655 2.17055e-16 1679.12 1.12197e-16 4208.03)
(15808.5 814.431 6.71697e-14 1424.73 3.40537e-14 3976.9)
(15180.4 982.428 1.53421e-13 1202.91 7.40062e-14 3780.76)
(14646.7 1078.18 2.71494e-14 1009.74 1.3858e-14 3613.01)
(14180 1150 -5.59243e-14 855.495 -2.12619e-14 3469.74)
(27136.4 -6719.64 1.68917e-13 2885.39 -1.44862e-14 6928.11)
(23483.4 -3457.45 3.77499e-14 3120.17 9.77888e-15 6139.28)
(20959.6 -1573.57 6.05434e-14 3154.7 2.01243e-14 5564.83)
(19115.2 -459.039 -8.95091e-15 3005.82 -2.20841e-15 5104.84)
(17722.1 211.968 7.43181e-14 2776.83 3.06622e-14 4730.53)
(16638.9 616.795 -6.9446e-14 2519.75 -2.73444e-14 4421.22)
(15774.4 857.52 -1.80401e-15 2260.71 9.06464e-15 4161.96)
(15068.6 995.559 -5.77976e-14 2012.29 -2.50262e-14 3941.75)
(14481.9 1070.38 7.28157e-15 1780.32 -6.87498e-15 3752.82)
(13981.3 1120.81 -2.72334e-14 1576.04 -1.82725e-14 3590.16)
(29484.6 -5180.27 2.96221e-13 2165.64 -2.31439e-14 7303.9)
(24819.1 -2622.5 -1.49712e-13 3113.25 -2.88582e-14 6445.92)
(21707.8 -1148.63 8.06557e-16 3530.42 4.17446e-16 5824.21)
(19503.9 -279.246 1.2824e-14 3576.99 7.06662e-15 5326.37)
(17884.5 241.6 1.56105e-13 3440.01 4.55457e-14 4921.05)
(16656.5 553.388 -2.63224e-15 3215.88 -4.69226e-15 4585.94)
(15698.8 736.593 2.09321e-17 2955.76 -2.19694e-16 4304.89)
(14932.4 839.723 -5.38908e-14 2686.92 -2.20988e-14 4066.01)
(14305.7 893.817 -2.55451e-15 2423.76 3.63109e-15 3860.64)
(13780.7 927.276 2.23512e-15 2178.31 6.46364e-15 3682.85)
(31120.4 -3273.45 1.74524e-13 1617.1 -2.08715e-14 7554.8)
(25739.7 -1661.93 -1.59616e-13 3086.78 -2.82288e-14 6652.26)
(22212.3 -728.578 1.17791e-14 3789.68 1.26131e-14 6000.46)
(19752.8 -176.991 1.17542e-14 3983.61 1.33845e-14 5477.64)
(17973.2 153.162 -4.69162e-15 3916.19 -7.15106e-15 5051.4)
(16643.8 350.376 6.69797e-14 3717.3 8.12682e-15 4698.72)
(15621.5 466.038 -2.56605e-16 3457.05 5.96952e-15 4402.75)
(14814.3 531.129 1.08178e-13 3173.63 2.24511e-14 4151.06)
(14161.4 565.489 2.44692e-14 2887.67 5.14949e-15 3934.39)
(13621.4 586.488 1.89366e-14 2611.95 -1.21236e-14 3746.17)
(31961.9 -1139.49 1.88311e-13 1327.13 -2.91914e-14 7682.09)
(26225.5 -679.998 -5.70884e-15 3086.38 -2.097e-14 6764.28)
(22445 -385.936 6.21005e-14 3929.55 1.64962e-14 6086.43)
(19831.9 -203.594 2.73049e-15 4191.52 1.00438e-14 5543.87)
(17960.2 -90.0189 -6.93868e-17 4153.66 -3.36985e-16 5103.19)
(16574.9 -18.5248 6.69236e-14 3963.74 -3.04728e-15 4739.68)
(15518.8 26.7569 -6.58124e-17 3701.1 6.56254e-15 4435.37)
(14691.8 55.4765 5.31215e-14 3408.78 2.3434e-15 4177.05)
(14028.2 73.9999 1.06879e-15 3109.7 -8.1983e-15 3954.89)
(13485.4 87.6095 -3.52323e-16 2815.58 -5.11357e-15 3761.76)
(-473.034 422.79 6.46874e-15 -11772.4 -6.59895e-14 -2825.87)
(-472.229 158.435 8.15164e-15 -7687.28 5.15816e-15 -1882.96)
(-75.1006 -44.8622 -6.82272e-15 -5134.03 -1.59597e-14 -1202.11)
(637.793 -166.773 0 -3481.42 0 -656.221)
(1459.05 -232.638 -1.32733e-14 -2381.17 -1.73303e-15 -212.798)
(2288.12 -264.928 -4.29049e-15 -1624.92 -1.01514e-14 153.048)
(3079.02 -277.647 2.28472e-14 -1087.8 5.25591e-16 459.513)
(3813 -279.067 1.04979e-14 -693.181 -7.05575e-15 719.959)
(4484.96 -274.297 1.94873e-14 -392.789 3.15139e-15 944.347)
(5096.13 -268.059 5.90094e-15 -155.852 8.79925e-15 1140.06)
(-561.955 1032.35 -3.68959e-15 -11354.4 -6.07934e-14 -2749.92)
(-311.811 -193.627 1.8126e-14 -7414.32 3.14476e-14 -1782.95)
(205.477 -842.466 -1.69035e-14 -5075.28 -2.03417e-14 -1123.8)
(971.545 -1173.24 -4.01486e-15 -3555.89 -3.70847e-15 -596.388)
(1807.58 -1327.34 0 -2529.92 0 -166.694)
(2632.11 -1381.27 -2.01539e-14 -1813.59 -1.16504e-14 188.889)
(3408.8 -1378.65 2.3247e-14 -1296.58 1.56373e-15 487.436)
(4123.58 -1344.88 1.01243e-16 -910.077 1.73966e-18 741.577)
(4773.03 -1295.02 -7.05233e-14 -610.009 5.11096e-16 960.697)
(5356.38 -1245.45 8.96657e-15 -367.338 4.50435e-15 1151.32)
(-641.545 1489.81 -4.61407e-15 -10180.6 -3.58872e-14 -2497.41)
(51.584 -459.855 2.63122e-14 -6889.39 3.73554e-14 -1577.95)
(792.907 -1468.45 2.35461e-14 -4901.12 1.60083e-14 -948.049)
(1660 -1969.63 -3.03166e-15 -3588.81 -5.95892e-15 -445.11)
(2528.39 -2195.82 0 -2685.66 0 -36.293)
(3347.14 -2268.23 -3.49816e-14 -2040.6 -1.43741e-14 301.511)
(4097.42 -2254.26 -4.73441e-14 -1563.13 -1.81119e-14 584.837)
(4775.03 -2192.71 4.16465e-14 -1196.55 1.08772e-14 825.804)
(5381.82 -2106.57 2.04659e-17 -904.459 -2.45171e-19 1033.24)
(5916.86 -2022.24 -4.22881e-14 -662.79 -7.91368e-15 1212.48)
(-667.705 1673.7 1.93508e-14 -8492.17 4.16114e-14 -2113.82)
(626.288 -756.377 1.77934e-15 -6124.62 -1.75611e-14 -1268.85)
(1660.18 -2006.61 3.23277e-14 -4639.18 1.75696e-14 -687.461)
(2650.21 -2618.23 0 -3616.68 0 -223.032)
(3552.81 -2885.64 -4.39581e-14 -2884.01 -1.10884e-14 154.34)
(4357.44 -2962.45 2.23204e-14 -2338.56 9.73827e-15 465.895)
(5067.53 -2933.07 -1.99178e-14 -1917.35 -3.1489e-15 726.964)
(5691.61 -2845.63 -3.92774e-14 -1580.3 -1.47931e-15 948.764)
(6238.41 -2728.57 1.69801e-14 -1301.61 6.02107e-15 1139.26)
(6706.13 -2617.75 3.22359e-14 -1064.15 1.08816e-14 1302)
(-558.978 1508.98 -3.93005e-14 -6449.12 -3.47381e-15 -1617.25)
(1416.58 -1121.75 -5.3807e-14 -5167.88 1.37678e-14 -865.684)
(2777.53 -2466.18 -4.00532e-14 -4287.63 -2.10323e-14 -348.484)
(3897.22 -3111.42 -6.3046e-17 -3614.57 2.00405e-14 65.2279)
(4826.93 -3380.89 9.00711e-17 -3087.48 1.8468e-16 401.412)
(5604.48 -3443.81 4.56529e-14 -2662.8 1.45824e-14 678.849)
(6259.13 -3392.94 2.50242e-14 -2310.91 9.39129e-15 911.128)
(6813.83 -3280.79 0 -2011.56 0 1108.22)
(7284.86 -3138.31 -5.35491e-14 -1751.51 -6.75723e-15 1276.93)
(7668.81 -3009.97 1.72737e-14 -1521.99 6.38611e-15 1418.5)
(-217.03 965.305 -1.93999e-14 -4214.81 -1.24684e-13 -1022.73)
(2432.48 -1566.57 1.76688e-14 -4081.24 -4.49669e-14 -380.484)
(4109.33 -2842.19 -4.13964e-14 -3849.39 -3.92662e-14 59.9865)
(5342.92 -3435.11 1.93403e-15 -3555.33 -1.07035e-14 412.522)
(6282.53 -3662.78 7.5643e-14 -3253.17 3.11067e-14 699.084)
(7015.95 -3691.7 -5.74659e-14 -2962.2 -1.86867e-14 935.482)
(7599.25 -3612.88 1.09167e-16 -2688.58 2.71103e-17 1133.23)
(8070 -3477.56 -6.62409e-14 -2433.44 -2.15825e-14 1300.74)
(8452 -3315.87 1.7816e-17 -2197.14 -6.95377e-19 1443.43)
(8739.79 -3179.62 -5.47437e-14 -1980.41 -2.08418e-14 1559.86)
(458.541 56.7138 2.61787e-14 -1952.39 -4.80264e-14 -344.734)
(3683.84 -2082.21 5.33412e-16 -2929.52 -9.90799e-16 174.075)
(5616.13 -3129.12 4.60646e-16 -3331.27 -9.28192e-16 527.277)
(6923.32 -3584.17 -9.04644e-14 -3412.74 -5.54628e-14 810.134)
(7844.16 -3726.36 2.74929e-16 -3337.21 1.53604e-14 1040.07)
(8512.29 -3701.33 -7.5525e-14 -3183.68 -3.23427e-14 1229.68)
(9008.05 -3588.44 1.35669e-13 -2992.82 5.68667e-14 1388.13)
(9382.2 -3431.93 7.61509e-17 -2786.57 3.52467e-18 1522.07)
(9665.04 -3257.7 1.41022e-14 -2578.85 1.20633e-14 1635.27)
(9848.8 -3123.3 -4.12534e-14 -2380.76 -1.70123e-14 1723.39)
(1553.21 -1159.94 1.21744e-13 178.948 -3.19624e-14 399.729)
(5173.39 -2646.4 3.35309e-14 -1776.82 -4.80911e-14 783.824)
(7255.83 -3323.34 -1.18704e-14 -2742.08 1.813e-14 1041.63)
(8573.26 -3565.39 5.68914e-15 -3164.74 -1.10415e-14 1248.12)
(9436.03 -3583.74 -1.26522e-16 -3300.26 6.97564e-16 1415.95)
(10014 -3487.45 7.54375e-14 -3278.77 2.78582e-14 1554.29)
(10406.5 -3335.27 -1.27987e-14 -3170.63 -4.24391e-15 1669.82)
(10674.1 -3159.55 1.85146e-14 -3015.93 7.31758e-16 1767.27)
(10851.3 -2979.36 1.31468e-14 -2840.97 -9.66273e-16 1848.54)
(10927.6 -2856.05 4.23745e-14 -2667.4 9.67177e-15 1906.2)
(3125.76 -2589.49 4.58127e-14 2039.56 7.99647e-14 1192)
(6892.46 -3224.71 3.55596e-15 -680.276 1.07971e-13 1433.58)
(8984.13 -3424.43 7.58028e-16 -2093.74 -9.08334e-16 1590.09)
(10230.1 -3397.03 1.16375e-13 -2796.64 4.16638e-14 1715.42)
(10987.4 -3263.31 9.55554e-14 -3112.54 4.76126e-14 1817.27)
(11448.2 -3083.55 8.50308e-14 -3209.47 4.14312e-14 1901.25)
(11723 -2888.75 1.16944e-14 -3180.04 4.25209e-15 1971.46)
(11877.9 -2695.28 -1.03037e-13 -3077.85 -4.95684e-14 2030.78)
(11949.5 -2513.58 3.88009e-14 -2938.81 3.18509e-14 2079.39)
(11922.7 -2409.4 2.79253e-14 -2793.72 1.33516e-14 2106.69)
(5200.74 -4109.5 -8.22568e-15 3522.46 8.32187e-15 2013.05)
(8820.32 -3775.06 -2.62159e-14 311.233 2.37423e-14 2107.28)
(10756.6 -3435.18 -6.17486e-14 -1400.62 -3.36952e-14 2159.06)
(11838 -3106.72 2.50747e-13 -2302.96 8.44846e-14 2200.39)
(12437.4 -2806.51 1.19382e-16 -2756.94 -1.98139e-16 2233.94)
(12752.8 -2538.59 -8.73427e-14 -2952.5 -4.58681e-14 2261.61)
(12896.7 -2301.9 -6.43303e-14 -2995.14 -3.52581e-14 2284.97)
(12936.2 -2093.3 -3.63302e-14 -2945.86 -1.8064e-14 2305.45)
(12912.2 -1909.58 -3.2378e-14 -2844.35 3.80084e-15 2323.34)
(12821.9 -1818.79 6.6477e-14 -2735.46 6.30623e-15 2327.64)
(5634.82 -249.432 4.87795e-14 32.796 3.04046e-15 1307.91)
(6125.01 -221.395 3.73633e-15 209.245 5.59839e-15 1461.75)
(6566.21 -198.667 -7.84024e-14 367.712 2.46608e-15 1600.14)
(6966.08 -178.42 -2.80599e-14 515.127 -1.12775e-16 1726.43)
(7329.56 -160.16 -4.64747e-15 656.939 -8.07868e-15 1843.04)
(7660.72 -143.588 0 797.503 0 1951.9)
(7963.02 -128.466 0 940.366 0 2054.63)
(8239.42 -114.572 3.18217e-14 1088.48 2.38994e-16 2152.59)
(8492.38 -101.682 1.38389e-15 1244.47 2.32785e-15 2246.97)
(8723.91 -89.5697 6.59532e-14 1410.78 6.6392e-16 2338.77)
(8935.59 -78.0081 3.75044e-15 1589.84 5.91371e-15 2428.95)
(9128.59 -66.759 -1.4209e-15 1784.16 -1.73839e-15 2518.33)
(9303.61 -55.5803 3.33568e-15 1996.47 4.36226e-15 2607.71)
(9460.96 -44.2061 -1.0314e-13 2229.78 -1.75284e-15 2697.86)
(9600.4 -32.3475 3.34718e-14 2487.51 -6.54841e-17 2789.52)
(9721.2 -19.7015 1.23147e-16 2773.48 2.70992e-18 2883.39)
(9821.98 -6.17126 -3.42265e-14 3091.9 -8.56926e-16 2980.13)
(9900.93 7.28895 3.38148e-14 3446.43 9.50433e-16 3080.16)
(9956.98 15.8449 -6.50941e-14 3837.37 -6.76066e-15 3183.31)
(10017 6.23902 -3.34457e-14 4260.35 2.29822e-15 3294.78)
(5854.34 -1153.77 7.89737e-14 -160.791 3.6693e-15 1313.9)
(6308.07 -1030.85 1.11229e-14 44.0936 6.34304e-15 1465.88)
(6714.91 -930.299 -2.23661e-14 223.145 2.69969e-15 1601.09)
(7087.78 -840.916 9.66713e-14 387.808 7.30592e-15 1725.14)
(7429.31 -761.267 -2.36334e-15 544.068 -2.85337e-15 1840.01)
(7742.37 -690.181 -9.66563e-14 696.74 -4.47398e-15 1947.49)
(8029.6 -626.541 9.31771e-15 849.67 5.59541e-15 2049.06)
(8293.36 -569.271 0 1006.09 0 2146.03)
(8535.65 -517.336 3.43322e-15 1168.82 2.49069e-15 2239.49)
(8758.14 -469.74 7.89811e-15 1340.48 4.72787e-15 2330.45)
(8962.14 -425.523 5.02242e-14 1523.62 1.18086e-14 2419.79)
(9148.62 -383.742 7.15866e-16 1720.87 4.73184e-17 2508.34)
(9318.16 -343.456 -2.90533e-14 1934.99 1.61351e-15 2596.88)
(9471 -303.693 3.41556e-14 2169.02 1.72287e-15 2686.16)
(9607 -263.474 3.47349e-14 2426.33 1.99692e-15 2776.92)
(9725.65 -221.794 -3.41515e-14 2710.75 -2.22411e-15 2869.94)
(9826.06 -177.761 -3.41153e-14 3026.7 -2.52873e-15 2966.02)
(9906.76 -130.571 -6.74458e-14 3379.87 -5.69451e-15 3066.14)
(9964.36 -78.6482 -6.04096e-16 3779.71 -1.97092e-17 3171.71)
(10024.7 -16.1171 1.9957e-14 4258.2 1.40601e-14 3296.06)
(6344.14 -1876.17 2.68392e-14 -441.319 1.17106e-15 1362.19)
(6727.03 -1686.24 1.07117e-14 -201.588 3.93192e-15 1505.87)
(7062.61 -1529.38 -8.66039e-14 4.44612 -2.67208e-15 1630.86)
(7376.62 -1388.37 1.81478e-14 193.412 -2.92391e-15 1746.93)
(7669.22 -1261.52 1.07104e-13 370.971 9.50296e-15 1855.43)
(7941.44 -1147.46 -1.006e-13 541.972 -6.21915e-15 1957.71)
(8194.45 -1044.78 -3.39897e-14 710.447 -1.28709e-15 2054.98)
(8429.39 -951.972 6.48179e-14 879.866 2.54782e-15 2148.29)
(8647.32 -867.543 -5.16649e-14 1053.28 2.88905e-15 2238.6)
(8849.13 -789.99 -6.81068e-14 1233.51 -3.51256e-15 2326.76)
(9035.56 -717.834 6.54286e-14 1423.29 3.65113e-15 2413.58)
(9207.1 -649.602 1.00673e-13 1625.34 6.45669e-15 2499.79)
(9364 -583.812 7.36716e-16 1842.52 8.03218e-17 2586.12)
(9506.28 -518.949 -3.40928e-14 2077.91 -2.81596e-15 2673.27)
(9633.6 -453.443 3.35181e-14 2334.92 3.12802e-15 2761.97)
(9745.32 -385.64 1.17904e-16 2617.47 1.2551e-17 2852.95)
(9840.22 -313.713 -3.38739e-14 2930.32 -4.11118e-15 2947.05)
(9916.01 -235.109 2.93734e-14 3279.72 5.16681e-15 3045.17)
(9968.5 -144.881 1.44795e-14 3674.68 1.16693e-14 3148.43)
(10024.2 -30.4829 2.49451e-17 4140.29 -1.77939e-17 3268.73)
(7038.64 -2434.82 0 -825.464 0 1433.81)
(7323.96 -2204.25 1.33932e-14 -543.437 4.84965e-15 1564.74)
(7562.51 -2012.51 3.0802e-14 -302.942 1.69617e-15 1675.28)
(7794.8 -1837.75 3.50614e-14 -82.2417 1.9756e-15 1779.82)
(8018.53 -1678.39 0 123.849 0 1879.01)
(8232.66 -1533.39 -2.06111e-14 319.917 2.46783e-15 1973.67)
(8436.56 -1401.51 -5.18303e-14 509.999 -9.15311e-15 2064.59)
(8629.88 -1281.28 -6.5358e-14 697.714 -3.74551e-15 2152.52)
(8812.41 -1171.1 -1.19321e-14 886.324 -3.72929e-15 2238.17)
(8984.05 -1069.27 5.02921e-14 1078.88 -1.46871e-15 2322.21)
(9144.68 -974.023 1.78105e-14 1278.26 -3.03789e-15 2405.29)
(9294.14 -883.554 1.7343e-14 1487.37 5.48556e-15 2488.04)
(9432.17 -795.994 -1.11577e-14 1709.13 3.57068e-15 2571.07)
(9558.35 -709.379 2.63085e-14 1946.7 1.82054e-15 2655.01)
(9672 -621.621 2.73633e-14 2203.5 2.84721e-15 2740.5)
(9772.13 -530.399 -3.35496e-14 2483.48 -4.87234e-15 2828.22)
(9857.16 -432.922 -1.05024e-16 2791.31 -1.74071e-17 2918.88)
(9924.66 -325.249 9.39463e-14 3132.76 1.91316e-14 3013.25)
(9970.98 -200.407 -2.67578e-14 3515.01 -8.12161e-15 3112.15)
(10023 -42.1505 -3.58059e-14 3959.95 -2.02088e-14 3226.82)
(7890.7 -2809.25 3.69984e-14 -1267.13 -4.29267e-15 1528.52)
(8057.85 -2568.2 -1.86361e-14 -945.392 -6.40174e-15 1641.34)
(8182.06 -2365.64 -8.3482e-14 -669.214 -1.16425e-14 1733.73)
(8316.52 -2177.38 4.44182e-14 -414.714 7.42263e-15 1823.49)
(8456.95 -2002.38 1.12939e-13 -177.19 2.05978e-14 1910.71)
(8600.08 -1840.37 -3.45548e-14 47.2711 -2.56678e-15 1995.54)
(8743.41 -1690.82 0 262.382 0 2078.26)
(8884.98 -1552.72 3.30701e-14 471.673 2.54996e-15 2159.23)
(9023.2 -1424.77 -3.34358e-14 678.468 -1.19282e-14 2238.85)
(9156.82 -1305.39 -4.51176e-14 885.923 -6.93933e-15 2317.56)
(9284.74 -1192.8 -4.4177e-14 1097.06 5.18993e-16 2395.8)
(9406.04 -1085.07 -5.91013e-14 1314.86 -4.71807e-15 2474.05)
(9519.79 -980.123 6.8019e-14 1542.32 3.41331e-15 2552.8)
(9625.07 -875.669 9.13417e-14 1782.58 1.1728e-14 2632.53)
(9720.78 -769.181 8.95491e-15 2039.01 2.07911e-15 2713.8)
(9805.61 -657.745 -2.45828e-14 2315.37 -4.40687e-15 2797.15)
(9877.87 -537.793 1.57905e-14 2615.95 1.93544e-15 2883.19)
(9935.27 -404.349 7.5224e-15 2945.71 3.19672e-16 2972.53)
(9974.61 -249.013 7.75515e-14 3310.47 1.67456e-14 3065.79)
(10021.9 -52.5218 2.99211e-14 3731.04 3.10816e-14 3173.75)
(8845.62 -2980.89 3.24622e-14 -1715.1 2.79847e-15 1645.51)
(8882.59 -2762.08 1.97423e-15 -1367.76 3.96776e-16 1734.19)
(8885.08 -2574.27 -5.43979e-14 -1061.71 -1.14209e-14 1805.39)
(8913.21 -2394.34 -1.40317e-13 -777.193 -2.45688e-14 1877.54)
(8961.92 -2222 4.71805e-14 -509.998 8.93383e-15 1950.44)
(9025.92 -2058.34 7.01028e-14 -257.489 6.88858e-15 2023.48)
(9101.01 -1903.93 -3.37986e-14 -16.8015 -3.2413e-15 2096.36)
(9183.71 -1758.71 1.73172e-14 215.13 -2.13017e-15 2168.96)
(9271.11 -1622.01 7.90416e-14 441.397 1.87365e-14 2241.35)
(9360.77 -1492.72 -9.78343e-14 665.076 -1.08196e-14 2313.66)
(9450.63 -1369.33 -3.59642e-14 889.159 -4.58256e-15 2386.11)
(9538.92 -1250.02 1.40847e-13 1116.62 1.44745e-14 2458.97)
(9624.05 -1132.67 -2.31518e-14 1350.4 -1.21928e-14 2532.57)
(9704.53 -1014.86 -9.8133e-14 1593.55 -1.6379e-14 2607.25)
(9778.89 -893.742 -2.24275e-14 1849.22 -3.57275e-15 2683.41)
(9845.58 -765.983 -8.60685e-14 2120.85 -1.82857e-14 2761.48)
(9902.8 -627.417 -1.27445e-15 2412.15 -2.61796e-16 2841.91)
(9948.47 -472.307 1.04557e-13 2727.31 2.75268e-14 2925.18)
(9979.71 -291.092 2.35265e-14 3071.08 1.02207e-14 3011.72)
(10020.8 -61.7518 5.11849e-15 3463.07 -2.00585e-15 3111.67)
(9843.39 -2944.72 -3.49108e-14 -2115.88 -4.37789e-15 1783.27)
(9748.23 -2779.97 3.57962e-14 -1768.88 6.45061e-15 1841.39)
(9632.14 -2631.43 2.51111e-14 -1446.14 9.33967e-15 1889.08)
(9553.63 -2481.33 -3.6364e-14 -1141.44 -5.21481e-15 1941.28)
(9508.65 -2330.1 -4.0188e-14 -851.159 -1.51156e-14 1997.88)
(9490.51 -2180.51 1.90597e-14 -574.771 7.06242e-15 2057.48)
(9493.76 -2034.62 7.40066e-14 -310.977 1.81557e-14 2119.1)
(9513.74 -1893.58 -1.21918e-13 -57.6861 -2.74901e-14 2182.17)
(9546.42 -1757.74 -7.51404e-14 187.525 -1.77413e-14 2246.29)
(9588.34 -1626.71 1.1583e-13 427.375 2.57165e-14 2311.32)
(9636.52 -1499.55 -2.96039e-14 664.568 -1.00613e-14 2377.17)
(9688.4 -1374.78 9.67506e-14 901.917 1.50237e-14 2443.92)
(9741.73 -1250.46 6.17384e-14 1142.14 1.45697e-14 2511.66)
(9794.53 -1124.17 -8.20182e-14 1388.07 -1.42255e-14 2580.6)
(9844.95 -992.979 2.41597e-14 1642.49 3.01445e-15 2650.95)
(9891.23 -853.261 2.67287e-15 1908.4 6.40412e-16 2722.99)
(9931.55 -700.467 -1.15799e-13 2188.81 -3.00807e-14 2797.01)
(9963.99 -528.27 3.11168e-14 2487.11 9.79969e-15 2873.33)
(9985.93 -326.132 4.08701e-14 2806.9 1.20074e-14 2952.19)
(10019.7 -69.6751 3.08681e-15 3165.61 -4.01232e-16 3042.76)
(10823.7 -2710.82 2.94635e-15 -2419.11 8.90578e-16 1939.52)
(10604.8 -2626.65 -3.70964e-14 -2108.7 -8.30131e-15 1960.63)
(10383 -2537.97 -1.35158e-14 -1789.05 2.69156e-15 1983.22)
(10205.4 -2436.87 0 -1479.49 0 2013.67)
(10071.1 -2323.93 0 -1177.09 0 2052.46)
(9972.88 -2203.6 -9.40325e-14 -884.744 -1.97632e-14 2097.26)
(9904.87 -2079.41 9.67207e-14 -603.198 1.38185e-14 2146.54)
(9861.64 -1953.97 1.94581e-13 -332.278 3.35031e-14 2199.08)
(9838.47 -1828.77 -1.5338e-13 -70.4212 -2.1663e-14 2254.17)
(9831.08 -1704.46 -1.21728e-13 184.032 -2.29556e-14 2311.18)
(9835.81 -1580.83 6.40799e-14 433.505 1.0423e-14 2369.84)
(9849.39 -1456.98 1.35133e-14 680.102 -4.87182e-16 2429.88)
(9869.06 -1331.34 4.82509e-14 926.444 1.57633e-14 2491.27)
(9892.3 -1201.72 1.08603e-13 1174.67 2.76182e-14 2553.92)
(9917.04 -1065.22 3.64114e-15 1427.37 9.65981e-16 2617.94)
(9941.26 -918.164 -2.3616e-14 1686.62 -6.3727e-15 2683.36)
(9963.25 -755.767 0 1954.98 0 2750.36)
(9981.18 -571.298 -2.47574e-14 2234.48 -4.62892e-15 2819)
(9993.04 -353.451 1.09998e-14 2527.92 1.37752e-15 2889.45)
(10018.3 -76.079 1.04892e-14 2848.4 9.13482e-16 2969.23)
(11734.9 -2297.51 -3.44497e-15 -2578.61 -1.1845e-15 2112.98)
(11410.3 -2309.47 2.91698e-14 -2343.93 1.33504e-14 2092.24)
(11101.8 -2295.78 -3.1246e-14 -2051.6 -1.3387e-14 2088.51)
(10838.8 -2259.49 -2.99823e-14 -1756.15 -1.24404e-14 2095.99)
(10624.7 -2200.38 9.35306e-14 -1457.07 3.03155e-14 2115.6)
(10453 -2123.74 5.83297e-14 -1160.52 2.25111e-14 2144.43)
(10318 -2034.39 -8.13587e-14 -870.513 -2.4766e-14 2180.19)
(10214.2 -1936.15 -2.32459e-14 -588.661 5.70833e-15 2221.28)
(10136.6 -1831.82 1.94406e-14 -315.422 2.09913e-15 2266.42)
(10080.5 -1723.12 2.49634e-14 -49.9462 -3.68151e-15 2314.73)
(10041.7 -1610.78 -6.52082e-14 208.894 -2.33337e-14 2365.52)
(10016.6 -1494.62 2.08052e-15 462.896 5.69456e-16 2418.35)
(10001.9 -1373.66 -7.28655e-14 713.662 -1.29329e-14 2472.83)
(9994.83 -1246.09 -3.23656e-15 963.163 -9.24184e-16 2528.77)
(9992.9 -1109.27 3.07018e-14 1212.91 9.67066e-15 2585.96)
(9994.12 -959.637 -2.30117e-15 1464.65 -6.67382e-16 2644.33)
(9996.74 -792.395 1.01834e-13 1719.5 3.41133e-14 2703.75)
(9999.4 -600.598 -1.26012e-14 1978.83 -2.80224e-15 2764.21)
(10000.8 -372.526 -1.28712e-13 2243.11 -5.202e-14 2825.53)
(10016.9 -80.9814 -2.33514e-14 2521.28 -2.93439e-14 2893.42)
(12559.4 -1719.44 -4.87275e-15 -2563.42 -3.60613e-15 2306.76)
(12154.5 -1831.7 -3.26382e-14 -2407.95 -1.77786e-14 2249.19)
(11767.2 -1909.7 4.02719e-14 -2170.9 1.32335e-14 2214.52)
(11427.1 -1954.37 -1.12275e-13 -1918.91 -2.62491e-14 2194.2)
(11139.9 -1965.12 -1.08469e-13 -1649.75 -2.83061e-14 2190.04)
(10900.4 -1947.17 7.0541e-14 -1370.89 1.02233e-14 2199.12)
(10703.2 -1906.07 7.50704e-14 -1089.1 7.92778e-15 2218.64)
(10543 -1846.85 9.58533e-14 -808.93 1.96901e-14 2246.32)
(10414.5 -1773.57 -8.15944e-14 -533.302 -2.26298e-14 2280.27)
(10312.8 -1689.2 4.98919e-17 -263.432 -8.1956e-16 2319.08)
(10233.2 -1595.59 -2.03522e-15 0.262811 1.59745e-15 2361.58)
(10171.8 -1493.52 -8.78219e-14 258.299 -1.90943e-14 2406.96)
(10124.8 -1382.74 0 511.288 0 2454.49)
(10089.2 -1262.08 -2.76374e-14 760.254 -1.29942e-14 2503.71)
(10062.1 -1129.32 -1.40805e-16 1005.84 1.01697e-16 2554.14)
(10041.5 -981.233 -5.05843e-14 1248.76 -1.60496e-14 2605.45)
(10025.8 -813.221 2.83542e-14 1489 9.69429e-15 2657.25)
(10014 -618.553 3.02552e-14 1726.3 7.74712e-15 2709.31)
(10005.8 -385.274 1.08656e-15 1958.99 9.88406e-17 2761.12)
(10014.1 -84.7883 -7.97604e-15 2189.54 -3.82306e-15 2816.23)
(13136.7 -1218.9 5.08599e-14 -2501.32 1.85592e-14 2454.31)
(12689.7 -1389.48 -3.44729e-14 -2290.6 -2.02032e-14 2399.78)
(12244.5 -1541.91 -2.27854e-14 -2123.6 -7.37017e-15 2335.59)
(11867.8 -1643.3 3.13147e-14 -1915.02 1.72838e-14 2296.8)
(11543.7 -1703.53 -4.74769e-14 -1679.62 -3.73267e-14 2276.34)
(11266.1 -1729.59 -3.40167e-14 -1427.43 -2.37753e-14 2270.47)
(11030.2 -1727.34 -5.71496e-14 -1166.09 -2.04275e-14 2276.34)
(10831.5 -1701.92 -4.24665e-15 -901.654 5.96738e-15 2291.5)
(10665.5 -1657.57 1.01148e-13 -637.911 4.0556e-14 2314.06)
(10527.9 -1597.58 -5.57439e-15 -377.561 -1.05811e-15 2342.38)
(10414.5 -1524.19 4.81184e-14 -121.776 2.0156e-14 2375.25)
(10321.5 -1438.63 -4.15996e-15 128.596 -8.44504e-16 2411.56)
(10245.4 -1341.11 0 373.568 0 2450.54)
(10183.2 -1230.87 -1.85145e-14 612.855 -7.18775e-15 2491.4)
(10132.3 -1106.17 1.75957e-14 846.555 6.43641e-15 2533.59)
(10090.7 -964.189 -1.54053e-15 1073.97 -4.89349e-16 2576.47)
(10057.2 -800.859 -9.91026e-15 1294.41 -4.43608e-15 2619.6)
(10031 -610.014 3.14523e-16 1505.77 2.56018e-16 2662.34)
(10013.2 -380.561 -2.77503e-16 1704.94 1.01588e-16 2704.18)
(10012.3 -84.9424 -2.87687e-16 1887.7 -9.03766e-17 2746.16)
(13054.8 -862.626 4.27386e-14 -2282.68 1.98043e-14 2485.88)
(12750.8 -1053.83 0 -2183 0 2438.73)
(12368.8 -1233.22 -3.46612e-14 -2062.51 -1.14046e-14 2378.37)
(12025.1 -1367.14 6.34681e-28 -1888.04 2.22383e-28 2339.33)
(11718.4 -1458.56 7.52277e-29 -1679.84 7.91729e-29 2316.6)
(11447.4 -1513.92 4.77373e-28 -1449.79 2.3338e-28 2307.14)
(11209.9 -1539.02 5.55466e-28 -1206.64 1.91888e-28 2308.43)
(11003.4 -1538.73 -3.0132e-14 -956.985 -7.35667e-15 2318.4)
(10825.1 -1517.06 0 -705.602 0 2335.27)
(10672.1 -1477.16 2.88468e-14 -455.797 6.96064e-15 2357.62)
(10541.4 -1421.26 -2.26774e-28 -209.778 -3.70771e-29 2384.23)
(10430.1 -1350.71 -2.7811e-14 31.0276 -7.13055e-15 2414.1)
(10335.4 -1265.97 2.73704e-14 265.621 7.41646e-15 2446.38)
(10254.9 -1166.59 2.95121e-28 493.186 1.01312e-28 2480.34)
(10186.8 -1051.24 -2.66159e-14 712.779 -8.40045e-15 2515.29)
(10129.4 -917.607 -1.82354e-28 923.127 -6.32504e-29 2550.59)
(10082 -762.217 2.60083e-14 1122.35 1.00013e-14 2585.62)
(10044.7 -579.913 2.57604e-14 1307.61 1.10835e-14 2619.76)
(10018.7 -361.017 -1.20897e-28 1474.03 -7.03364e-29 2652.16)
(10010.5 -80.9576 -4.00459e-29 1614.57 -8.37184e-29 2682.71)
(13004.3 -518.288 1.84528e-14 -1979.33 -1.45264e-15 2544.23)
(12763.8 -718.562 -1.81727e-14 -1948.57 -1.54196e-14 2495.81)
(12439.3 -914.065 -5.30418e-14 -1886.36 -2.69846e-14 2435.28)
(12130.3 -1072.47 0 -1760.73 0 2392.98)
(11843.1 -1191.45 1.46587e-14 -1592.81 -3.77686e-15 2365.45)
(11581 -1274.66 -4.04583e-15 -1396.6 -1.6808e-14 2350.25)
(11344.9 -1326.7 -4.90228e-14 -1182.12 -2.08312e-14 2345.27)
(11134.3 -1351.77 -6.55497e-14 -956.796 -3.10906e-14 2348.66)
(10947.9 -1353.47 2.97991e-14 -726.209 7.8661e-15 2358.84)
(10783.8 -1334.68 -3.39636e-14 -494.503 -1.99073e-14 2374.45)
(10640 -1297.59 -1.67155e-14 -264.714 -9.22533e-15 2394.31)
(10514.6 -1243.59 -3.2929e-14 -39.1419 -1.70457e-14 2417.41)
(10405.4 -1173.32 -3.24644e-14 180.393 -1.5699e-14 2442.86)
(10310.6 -1086.65 -1.60194e-14 392.224 -7.20831e-15 2469.88)
(10228.8 -982.656 -3.16501e-14 594.603 -1.32054e-14 2497.71)
(10159 -859.536 -3.12917e-14 785.395 -1.20752e-14 2525.62)
(10100.7 -714.512 -2.61868e-14 961.837 -1.0519e-14 2552.9)
(10054.5 -543.368 -1.53114e-14 1120.05 -5.06089e-15 2578.75)
(10022.5 -338.023 -1.51404e-14 1254.4 -4.67671e-15 2602.37)
(10008.8 -76.3895 -5.02613e-15 1356.21 -4.39404e-15 2622.7)
(12881.7 -231.389 1.59655e-13 -1707.54 7.52863e-14 2578.65)
(12689.1 -426.7 1.63748e-14 -1719.07 1.47473e-14 2531.56)
(12417.5 -624.842 -8.57471e-14 -1697.84 -3.92993e-14 2473.76)
(12148.7 -795.424 1.31279e-27 -1613.58 5.31167e-28 2431.18)
(11889.5 -932.478 4.87608e-14 -1483.08 7.73299e-15 2401.48)
(11645.4 -1036.63 0 -1319.81 0 2382.83)
(11419.5 -1110.55 1.70275e-14 -1134.17 1.21698e-14 2373.55)
(11213 -1157.31 -6.13467e-14 -934.117 -1.77826e-14 2372.06)
(11026 -1179.77 1.46993e-27 -725.788 5.0302e-28 2376.98)
(10857.9 -1180.4 5.8778e-14 -513.933 1.68775e-14 2387.06)
(10707.5 -1161.13 -1.64657e-14 -302.273 -9.37959e-15 2401.21)
(10573.7 -1123.3 -1.88944e-28 -93.7835 -5.55331e-29 2418.45)
(10455.2 -1067.65 -1.14651e-27 108.995 -3.59877e-28 2437.88)
(10350.7 -994.273 1.59837e-14 303.709 7.47664e-15 2458.7)
(10259.3 -902.616 -5.56228e-28 487.892 -1.97252e-28 2480.12)
(10180.5 -791.376 -5.3285e-14 658.715 -2.0397e-14 2501.37)
(10114.4 -658.46 4.5776e-28 812.681 1.86988e-28 2521.64)
(10062.1 -500.695 3.67926e-14 945.286 1.83204e-14 2540.16)
(10025.5 -311.4 -1.52462e-14 1050.17 -5.22418e-15 2555.93)
(10007.2 -71.0583 -5.0679e-15 1117.57 -5.02959e-15 2567.25)
(12706.9 2.50691 2.83093e-14 -1459.07 2.81352e-14 2595.65)
(12554.5 -183.211 4.95016e-14 -1499.27 2.75774e-14 2551.21)
(12329.2 -375.779 3.06253e-14 -1506.43 2.77832e-14 2497.55)
(12099.7 -548.924 1.68946e-28 -1454.89 3.25835e-29 2456.49)
(11871.6 -695.072 6.47016e-14 -1357.05 3.73962e-14 2426.43)
(11650.7 -812.593 -1.59368e-14 -1224.43 2.09737e-15 2406.05)
(11440.9 -902.29 -1.51581e-14 -1066.81 2.03852e-15 2394.02)
(11244.7 -965.895 3.25231e-14 -892.144 2.27678e-14 2389.05)
(11063.2 -1005.37 3.00915e-14 -706.805 9.27186e-15 2389.94)
(10896.9 -1022.58 4.56962e-14 -515.933 1.92073e-14 2395.6)
(10745.5 -1019.1 3.22637e-14 -323.712 1.89344e-14 2405.02)
(10608.5 -996.11 -1.23722e-14 -133.652 -2.84702e-16 2417.28)
(10485.4 -954.346 3.96179e-15 51.1575 7.18699e-15 2431.52)
(10375.5 -894.068 1.58511e-14 227.79 7.69916e-15 2446.92)
(10278.5 -815.018 5.86074e-14 393.223 2.445e-14 2462.7)
(10194.2 -716.363 1.56352e-14 544.081 6.70988e-15 2478.07)
(10123.2 -596.668 5.87873e-30 676.353 2.52657e-30 2492.21)
(10066.7 -453.659 5.70253e-14 784.995 2.41756e-14 2504.24)
(10027.5 -282.156 3.0513e-14 863.446 1.14481e-14 2513.29)