/*--------------------------------*- C++ -*----------------------------------*\
  =========                 |
  \\      /  F ield         | OpenFOAM: The Open Source CFD Toolbox
   \\    /   O peration     | Website:  https://openfoam.org
    \\  /    A nd           | Version:  9
     \\/     M anipulation  |
\*---------------------------------------------------------------------------*/
FoamFile
{
    format      ascii;
    class       volScalarField;
    location    "0.2";
    object      delta;
}
// * * * * * * * * * * * * * * * * * * * * * * * * * * * * * * * * * * * * * //

dimensions      [0 0 0 0 0 0 0];

internalField   nonuniform List<scalar> 
500
(
7.64987e-76
1.12121e-72
8.59604e-70
4.04002e-67
1.27987e-64
2.91206e-62
4.98024e-60
6.62546e-58
7.04273e-56
6.11203e-54
4.40801e-52
2.68137e-50
1.39316e-48
6.25015e-47
2.44417e-45
8.40099e-44
2.55674e-42
6.93516e-41
1.68658e-39
3.69707e-38
7.34043e-37
1.32594e-35
2.18794e-34
3.31043e-33
4.60866e-32
5.92248e-31
7.04644e-30
7.7837e-29
8.0036e-28
7.67946e-27
6.8916e-26
5.79689e-25
4.57976e-24
3.40487e-23
2.38652e-22
1.57974e-21
9.89193e-21
5.86853e-20
3.30353e-19
1.76703e-18
8.99331e-18
4.3608e-17
2.01707e-16
8.91055e-16
3.76365e-15
1.52164e-14
5.89475e-14
2.19035e-13
7.81406e-13
2.67894e-12
8.83416e-12
2.80455e-11
8.57873e-11
2.53047e-10
7.20344e-10
1.98049e-09
5.26291e-09
1.35273e-08
3.3654e-08
8.10959e-08
1.89405e-07
4.29038e-07
9.43175e-07
2.01351e-06
4.17681e-06
8.42421e-06
1.65297e-05
3.15725e-05
5.87365e-05
0.000106491
0.000188264
0.000324724
0.000546758
0.000899187
0.00144516
0.00227108
0.00349166
0.00525479
0.00774526
0.0111869
0.0158423
0.0220087
0.0300107
0.0401888
0.0528834
0.0684167
0.0870714
0.10907
0.134553
0.163566
0.196042
0.2318
0.270544
0.311872
0.355291
0.400235
0.446092
0.492232
0.538029
0.582888
0.626271
0.667706
0.706806
0.743275
0.776905
0.80758
0.835262
0.859987
0.881853
0.901005
0.917623
0.931914
0.944096
0.954394
0.963028
0.970211
0.976141
0.981001
0.984956
0.988153
0.99072
0.992768
0.994392
0.995672
0.996676
0.997458
0.998065
0.998533
0.998893
0.999167
0.999376
0.999534
0.999654
0.999743
0.99981
0.99986
0.999897
0.999925
0.999945
0.99996
0.999971
0.999979
0.999985
0.999989
0.999992
0.999994
0.999996
0.999997
0.999998
0.999999
0.999999
0.999999
0.999999
1
1
1
1
1
1
1
1
1
1
1
1
1
1
1
1
1
1
1
1
1
1
1
1
1
1
1
1
1
1
1
1
1
1
1
1
1
1
1
1
1
1
1
1
1
1
1
1
1
1
1
1
1
1
1
1
1
1
1
1
1
1
1
1
1
1
1
1
1
1
1
1
1
1
1
1
1
1
1
1
1
1
1
1
1
1
1
1
1
1
1
1
1
1
1
1
1
1
1
1
1
1
1
1
1
1
1
1
1
1
1
1
1
1
1
1
1
1
1
1
1
1
1
1
1
1
1
1
1
1
1
1
1
1
1
1
1
1
1
1
1
1
1
1
1
1.00001
1.00001
1.00001
1.00001
1.00001
1.00001
1.00002
1.00002
1.00002
1.00003
1.00003
1.00004
1.00005
1.00006
1.00007
1.00008
1.00009
1.00011
1.00013
1.00015
1.00017
1.0002
1.00024
1.00028
1.00032
1.00038
1.00044
1.00051
1.00059
1.00068
1.00079
1.00091
1.00105
1.00121
1.00139
1.0016
1.00184
1.0021
1.00241
1.00275
1.00314
1.00358
1.00408
1.00464
1.00527
1.00599
1.00679
1.00768
1.00869
1.00982
1.01108
1.01249
1.01406
1.01582
1.01777
1.01994
1.02235
1.02503
1.02799
1.03128
1.03491
1.03893
1.04335
1.04824
1.05361
1.05952
1.06602
1.07315
1.08097
1.08953
1.0989
1.10914
1.12032
1.13251
1.14579
1.16025
1.17598
1.19305
1.21158
1.23167
1.25343
1.27696
1.3024
1.32987
1.3595
1.39142
1.4258
1.46277
1.5025
1.54514
1.59088
1.63989
1.69235
1.74846
1.80841
1.8724
1.94065
2.01338
2.09079
2.17314
2.26064
2.35353
2.45207
2.55651
2.66709
2.78408
2.90773
3.03832
3.17612
3.3214
3.47442
3.63548
3.80484
3.98279
4.1696
4.36555
4.57091
4.78597
5.01099
5.24624
5.49199
5.74849
6.016
6.29477
6.58504
6.88705
7.20102
7.52716
7.86569
8.21679
8.58066
8.95747
9.34737
9.75052
10.167
10.597
11.0406
11.4979
11.969
12.4538
12.9525
13.465
13.9913
14.5315
15.0855
15.6532
16.2346
16.8295
17.4378
18.0594
18.6941
19.3418
20.0023
20.6752
21.3604
22.0577
22.7667
23.4871
24.2186
24.961
25.7137
26.4765
27.249
28.0307
28.8213
29.6203
30.4272
31.2416
32.063
32.8909
33.7248
34.5643
35.4087
36.2576
37.1104
37.9666
38.8257
39.687
40.55
41.4143
42.2791
43.144
44.0083
44.8716
45.7333
46.5928
47.4496
48.3031
49.1528
49.9982
50.8387
51.6739
52.5031
53.326
54.1421
54.9508
55.7518
56.5445
57.3286
58.1035
58.869
59.6247
)
;

boundaryField
{
    lowValue
    {
        type            calculated;
        value           uniform 7.84902e-79;
    }
    highValue
    {
        type            calculated;
        value           uniform 60;
    }
    defaultFaces
    {
        type            empty;
    }
}


// ************************************************************************* //
