/*--------------------------------*- C++ -*----------------------------------*\
  =========                 |
  \\      /  F ield         | OpenFOAM: The Open Source CFD Toolbox
   \\    /   O peration     | Website:  https://openfoam.org
    \\  /    A nd           | Version:  9
     \\/     M anipulation  |
\*---------------------------------------------------------------------------*/
FoamFile
{
    format      ascii;
    class       volScalarField;
    location    "0.2";
    object      V;
}
// * * * * * * * * * * * * * * * * * * * * * * * * * * * * * * * * * * * * * //

dimensions      [0 1 0 0 0 0 0];

internalField   nonuniform List<scalar> 
500
(
2.73313e-79
1.05834e-75
1.54143e-72
1.17398e-69
5.48085e-67
1.72469e-64
3.89766e-62
6.62051e-60
8.74733e-58
9.23422e-56
7.95844e-54
5.69974e-52
3.44291e-50
1.7763e-48
7.9131e-47
3.07271e-45
1.04871e-43
3.16917e-42
8.53597e-41
2.06134e-39
4.48704e-38
8.84704e-37
1.58707e-35
2.60091e-34
3.90859e-33
5.40493e-32
6.89981e-31
8.15578e-30
8.95142e-29
9.14652e-28
8.72217e-27
7.78044e-26
6.50638e-25
5.11123e-24
3.77925e-23
2.635e-22
1.73545e-21
1.08148e-20
6.38689e-20
3.57996e-19
1.90726e-18
9.67125e-18
4.67376e-17
2.1553e-16
9.49578e-16
4.00165e-15
1.61479e-14
6.2464e-14
2.31859e-13
8.2667e-13
2.83381e-12
9.34853e-12
2.97056e-11
9.09979e-11
2.68961e-10
7.67655e-10
2.11741e-09
5.64862e-09
1.45849e-08
3.64757e-08
8.84212e-08
2.07904e-07
4.74483e-07
1.05177e-06
2.26593e-06
4.74766e-06
9.68043e-06
1.92205e-05
3.71839e-05
7.01347e-05
0.00012905
0.000231787
0.000406616
0.000697104
0.00116864
0.00191684
0.00307797
0.00484133
0.00746335
0.0112829
0.0167368
0.0243744
0.0348701
0.0490315
0.0678023
0.0922584
0.123596
0.16311
0.212168
0.272172
0.344516
0.430546
0.531507
0.648504
0.782462
0.934093
1.10387
1.29203
1.49855
1.72316
1.96537
2.2245
2.49968
2.78993
3.09415
3.41118
3.73984
4.07895
4.42734
4.78391
5.14762
5.51749
5.89265
6.27229
6.65572
7.04231
7.43153
7.8229
8.21604
8.61062
9.00636
9.40302
9.80042
10.1984
10.5969
10.9957
11.3947
11.7941
12.1935
12.5931
12.9928
13.3926
13.7924
14.1923
14.5922
14.9922
15.3921
15.7921
16.192
16.592
16.992
17.392
17.792
18.192
18.592
18.992
19.392
19.792
20.192
20.592
20.992
21.392
21.792
22.192
22.592
22.992
23.392
23.792
24.192
24.592
24.992
25.392
25.792
26.192
26.592
26.992
27.392
27.792
28.192
28.592
28.992
29.392
29.792
30.192
30.592
30.992
31.392
31.792
32.192
32.592
32.992
33.392
33.792
34.192
34.592
34.992
35.392
35.792
36.192
36.592
36.992
37.392
37.792
38.192
38.592
38.992
39.392
39.792
40.192
40.592
40.992
41.392
41.792
42.192
42.592
42.992
43.392
43.792
44.192
44.592
44.992
45.392
45.792
46.192
46.592
46.992
47.392
47.792
48.192
48.592
48.992
49.392
49.792
50.192
50.592
50.992
51.392
51.792
52.192
52.592
52.992
53.392
53.792
54.192
54.592
54.992
55.392
55.792
56.192
56.592
56.992
57.392
57.792
58.192
58.592
58.992
59.392
59.792
60.192
60.592
60.992
61.392
61.792
62.192
62.592
62.992
63.392
63.792
64.192
64.592
64.992
65.392
65.792
66.192
66.592
66.992
67.392
67.792
68.192
68.592
68.992
69.392
69.792
70.192
70.592
70.992
71.392
71.792
72.192
72.592
72.992
73.392
73.792
74.192
74.592
74.992
75.392
75.792
76.192
76.592
76.992
77.392
77.792
78.192
78.592
78.992
79.392
79.792
80.192
80.592
80.992
81.392
81.792
82.192
82.592
82.992
83.392
83.792
84.1921
84.5921
84.9921
85.3921
85.7921
86.1922
86.5922
86.9923
87.3923
87.7924
88.1925
88.5925
88.9926
89.3927
89.7929
90.193
90.5932
90.9934
91.3937
91.794
92.1943
92.5947
92.9951
93.3956
93.7962
94.1968
94.5976
94.9984
95.3994
95.8005
96.2018
96.6033
97.0049
97.4068
97.809
98.2114
98.6142
99.0173
99.4209
99.8249
100.229
100.634
101.04
101.447
101.854
102.262
102.671
103.081
103.492
103.905
104.319
104.735
105.153
105.572
105.994
106.418
106.845
107.274
107.707
108.143
108.583
109.027
109.475
109.929
110.387
110.852
111.323
111.8
112.286
112.779
113.281
113.792
114.313
114.846
115.39
115.947
116.518
117.104
117.705
118.324
118.96
119.617
120.294
120.994
121.717
122.466
123.243
124.048
124.884
125.753
126.657
127.598
128.578
129.599
130.665
131.777
132.938
134.152
135.42
136.746
138.132
139.583
141.101
142.69
144.353
146.093
147.916
149.823
151.82
153.911
156.099
158.389
160.785
163.291
165.913
168.655
171.521
174.516
177.646
180.915
184.328
187.891
191.608
195.486
199.528
203.741
208.13
212.7
217.456
222.405
227.552
232.901
238.46
244.232
250.224
256.441
262.889
269.572
276.497
283.668
291.09
298.77
306.711
314.919
323.398
332.155
341.192
350.515
360.128
370.036
380.242
390.75
401.566
412.691
424.13
435.886
447.963
460.362
473.088
486.143
499.528
513.247
527.302
541.694
556.424
571.495
586.907
602.662
618.76
635.201
651.987
669.116
686.59
704.407
722.567
741.069
759.913
779.096
798.618
818.477
838.671
859.198
880.056
901.241
922.753
944.587
966.742
989.212
1012
1035.09
1058.49
1082.19
)
;

boundaryField
{
    lowValue
    {
        type            fixedValue;
        value           uniform 0;
    }
    highValue
    {
        type            fixedGradient;
        gradient        uniform 60;
    }
    defaultFaces
    {
        type            empty;
    }
}


// ************************************************************************* //
