/*--------------------------------*- C++ -*----------------------------------*\
  =========                 |
  \\      /  F ield         | OpenFOAM: The Open Source CFD Toolbox
   \\    /   O peration     | Website:  https://openfoam.org
    \\  /    A nd           | Version:  9
     \\/     M anipulation  |
\*---------------------------------------------------------------------------*/
FoamFile
{
    format      ascii;
    class       volScalarField;
    location    "65";
    object      ddt0(h);
}
// * * * * * * * * * * * * * * * * * * * * * * * * * * * * * * * * * * * * * //

dimensions      [0 1 -1 0 0 0 0];

internalField   nonuniform List<scalar> 
400
(
-1.05014e-08
-2.40904e-08
-2.85982e-08
-2.40455e-08
-5.16997e-09
-1.14035e-08
-9.58822e-09
1.29456e-08
1.86414e-08
-4.70505e-09
-1.83794e-08
-3.37375e-08
5.52213e-09
-2.40661e-09
-2.15536e-09
1.32362e-08
1.2228e-08
4.52926e-09
-5.12189e-09
-5.26281e-09
-8.94341e-09
-2.31379e-08
-2.62437e-08
-1.22688e-08
-1.09503e-08
-2.43207e-08
2.3167e-09
-3.29945e-09
1.86889e-08
-1.9545e-08
-2.46111e-08
-1.72186e-08
-1.8643e-08
-1.07783e-09
-1.13602e-08
-8.64909e-10
1.54191e-08
1.42506e-08
-4.33538e-10
-6.63362e-09
-1.32072e-08
-2.26523e-08
-1.72943e-08
-3.10211e-09
-2.63081e-08
-6.62701e-09
1.80746e-09
-1.10427e-08
-2.15318e-08
-1.7506e-09
-4.56185e-08
5.92768e-09
-2.66022e-08
-2.37881e-08
-1.25593e-08
-1.73815e-08
4.7135e-10
8.90277e-09
-6.18706e-09
-6.23254e-09
-2.04215e-08
-2.1664e-08
-7.69523e-09
-9.42826e-09
-9.5484e-09
2.07558e-08
-2.54638e-08
-2.61782e-08
-5.32584e-08
-8.34708e-09
2.24459e-08
-3.9642e-08
2.85515e-08
-1.17214e-08
-1.66805e-08
-1.37171e-08
-1.37486e-08
-1.35293e-08
-1.34837e-08
-6.56344e-09
-2.77989e-08
-2.03152e-08
-2.76908e-09
-3.11693e-09
1.98786e-08
1.67459e-09
-2.64104e-08
-7.21216e-08
4.5841e-08
-8.30567e-08
7.02623e-08
3.4475e-08
-3.45346e-08
5.57107e-08
2.827e-08
-9.41779e-09
-2.27993e-08
-2.98531e-08
-2.17306e-08
-6.52339e-09
-3.56642e-08
-1.55174e-08
6.38648e-09
1.19246e-08
1.18184e-08
-2.3529e-09
-6.45105e-08
4.99141e-08
-5.53303e-08
1.2373e-07
-1.09953e-07
1.72262e-07
8.72285e-09
-3.09175e-08
4.13056e-08
2.70937e-08
-8.83812e-09
-2.38414e-08
-1.38728e-08
-1.74085e-09
-3.54229e-08
-6.02028e-09
1.55247e-08
6.23419e-09
1.48737e-09
-3.06507e-08
1.13785e-08
2.92748e-08
9.21358e-09
9.08221e-08
-8.53426e-08
-2.24713e-07
9.59428e-08
1.84472e-08
-1.03555e-08
1.42538e-08
8.20959e-09
2.80988e-09
1.12969e-08
8.69277e-09
-2.22571e-08
3.77706e-09
1.18619e-08
-7.67785e-09
-2.02672e-08
9.2911e-09
8.68719e-09
4.16511e-08
1.01628e-07
-3.88213e-07
-4.02932e-07
-3.25556e-07
-1.32287e-07
1.1751e-10
-7.45058e-09
-1.28599e-09
2.67769e-09
1.91743e-08
3.09318e-08
1.72223e-08
-4.10655e-09
8.03962e-09
-5.8813e-10
-2.30173e-08
-9.67511e-09
2.28616e-08
4.31117e-08
-6.6741e-09
-9.31498e-08
4.13833e-07
3.7212e-07
3.14856e-07
1.33055e-07
-1.66136e-08
-2.52151e-08
-2.67452e-08
3.20505e-08
1.05216e-08
2.58579e-08
3.07849e-08
9.15029e-09
2.03968e-09
-1.23324e-08
-2.12751e-08
-2.09356e-09
4.40942e-08
6.72154e-09
-1.37075e-08
1.84447e-08
-1.32559e-07
2.15618e-07
2.2551e-07
-1.14099e-07
-7.8335e-09
5.64707e-10
-2.86029e-08
-6.05628e-08
-3.80049e-10
6.48732e-09
-1.20197e-08
1.05702e-08
-5.25825e-09
-1.87e-08
-6.66175e-09
5.21623e-09
2.05463e-08
2.70813e-08
-3.99906e-08
3.70568e-08
3.53271e-08
-1.31624e-07
2.3927e-08
9.36266e-09
1.17635e-08
-2.32054e-08
-1.97854e-08
-4.16254e-09
-2.32856e-09
-3.73271e-09
-2.29252e-09
4.47195e-09
-7.25808e-09
-1.49574e-08
-9.93452e-10
9.75089e-09
-1.55504e-09
2.29393e-08
1.78832e-08
-2.52631e-08
2.90926e-07
-4.78881e-06
-2.6542e-07
1.35915e-07
1.20204e-09
-1.23999e-08
7.61615e-09
6.27945e-09
2.75072e-09
-3.13128e-09
-3.62886e-09
-4.73093e-09
-1.31977e-09
-6.51365e-09
-1.7281e-09
-5.11104e-09
-2.23861e-09
1.83313e-08
4.23267e-08
1.98178e-08
-1.93423e-07
4.78595e-06
3.36285e-07
-1.14367e-07
-2.53443e-08
-9.27649e-10
6.17004e-09
9.49928e-09
7.88236e-09
3.6046e-09
-3.57299e-10
-1.23057e-08
1.73066e-09
6.38124e-09
-9.61171e-09
-1.74547e-08
-2.11428e-08
2.88824e-08
2.10964e-08
3.65324e-08
-9.68898e-08
2.59141e-07
-2.02366e-07
2.16216e-08
-9.7505e-10
-1.37737e-08
7.32502e-09
1.48864e-08
1.29508e-08
1.25415e-08
6.10167e-09
-1.74846e-08
-6.40941e-09
1.35389e-08
4.9196e-09
-3.25415e-08
-2.74467e-08
3.6607e-10
4.20627e-08
-6.08116e-09
5.95339e-08
-6.9768e-08
4.29798e-08
1.79211e-09
-1.86585e-08
7.97134e-09
2.12373e-08
1.568e-08
7.12649e-09
5.93955e-09
3.64985e-09
-1.85436e-08
-2.11223e-08
2.37403e-09
2.65386e-08
-7.84862e-09
-4.04782e-08
-1.90107e-08
2.45318e-09
1.09294e-08
-4.8884e-10
8.33258e-09
2.06345e-08
5.90825e-09
1.55489e-08
2.7378e-08
2.39575e-08
1.02483e-08
-1.04465e-08
-2.32762e-08
-1.24479e-08
-1.46481e-08
-3.07242e-08
-2.06846e-08
2.43777e-08
2.90838e-08
-1.74993e-08
-4.16466e-08
-2.98459e-08
-2.46551e-08
-2.66463e-09
2.20532e-08
1.57648e-08
1.7949e-08
2.92666e-08
3.26604e-08
1.84452e-08
-4.72157e-09
-3.32067e-08
-4.79871e-08
-2.43405e-08
-9.3672e-09
-2.77423e-08
-3.48977e-08
-4.2991e-09
3.23088e-08
1.60515e-08
-2.25032e-08
-3.94001e-08
-3.41079e-08
-2.48049e-08
-2.2248e-08
-1.30117e-08
-3.42618e-09
1.32474e-08
9.59943e-09
-8.64232e-09
-2.39943e-08
-3.62521e-08
-3.8799e-08
-1.77227e-08
-9.11541e-09
-1.38042e-08
-2.93918e-08
-3.30002e-08
-6.00046e-09
1.2571e-08
8.26854e-09
-4.28298e-09
-4.87244e-09
-1.51743e-08
-3.35124e-08
-3.10199e-08
-1.85974e-08
-8.95208e-09
-1.67634e-08
-2.48533e-08
-1.87984e-08
-1.26723e-09
1.08611e-08
6.80866e-09
-1.02583e-08
5.92965e-10
-1.89675e-08
-4.57844e-08
-4.41702e-08
-8.51477e-09
1.8168e-08
2.98997e-08
2.82115e-08
1.08849e-08
-9.73203e-09
-1.71744e-08
-8.01362e-09
-1.09936e-08
-1.84864e-08
-1.85086e-08
3.94007e-10
3.62208e-08
5.42468e-08
2.65802e-08
)
;

boundaryField
{
    sides
    {
        type            calculated;
        value           nonuniform List<scalar> 
40
(
-1.02583e-08
5.92965e-10
-1.89675e-08
-4.57844e-08
-4.41702e-08
-8.51477e-09
1.8168e-08
2.98997e-08
2.82115e-08
1.08849e-08
-9.73203e-09
-1.71744e-08
-8.01362e-09
-1.09936e-08
-1.84864e-08
-1.85086e-08
3.94007e-10
3.62208e-08
5.42468e-08
2.65802e-08
-1.05014e-08
-2.40904e-08
-2.85982e-08
-2.40455e-08
-5.16997e-09
-1.14035e-08
-9.58822e-09
1.29456e-08
1.86414e-08
-4.70505e-09
-1.83794e-08
-3.37375e-08
5.52213e-09
-2.40661e-09
-2.15536e-09
1.32362e-08
1.2228e-08
4.52926e-09
-5.12189e-09
-5.26281e-09
)
;
    }
    inlet
    {
        type            calculated;
        value           nonuniform List<scalar> 
20
(
-1.05014e-08
-8.94341e-09
-1.32072e-08
-2.04215e-08
-2.77989e-08
-3.56642e-08
-3.54229e-08
-2.22571e-08
-4.10655e-09
9.15029e-09
1.05702e-08
4.47195e-09
-4.73093e-09
-1.23057e-08
-1.74846e-08
-1.85436e-08
-1.46481e-08
-9.3672e-09
-9.11541e-09
-1.02583e-08
)
;
    }
    outlet
    {
        type            calculated;
        value           uniform 0;
    }
    frontAndBack
    {
        type            empty;
    }
}


// ************************************************************************* //
