/*--------------------------------*- C++ -*----------------------------------*\
  =========                 |
  \\      /  F ield         | OpenFOAM: The Open Source CFD Toolbox
   \\    /   O peration     | Website:  https://openfoam.org
    \\  /    A nd           | Version:  9
     \\/     M anipulation  |
\*---------------------------------------------------------------------------*/
FoamFile
{
    format      ascii;
    class       volVectorField;
    location    "65";
    object      ddt0(hU);
}
// * * * * * * * * * * * * * * * * * * * * * * * * * * * * * * * * * * * * * //

dimensions      [0 2 -2 0 0 0 0];

internalField   nonuniform List<vector> 
400
(
(2.82041e-10 -3.03229e-10 0)
(7.06938e-10 2.09177e-10 0)
(2.29625e-09 1.0078e-09 0)
(-1.64906e-10 4.56576e-10 0)
(-3.1133e-09 -9.81776e-10 0)
(-2.93181e-09 -1.47367e-11 0)
(-8.04145e-10 -1.34987e-09 0)
(5.35193e-10 -5.16701e-10 0)
(-2.5556e-09 -4.78107e-10 0)
(-6.10103e-09 2.54816e-09 0)
(-4.146e-09 6.54599e-10 0)
(-5.89605e-09 1.34293e-09 0)
(-7.33331e-10 7.11337e-10 0)
(-5.4525e-10 1.25948e-09 0)
(-1.23329e-10 2.79555e-09 0)
(2.35376e-09 7.40685e-10 0)
(-6.39459e-10 -1.15133e-09 0)
(-2.81388e-09 9.32509e-11 0)
(-2.51573e-10 1.73742e-09 0)
(2.86568e-09 1.13958e-09 0)
(7.7507e-10 -7.98283e-10 0)
(1.39389e-09 3.91829e-10 0)
(1.69417e-09 1.75062e-09 0)
(-9.49668e-10 4.99365e-10 0)
(-2.89571e-09 -9.69804e-10 0)
(-3.59755e-09 -7.65271e-11 0)
(-8.56276e-10 -4.78401e-09 0)
(-1.70474e-09 -1.17337e-09 0)
(-8.90542e-11 -5.72158e-10 0)
(-5.31842e-09 5.36537e-09 0)
(-4.64968e-09 2.43902e-09 0)
(-3.90858e-09 8.78524e-10 0)
(-4.39625e-09 4.41796e-09 0)
(5.55617e-10 4.79227e-09 0)
(-1.41569e-09 7.43657e-09 0)
(-1.79413e-09 4.11247e-09 0)
(7.4476e-11 -1.74927e-09 0)
(4.29881e-10 -1.63295e-09 0)
(-1.45495e-10 3.42032e-09 0)
(-2.18801e-10 3.05719e-09 0)
(9.34744e-10 -6.66756e-10 0)
(1.91164e-09 4.45779e-10 0)
(7.54354e-10 1.26261e-09 0)
(-9.18907e-10 1.02154e-09 0)
(-2.66206e-09 1.23468e-09 0)
(-3.72649e-09 -4.11288e-09 0)
(-2.47173e-09 -6.18044e-09 0)
(-1.2724e-09 -2.1823e-09 0)
(-1.70915e-09 5.25079e-09 0)
(-1.93488e-10 2.69735e-09 0)
(-7.90093e-09 7.28314e-09 0)
(7.28829e-10 -6.47827e-10 0)
(-2.61739e-09 3.54793e-09 0)
(-2.54422e-09 9.3805e-09 0)
(-1.75769e-09 9.22159e-09 0)
(-6.93109e-09 6.88446e-09 0)
(-4.61621e-09 1.34175e-09 0)
(1.03986e-09 -9.11462e-10 0)
(6.91233e-10 2.97967e-09 0)
(-1.75955e-09 3.21481e-09 0)
(6.40103e-10 3.06939e-10 0)
(1.59808e-09 4.96208e-10 0)
(2.22498e-11 1.1043e-09 0)
(-9.46649e-10 2.66091e-09 0)
(-3.28916e-09 1.46014e-10 0)
(-3.06984e-09 -7.34488e-09 0)
(-3.87086e-09 -4.23075e-09 0)
(2.08244e-09 1.50847e-09 0)
(-4.59735e-09 5.68673e-09 0)
(9.91473e-10 5.9215e-09 0)
(2.19611e-09 -5.95043e-09 0)
(-9.05863e-09 3.72723e-09 0)
(6.71726e-09 -4.36807e-09 0)
(1.19207e-09 1.54203e-09 0)
(-4.63497e-09 6.4471e-09 0)
(-6.66852e-09 5.30935e-09 0)
(-6.29571e-09 1.67567e-09 0)
(-3.1016e-09 -3.86129e-10 0)
(-2.74411e-09 3.47584e-09 0)
(-4.9217e-09 3.87428e-09 0)
(-2.07221e-10 1.18868e-09 0)
(4.39265e-10 2.69377e-10 0)
(-8.30976e-10 1.23954e-09 0)
(-2.02723e-09 2.15658e-09 0)
(-2.29109e-09 -1.82535e-09 0)
(-3.07987e-09 -4.53827e-09 0)
(8.785e-10 -1.66827e-10 0)
(-4.25772e-09 5.32816e-09 0)
(6.60132e-09 -4.8859e-09 0)
(-1.55686e-08 8.66058e-09 0)
(7.69241e-09 -1.13842e-08 0)
(7.18677e-09 -1.21228e-08 0)
(-1.08221e-08 -1.74433e-09 0)
(1.12519e-08 -9.28335e-09 0)
(6.05187e-09 -6.28594e-09 0)
(-5.47932e-09 -1.77018e-09 0)
(-7.19051e-09 -1.89257e-09 0)
(-4.21268e-09 -1.79118e-09 0)
(-3.33131e-09 3.58072e-09 0)
(-6.57118e-09 4.05486e-09 0)
(-1.56698e-09 8.01063e-10 0)
(-8.25423e-10 -4.07037e-10 0)
(-2.39733e-09 4.0541e-10 0)
(-2.03102e-09 1.09881e-09 0)
(-1.61409e-09 -8.59694e-11 0)
(1.00013e-09 2.83702e-10 0)
(-9.18714e-10 3.08606e-09 0)
(-2.38925e-09 -4.05783e-09 0)
(-5.20666e-09 4.9743e-09 0)
(1.33283e-08 -2.19008e-08 0)
(-2.52653e-08 2.66149e-08 0)
(2.36786e-08 -2.62791e-08 0)
(2.75204e-09 -1.52707e-08 0)
(-1.13934e-08 -4.95852e-09 0)
(8.60038e-09 -1.03562e-08 0)
(7.90563e-09 -9.27954e-09 0)
(3.1687e-10 -7.66335e-09 0)
(-2.39606e-09 -5.25342e-09 0)
(-4.45106e-09 1.10989e-09 0)
(-7.85212e-09 2.96614e-09 0)
(-2.22927e-09 -7.28288e-10 0)
(-2.22734e-09 -1.97253e-09 0)
(-3.24892e-09 -7.59003e-10 0)
(-1.73565e-09 1.8613e-09 0)
(1.2673e-09 3.45759e-09 0)
(1.58493e-09 2.74778e-09 0)
(-2.66215e-09 -2.63861e-09 0)
(-1.43439e-10 -3.79987e-09 0)
(-1.75786e-08 1.32342e-09 0)
(2.70362e-08 -1.45282e-08 0)
(-2.51741e-09 1.44793e-07 0)
(-6.12077e-08 3.39692e-08 0)
(1.92602e-08 -1.34259e-08 0)
(7.04237e-09 -4.60009e-09 0)
(-2.66625e-09 -2.27346e-09 0)
(5.5683e-09 -9.01871e-09 0)
(6.0288e-09 -1.20327e-08 0)
(4.14098e-09 -1.12693e-08 0)
(7.33473e-10 -3.31136e-09 0)
(-5.02943e-09 1.4936e-09 0)
(-1.96165e-09 -2.60698e-09 0)
(-3.13211e-09 -3.57367e-09 0)
(-3.29854e-09 -9.97536e-10 0)
(1.54272e-10 3.46333e-09 0)
(1.66381e-09 5.05767e-09 0)
(2.6759e-10 7.52333e-10 0)
(-3.2131e-09 -7.75968e-09 0)
(-6.12649e-09 -1.56854e-09 0)
(-3.0993e-09 -7.94626e-10 0)
(1.06927e-07 2.36893e-08 0)
(6.78622e-09 -1.69523e-07 0)
(-1.8753e-07 -2.69352e-08 0)
(-5.49552e-08 1.14831e-08 0)
(-1.20547e-09 4.4937e-09 0)
(-8.19124e-10 4.93767e-09 0)
(3.53586e-10 -2.1699e-09 0)
(4.63848e-09 -1.12836e-08 0)
(7.08964e-09 -1.20993e-08 0)
(6.00079e-09 -6.16826e-09 0)
(6.72392e-10 7.32619e-12 0)
(-7.7224e-10 -3.77463e-09 0)
(-3.23881e-09 -3.77744e-09 0)
(-2.11069e-09 1.34656e-10 0)
(1.40606e-09 3.8697e-09 0)
(1.79799e-09 3.20004e-09 0)
(-2.77075e-09 -2.14059e-09 0)
(-4.4984e-09 -5.82199e-09 0)
(-1.98938e-09 -1.56396e-10 0)
(-4.93737e-09 3.73705e-09 0)
(-1.02195e-07 2.77356e-08 0)
(-1.00928e-08 -1.71298e-07 0)
(1.8131e-07 -1.84628e-08 0)
(5.06287e-08 1.30131e-08 0)
(-7.86676e-09 1.01149e-08 0)
(-1.07663e-08 8.28845e-09 0)
(-1.08041e-08 4.68698e-09 0)
(2.51054e-09 -1.41883e-09 0)
(7.095e-09 -4.88583e-09 0)
(8.14078e-09 -3.90127e-09 0)
(6.22898e-09 -1.09331e-09 0)
(6.12637e-10 -2.97271e-09 0)
(-2.25603e-09 -2.32702e-09 0)
(-9.20293e-10 1.24081e-09 0)
(1.87765e-09 2.1389e-09 0)
(1.42642e-10 -7.96776e-10 0)
(-3.55815e-09 -1.90681e-09 0)
(-3.44947e-09 -9.4876e-10 0)
(-5.60228e-09 3.38802e-09 0)
(1.59357e-08 3.44624e-09 0)
(-3.54704e-08 -2.65607e-09 0)
(1.861e-08 1.2503e-07 0)
(6.12704e-08 3.07443e-08 0)
(-2.66469e-08 -7.00953e-09 0)
(-9.45876e-09 4.03336e-10 0)
(-5.4922e-09 1.42965e-09 0)
(-9.75043e-09 1.93245e-09 0)
(-9.07168e-09 5.53718e-09 0)
(3.90541e-10 3.27924e-09 0)
(2.85093e-09 1.30855e-09 0)
(4.18741e-09 3.73522e-10 0)
(1.25661e-09 -2.37119e-10 0)
(-1.23207e-09 -7.044e-11 0)
(-4.47043e-10 4.77734e-10 0)
(9.5054e-10 -7.0752e-10 0)
(-1.64473e-10 -3.57609e-09 0)
(-2.88226e-09 -6.54389e-10 0)
(-2.05262e-09 4.75483e-09 0)
(-2.02083e-09 -2.10724e-09 0)
(1.32565e-09 1.01376e-08 0)
(-5.05937e-09 -3.09342e-08 0)
(-1.85446e-08 1.18587e-07 0)
(3.0036e-09 -3.50904e-08 0)
(6.61514e-09 -1.27859e-08 0)
(3.43717e-09 -3.9634e-09 0)
(-8.84155e-09 -6.0771e-09 0)
(-5.41026e-09 -2.44153e-09 0)
(6.50824e-10 4.16875e-09 0)
(-9.27013e-12 5.68287e-09 0)
(-2.37104e-10 3.70619e-09 0)
(2.50828e-09 1.98243e-09 0)
(7.77369e-10 2.70456e-09 0)
(-1.20313e-09 1.87765e-09 0)
(-7.18609e-10 -1.10333e-09 0)
(-2.11535e-10 -3.79933e-09 0)
(-3.12702e-10 -3.39071e-09 0)
(-1.26264e-09 6.02569e-10 0)
(-2.91728e-09 3.68382e-09 0)
(3.20015e-09 4.229e-10 0)
(-1.90261e-08 -1.26844e-08 0)
(1.23442e-07 1.42979e-08 0)
(-4.83545e-07 -1.10714e-07 0)
(-1.4002e-07 1.62046e-08 0)
(3.40188e-08 2.81669e-09 0)
(-7.20864e-10 -1.27781e-08 0)
(-5.39183e-09 -9.87907e-09 0)
(2.97376e-09 -2.8181e-09 0)
(4.47739e-09 3.13333e-09 0)
(-1.07259e-10 5.18724e-09 0)
(-2.09203e-09 2.57813e-09 0)
(4.23713e-10 4.65782e-10 0)
(-3.66272e-10 3.33174e-09 0)
(-1.80796e-09 2.80179e-09 0)
(-1.82441e-09 -2.1316e-09 0)
(-1.00635e-09 -5.78665e-09 0)
(-3.0776e-10 -2.9483e-09 0)
(-1.05884e-09 1.99419e-09 0)
(-2.22488e-09 3.15054e-09 0)
(-7.34654e-09 -8.90874e-10 0)
(1.32912e-08 -8.54665e-09 0)
(-1.27759e-07 5.28594e-09 0)
(4.74712e-07 -8.68607e-08 0)
(1.54519e-07 2.40807e-08 0)
(-3.41878e-08 -3.31089e-09 0)
(-1.0454e-08 -7.66026e-09 0)
(3.83284e-09 -6.39248e-09 0)
(7.29308e-09 -1.66977e-09 0)
(6.62799e-09 2.99815e-09 0)
(8.98844e-10 4.9614e-09 0)
(-2.04738e-09 1.77336e-09 0)
(5.10741e-10 -2.20285e-10 0)
(-7.75239e-10 1.3414e-09 0)
(-1.84398e-09 2.35301e-09 0)
(-2.52572e-09 -1.0972e-09 0)
(-2.12564e-09 -5.96258e-09 0)
(-3.10878e-10 -3.34871e-09 0)
(-1.30372e-09 2.09027e-09 0)
(-3.81589e-09 5.27127e-09 0)
(-3.40296e-09 3.20639e-10 0)
(-5.58657e-09 2.28398e-09 0)
(6.30757e-09 -1.85901e-08 0)
(3.91496e-08 1.14367e-07 0)
(-4.77582e-08 -1.25122e-08 0)
(-8.03228e-09 -1.23449e-09 0)
(9.89093e-10 1.06755e-09 0)
(9.67659e-10 -1.01112e-09 0)
(7.71411e-09 1.58051e-09 0)
(6.70005e-09 4.9877e-09 0)
(9.2029e-10 6.22437e-09 0)
(-1.53612e-09 3.03872e-09 0)
(6.73199e-11 3.85753e-10 0)
(-1.6404e-10 -7.34191e-10 0)
(-6.92248e-11 9.93583e-10 0)
(-2.38712e-09 6.01346e-10 0)
(-2.88378e-09 -3.23973e-09 0)
(-1.33612e-09 -4.61118e-09 0)
(-8.10803e-11 3.98737e-10 0)
(-3.68478e-09 3.82936e-09 0)
(-4.14743e-09 5.51271e-09 0)
(-4.20577e-09 -1.24362e-09 0)
(3.6004e-09 9.30115e-09 0)
(-1.25103e-08 -1.46429e-08 0)
(3.60058e-09 1.61038e-09 0)
(-7.77838e-10 8.80941e-09 0)
(-4.04646e-09 2.96462e-09 0)
(5.56586e-09 3.74927e-09 0)
(9.04174e-09 4.4636e-09 0)
(5.50565e-09 6.43419e-09 0)
(7.70707e-10 7.33213e-09 0)
(-2.35824e-09 3.54593e-09 0)
(-3.41438e-09 3.22114e-10 0)
(8.00364e-10 -7.37621e-10 0)
(2.12126e-09 -3.70953e-10 0)
(-9.06966e-10 -1.13715e-10 0)
(-3.91774e-09 -1.31623e-10 0)
(-2.79007e-09 -2.8108e-09 0)
(-3.69666e-10 -2.55871e-09 0)
(-1.16622e-09 4.83996e-10 0)
(-3.13624e-09 3.11604e-09 0)
(-1.32014e-09 3.92859e-09 0)
(-1.07401e-09 3.74874e-09 0)
(-1.65023e-09 9.76332e-09 0)
(-2.03608e-09 1.35755e-08 0)
(-2.0317e-09 1.01389e-08 0)
(3.50258e-09 9.65597e-09 0)
(7.09751e-09 7.50894e-09 0)
(5.58363e-09 5.6342e-09 0)
(2.13045e-09 6.82223e-09 0)
(-1.94201e-09 5.62905e-09 0)
(-6.53519e-09 -1.81152e-10 0)
(-7.86268e-09 -1.7973e-09 0)
(1.12677e-09 1.18194e-09 0)
(2.57837e-09 -6.64837e-10 0)
(6.094e-10 -3.03852e-09 0)
(-3.65422e-09 -6.68156e-10 0)
(-4.65116e-09 1.56781e-09 0)
(-1.42695e-09 -5.02176e-10 0)
(1.92946e-10 -1.77393e-09 0)
(-6.99124e-10 -1.05497e-09 0)
(-2.17312e-09 -8.74285e-10 0)
(-1.30761e-09 -3.61304e-10 0)
(-7.06301e-11 2.78544e-09 0)
(4.20462e-10 7.16248e-09 0)
(2.82311e-09 9.22204e-09 0)
(4.34982e-09 6.70112e-09 0)
(4.35365e-09 3.14309e-09 0)
(1.57952e-09 1.77871e-09 0)
(-3.37498e-09 2.68132e-09 0)
(-7.81213e-09 3.76979e-10 0)
(-9.74477e-09 -5.21527e-09 0)
(-7.41594e-09 -3.89714e-09 0)
(5.32824e-10 3.46966e-09 0)
(6.75118e-10 1.13718e-10 0)
(9.32623e-10 -5.58584e-09 0)
(-2.36453e-09 -4.44075e-09 0)
(-4.79595e-09 2.91687e-09 0)
(-3.15066e-09 5.79307e-09 0)
(7.4198e-11 2.37197e-09 0)
(8.38785e-11 -1.61811e-09 0)
(-2.2358e-09 -4.65971e-09 0)
(-3.85233e-09 -5.65118e-09 0)
(-3.20265e-09 -3.28726e-09 0)
(2.6211e-10 2.10859e-10 0)
(2.00503e-09 -3.71733e-10 0)
(2.66429e-09 -3.68262e-09 0)
(6.37114e-10 -6.27179e-09 0)
(-3.95251e-09 -6.82802e-09 0)
(-8.79083e-09 -5.11733e-09 0)
(-1.02385e-08 -4.57951e-09 0)
(-7.0662e-09 -6.52484e-09 0)
(-1.57552e-09 -3.68599e-09 0)
(-1.11376e-09 4.06753e-09 0)
(-2.32266e-09 1.12847e-09 0)
(-2.67444e-10 -4.80388e-09 0)
(-1.05863e-09 -6.07123e-09 0)
(-2.87486e-09 9.84652e-10 0)
(-2.87028e-09 7.68593e-09 0)
(-4.05029e-10 7.17493e-09 0)
(5.43102e-11 2.09757e-09 0)
(-2.00367e-09 -2.33356e-09 0)
(-4.53305e-09 -4.78056e-09 0)
(-4.59205e-09 -3.77773e-09 0)
(-1.81101e-09 -3.01028e-09 0)
(-3.33567e-10 -5.75128e-09 0)
(-1.04908e-09 -9.602e-09 0)
(-3.67512e-09 -1.17883e-08 0)
(-6.3584e-09 -1.1203e-08 0)
(-7.34753e-09 -7.84505e-09 0)
(-4.15218e-09 -4.14817e-09 0)
(2.1076e-09 -3.097e-09 0)
(5.9632e-09 -1.51669e-09 0)
(-2.26277e-09 1.81616e-09 0)
(-4.07979e-09 8.16086e-10 0)
(-1.75635e-09 -1.61778e-09 0)
(-8.54438e-10 -2.64879e-09 0)
(-1.67955e-09 -1.82341e-10 0)
(-1.75314e-09 3.20015e-09 0)
(-3.47719e-10 3.77687e-09 0)
(6.60669e-10 2.03836e-09 0)
(-1.48346e-09 4.91288e-11 0)
(-3.74826e-09 -1.24688e-09 0)
(-3.116e-09 -1.25643e-09 0)
(-2.45896e-09 -1.26394e-09 0)
(-2.40234e-09 -3.10442e-09 0)
(-3.14306e-09 -5.09974e-09 0)
(-3.70303e-09 -5.80773e-09 0)
(-3.89128e-09 -5.07712e-09 0)
(-2.2762e-09 -3.1873e-09 0)
(2.87953e-09 -9.81324e-10 0)
(8.67141e-09 -1.38906e-10 0)
(9.25268e-09 -9.41014e-11 0)
)
;

boundaryField
{
    sides
    {
        type            calculated;
        value           nonuniform List<vector> 
40
(
(-2.26277e-09 0 0)
(-4.07979e-09 0 0)
(-1.75635e-09 0 0)
(-8.54438e-10 0 0)
(-1.67955e-09 0 0)
(-1.75314e-09 0 0)
(-3.47719e-10 0 0)
(6.60669e-10 0 0)
(-1.48346e-09 0 0)
(-3.74826e-09 0 0)
(-3.116e-09 0 0)
(-2.45896e-09 0 0)
(-2.40234e-09 0 0)
(-3.14306e-09 0 0)
(-3.70303e-09 0 0)
(-3.89128e-09 0 0)
(-2.2762e-09 0 0)
(2.87953e-09 0 0)
(8.67141e-09 0 0)
(9.25268e-09 0 0)
(2.82041e-10 0 0)
(7.06938e-10 0 0)
(2.29625e-09 0 0)
(-1.64906e-10 0 0)
(-3.1133e-09 0 0)
(-2.93181e-09 0 0)
(-8.04145e-10 0 0)
(5.35193e-10 0 0)
(-2.5556e-09 0 0)
(-6.10103e-09 0 0)
(-4.146e-09 0 0)
(-5.89605e-09 0 0)
(-7.33331e-10 0 0)
(-5.4525e-10 0 0)
(-1.23329e-10 0 0)
(2.35376e-09 0 0)
(-6.39459e-10 0 0)
(-2.81388e-09 0 0)
(-2.51573e-10 0 0)
(2.86568e-09 0 0)
)
;
    }
    inlet
    {
        type            calculated;
        value           uniform (0 0 0);
    }
    outlet
    {
        type            calculated;
        value           nonuniform List<vector> 
20
(
(2.86568e-09 1.13958e-09 0)
(-2.18801e-10 3.05719e-09 0)
(-1.75955e-09 3.21481e-09 0)
(-4.9217e-09 3.87428e-09 0)
(-6.57118e-09 4.05486e-09 0)
(-7.85212e-09 2.96614e-09 0)
(-5.02943e-09 1.4936e-09 0)
(6.72392e-10 7.32619e-12 0)
(6.22898e-09 -1.09331e-09 0)
(4.18741e-09 3.73522e-10 0)
(2.50828e-09 1.98243e-09 0)
(4.23713e-10 4.65782e-10 0)
(5.10741e-10 -2.20285e-10 0)
(6.73199e-11 3.85753e-10 0)
(-3.41438e-09 3.22114e-10 0)
(-7.86268e-09 -1.7973e-09 0)
(-7.41594e-09 -3.89714e-09 0)
(-1.57552e-09 -3.68599e-09 0)
(5.9632e-09 -1.51669e-09 0)
(9.25268e-09 -9.41014e-11 0)
)
;
    }
    frontAndBack
    {
        type            empty;
    }
}


// ************************************************************************* //
