/*--------------------------------*- C++ -*----------------------------------*\
  =========                 |
  \\      /  F ield         | OpenFOAM: The Open Source CFD Toolbox
   \\    /   O peration     | Website:  https://openfoam.org
    \\  /    A nd           | Version:  9
     \\/     M anipulation  |
\*---------------------------------------------------------------------------*/
FoamFile
{
    format      ascii;
    class       volVectorField;
    location    "65";
    object      hU;
}
// * * * * * * * * * * * * * * * * * * * * * * * * * * * * * * * * * * * * * //

dimensions      [0 2 -1 0 0 0 0];

internalField   nonuniform List<vector> 
400
(
(0.001 -2.41843e-08 0)
(0.00100004 -7.01247e-08 0)
(0.00100012 -1.12606e-07 0)
(0.00100024 -1.52036e-07 0)
(0.0010004 -1.87365e-07 0)
(0.00100058 -2.16716e-07 0)
(0.00100079 -2.36724e-07 0)
(0.00100099 -2.45065e-07 0)
(0.00100118 -2.3627e-07 0)
(0.00100133 -2.11315e-07 0)
(0.0010014 -1.68665e-07 0)
(0.0010014 -1.28297e-07 0)
(0.00100129 -9.8593e-08 0)
(0.00100111 -9.26297e-08 0)
(0.00100087 -9.94387e-08 0)
(0.00100065 -1.35801e-07 0)
(0.00100044 -1.5679e-07 0)
(0.00100034 -2.01086e-07 0)
(0.00100026 -1.88456e-07 0)
(0.00100033 -2.68366e-07 0)
(0.001 -2.66095e-08 0)
(0.00100005 -7.78256e-08 0)
(0.00100013 -1.26733e-07 0)
(0.00100026 -1.73161e-07 0)
(0.00100042 -2.13312e-07 0)
(0.00100062 -2.40223e-07 0)
(0.00100085 -2.45552e-07 0)
(0.00100108 -2.19648e-07 0)
(0.0010013 -1.54225e-07 0)
(0.00100147 -4.74666e-08 0)
(0.00100157 9.39045e-08 0)
(0.00100154 2.48346e-07 0)
(0.00100141 3.91167e-07 0)
(0.00100119 4.78267e-07 0)
(0.00100093 5.05963e-07 0)
(0.00100067 4.51669e-07 0)
(0.00100049 3.77756e-07 0)
(0.00100037 2.57701e-07 0)
(0.00100033 2.06823e-07 0)
(0.00100029 8.14172e-08 0)
(0.001 -5.24464e-08 0)
(0.00100005 -1.57687e-07 0)
(0.00100013 -2.64817e-07 0)
(0.00100026 -3.72435e-07 0)
(0.00100043 -4.73326e-07 0)
(0.00100065 -5.55599e-07 0)
(0.0010009 -6.03023e-07 0)
(0.00100117 -5.96223e-07 0)
(0.00100143 -5.16577e-07 0)
(0.00100165 -3.51135e-07 0)
(0.00100177 -1.0895e-07 0)
(0.00100176 1.63993e-07 0)
(0.00100159 4.04576e-07 0)
(0.00100131 5.23066e-07 0)
(0.00100095 5.01227e-07 0)
(0.00100062 3.53954e-07 0)
(0.00100037 2.02465e-07 0)
(0.00100027 4.66444e-08 0)
(0.00100022 -1.58352e-09 0)
(0.0010003 -1.16704e-07 0)
(0.001 -7.32094e-08 0)
(0.00100004 -2.20592e-07 0)
(0.00100013 -3.72446e-07 0)
(0.00100026 -5.28915e-07 0)
(0.00100045 -6.80488e-07 0)
(0.00100069 -8.10279e-07 0)
(0.001001 -8.87812e-07 0)
(0.00100135 -8.82781e-07 0)
(0.00100171 -7.52953e-07 0)
(0.00100203 -4.73879e-07 0)
(0.00100222 -2.26891e-08 0)
(0.00100219 4.94896e-07 0)
(0.00100193 9.39691e-07 0)
(0.00100146 1.14276e-06 0)
(0.00100097 1.05654e-06 0)
(0.00100058 7.43172e-07 0)
(0.00100041 4.23253e-07 0)
(0.00100035 1.71155e-07 0)
(0.0010004 1.04428e-07 0)
(0.00100035 9.48623e-10 0)
(0.001 -9.0322e-08 0)
(0.00100004 -2.75934e-07 0)
(0.00100012 -4.74337e-07 0)
(0.00100025 -6.92421e-07 0)
(0.00100045 -9.20896e-07 0)
(0.00100072 -1.13931e-06 0)
(0.0010011 -1.2965e-06 0)
(0.00100156 -1.33286e-06 0)
(0.00100207 -1.17248e-06 0)
(0.00100257 -7.76919e-07 0)
(0.0010029 -1.70786e-07 0)
(0.00100288 5.79624e-07 0)
(0.00100244 1.23325e-06 0)
(0.00100167 1.51348e-06 0)
(0.00100086 1.37584e-06 0)
(0.00100031 9.64049e-07 0)
(0.00100013 5.80512e-07 0)
(0.00100022 3.15797e-07 0)
(0.00100037 2.65352e-07 0)
(0.00100043 1.68755e-07 0)
(0.001 -1.02453e-07 0)
(0.00100003 -3.16257e-07 0)
(0.00100009 -5.5954e-07 0)
(0.0010002 -8.43411e-07 0)
(0.00100038 -1.17303e-06 0)
(0.00100069 -1.52461e-06 0)
(0.00100115 -1.85599e-06 0)
(0.00100179 -2.04978e-06 0)
(0.00100254 -1.90836e-06 0)
(0.00100326 -1.20018e-06 0)
(0.00100377 8.50209e-08 0)
(0.00100378 1.54149e-06 0)
(0.0010031 2.43509e-06 0)
(0.00100192 2.30649e-06 0)
(0.00100082 1.42993e-06 0)
(0.00100019 4.91035e-07 0)
(0.00100017 1.18998e-08 0)
(0.00100037 -8.44408e-08 0)
(0.00100064 6.30077e-08 0)
(0.00100055 5.08587e-08 0)
(0.001 -1.01686e-07 0)
(0.001 -3.31399e-07 0)
(0.00100002 -5.99735e-07 0)
(0.00100008 -9.60996e-07 0)
(0.00100021 -1.39246e-06 0)
(0.00100049 -1.94547e-06 0)
(0.001001 -2.48668e-06 0)
(0.00100189 -3.08084e-06 0)
(0.00100321 -3.2312e-06 0)
(0.00100473 -2.88042e-06 0)
(0.00100574 -6.63987e-07 0)
(0.00100535 2.55887e-06 0)
(0.0010035 4.82849e-06 0)
(0.00100112 4.73758e-06 0)
(0.000999611 3.02811e-06 0)
(0.000999374 1.26224e-06 0)
(0.00100001 4.29382e-07 0)
(0.00100056 3.27475e-07 0)
(0.00100093 5.64824e-07 0)
(0.00100066 5.34683e-07 0)
(0.000999995 -9.18478e-08 0)
(0.000999969 -2.87173e-07 0)
(0.000999909 -5.754e-07 0)
(0.000999878 -9.55893e-07 0)
(0.000999881 -1.5772e-06 0)
(0.0010001 -2.34408e-06 0)
(0.0010005 -3.40087e-06 0)
(0.00100153 -4.12253e-06 0)
(0.00100309 -4.37209e-06 0)
(0.00100602 -2.55069e-06 0)
(0.00100912 7.41682e-07 0)
(0.00100914 4.26107e-06 0)
(0.0010055 4.71892e-06 0)
(0.00100074 2.78303e-06 0)
(0.000998153 7.35375e-07 0)
(0.000998277 -2.75828e-07 0)
(0.000999801 -2.87353e-07 0)
(0.00100088 -9.38542e-09 0)
(0.00100133 2.13765e-07 0)
(0.00100085 1.03286e-07 0)
(0.000999995 -4.88405e-08 0)
(0.000999915 -2.0286e-07 0)
(0.000999757 -3.85435e-07 0)
(0.000999534 -7.34114e-07 0)
(0.00099929 -1.33806e-06 0)
(0.000999213 -2.48099e-06 0)
(0.000999708 -4.68679e-06 0)
(0.0010014 -8.06736e-06 0)
(0.00100491 -1.3285e-05 0)
(0.00100958 -1.49133e-05 0)
(0.00101187 3.83066e-06 0)
(0.00100894 1.87245e-05 0)
(0.00100222 1.57817e-05 0)
(0.000997568 5.74299e-06 0)
(0.000996887 -3.15326e-07 0)
(0.000998463 -1.26353e-06 0)
(0.00100027 -9.47211e-08 0)
(0.00100101 6.34978e-07 0)
(0.00100108 6.52943e-07 0)
(0.00100054 2.43751e-07 0)
(0.000999803 -1.97262e-08 0)
(0.00100017 -6.63079e-08 0)
(0.000999217 -1.50775e-07 0)
(0.000999907 -2.4797e-07 0)
(0.000997524 -5.91858e-07 0)
(0.000998845 -1.13118e-06 0)
(0.000993348 -2.88327e-06 0)
(0.000997532 -5.59199e-06 0)
(0.00099167 -1.15411e-05 0)
(0.000915833 -1.27049e-05 0)
(0.00095147 2.80481e-07 0)
(0.00101023 1.46431e-05 0)
(0.00099095 1.30846e-05 0)
(0.000983975 5.14166e-06 0)
(0.000989587 1.94721e-07 0)
(0.000996283 -7.80861e-07 0)
(0.000999238 -1.10525e-07 0)
(0.000999414 2.49331e-07 0)
(0.000998651 1.75321e-07 0)
(0.000998508 -1.84922e-07 0)
(0.000999804 1.29536e-08 0)
(0.00100017 4.57389e-08 0)
(0.000999217 1.17461e-07 0)
(0.000999906 2.00286e-07 0)
(0.000997521 5.29653e-07 0)
(0.00099884 1.05161e-06 0)
(0.00099334 2.78702e-06 0)
(0.000997521 5.47394e-06 0)
(0.000991653 1.13984e-05 0)
(0.000915811 1.2548e-05 0)
(0.00095143 -4.65155e-07 0)
(0.0010102 -1.49077e-05 0)
(0.000990948 -1.3409e-05 0)
(0.000983968 -5.53607e-06 0)
(0.000989568 -6.48394e-07 0)
(0.000996245 2.49076e-07 0)
(0.000999197 -4.70943e-07 0)
(0.000999369 -1.00114e-06 0)
(0.000998636 -9.87721e-07 0)
(0.000998458 -8.88444e-07 0)
(0.000999995 4.25173e-08 0)
(0.000999915 1.83232e-07 0)
(0.000999757 3.52702e-07 0)
(0.000999533 6.8707e-07 0)
(0.000999288 1.27682e-06 0)
(0.000999212 2.40185e-06 0)
(0.000999704 4.58908e-06 0)
(0.00100139 7.94219e-06 0)
(0.0010049 1.31302e-05 0)
(0.00100959 1.47185e-05 0)
(0.00101189 -4.07269e-06 0)
(0.00100889 -1.90069e-05 0)
(0.00100214 -1.60978e-05 0)
(0.000997479 -6.12534e-06 0)
(0.000996816 -8.53818e-08 0)
(0.000998403 7.76163e-07 0)
(0.00100017 -4.25504e-07 0)
(0.00100085 -1.30395e-06 0)
(0.00100088 -1.37888e-06 0)
(0.00100037 -1.25072e-06 0)
(0.000999995 8.60019e-08 0)
(0.000999967 2.68845e-07 0)
(0.000999907 5.43455e-07 0)
(0.000999873 9.09583e-07 0)
(0.000999873 1.51406e-06 0)
(0.00100008 2.26188e-06 0)
(0.00100048 3.29304e-06 0)
(0.00100149 3.98932e-06 0)
(0.00100304 4.20899e-06 0)
(0.00100594 2.36377e-06 0)
(0.00100901 -9.84916e-07 0)
(0.00100907 -4.54069e-06 0)
(0.00100543 -5.02226e-06 0)
(0.00100067 -3.13192e-06 0)
(0.000998061 -1.13234e-06 0)
(0.000998138 -2.50189e-07 0)
(0.000999625 -3.20388e-07 0)
(0.00100064 -7.40552e-07 0)
(0.00100106 -9.67362e-07 0)
(0.00100055 -1.07398e-06 0)
(0.001 9.60561e-08 0)
(0.001 3.13819e-07 0)
(0.00100002 5.69754e-07 0)
(0.00100007 9.16839e-07 0)
(0.0010002 1.33415e-06 0)
(0.00100047 1.87114e-06 0)
(0.00100097 2.39754e-06 0)
(0.00100186 2.97271e-06 0)
(0.00100318 3.11024e-06 0)
(0.00100469 2.73132e-06 0)
(0.00100569 5.15889e-07 0)
(0.00100527 -2.75157e-06 0)
(0.00100339 -5.0781e-06 0)
(0.00100097 -5.07161e-06 0)
(0.000999412 -3.44918e-06 0)
(0.000999125 -1.79205e-06 0)
(0.000999747 -1.01838e-06 0)
(0.00100026 -1.05861e-06 0)
(0.00100062 -1.30787e-06 0)
(0.00100024 -1.51575e-06 0)
(0.001 9.70681e-08 0)
(0.00100003 3.00284e-07 0)
(0.00100008 5.33229e-07 0)
(0.00100019 8.05184e-07 0)
(0.00100037 1.12221e-06 0)
(0.00100066 1.45938e-06 0)
(0.00100112 1.77633e-06 0)
(0.00100174 1.94822e-06 0)
(0.00100248 1.78078e-06 0)
(0.00100318 1.03581e-06 0)
(0.00100366 -2.78775e-07 0)
(0.00100364 -1.78158e-06 0)
(0.00100292 -2.71112e-06 0)
(0.00100171 -2.6324e-06 0)
(0.00100058 -1.77811e-06 0)
(0.000999907 -8.93067e-07 0)
(0.000999861 -4.24739e-07 0)
(0.000999983 -4.4784e-07 0)
(0.00100022 -6.178e-07 0)
(0.00100001 -8.49051e-07 0)
(0.001 8.5362e-08 0)
(0.00100004 2.61751e-07 0)
(0.00100011 4.5153e-07 0)
(0.00100024 6.60919e-07 0)
(0.00100043 8.7873e-07 0)
(0.0010007 1.08447e-06 0)
(0.00100106 1.22775e-06 0)
(0.0010015 1.24969e-06 0)
(0.001002 1.07165e-06 0)
(0.00100249 6.56884e-07 0)
(0.0010028 1.93468e-08 0)
(0.00100275 -7.69754e-07 0)
(0.00100228 -1.45081e-06 0)
(0.00100146 -1.77496e-06 0)
(0.00100063 -1.66751e-06 0)
(0.00100001 -1.34629e-06 0)
(0.000999796 -1.0274e-06 0)
(0.000999767 -9.37566e-07 0)
(0.000999886 -9.47435e-07 0)
(0.000999769 -1.10916e-06 0)
(0.001 6.90188e-08 0)
(0.00100004 2.07754e-07 0)
(0.00100013 3.5124e-07 0)
(0.00100025 5.00183e-07 0)
(0.00100043 6.44968e-07 0)
(0.00100067 7.66224e-07 0)
(0.00100096 8.35889e-07 0)
(0.00100129 8.23039e-07 0)
(0.00100163 6.89231e-07 0)
(0.00100191 4.05597e-07 0)
(0.00100206 -4.71894e-08 0)
(0.001002 -5.7688e-07 0)
(0.00100171 -1.03742e-06 0)
(0.0010012 -1.28305e-06 0)
(0.00100065 -1.23008e-06 0)
(0.00100016 -9.93345e-07 0)
(0.000999916 -7.00763e-07 0)
(0.000999742 -5.57799e-07 0)
(0.000999754 -4.89423e-07 0)
(0.000999563 -5.98979e-07 0)
(0.001 5.06534e-08 0)
(0.00100004 1.48615e-07 0)
(0.00100013 2.44299e-07 0)
(0.00100025 3.36984e-07 0)
(0.00100041 4.21704e-07 0)
(0.00100062 4.84015e-07 0)
(0.00100086 5.08133e-07 0)
(0.00100112 4.7185e-07 0)
(0.00100137 3.60288e-07 0)
(0.00100157 1.55345e-07 0)
(0.00100167 -1.17588e-07 0)
(0.00100161 -4.22862e-07 0)
(0.0010014 -6.8426e-07 0)
(0.00100104 -8.44993e-07 0)
(0.00100064 -8.51868e-07 0)
(0.00100022 -7.71077e-07 0)
(0.000999952 -6.37615e-07 0)
(0.000999692 -5.97483e-07 0)
(0.00099963 -5.62728e-07 0)
(0.00099939 -6.84919e-07 0)
(0.001 3.50878e-08 0)
(0.00100004 1.04277e-07 0)
(0.00100011 1.72961e-07 0)
(0.00100023 2.39979e-07 0)
(0.00100038 3.0148e-07 0)
(0.00100056 3.50052e-07 0)
(0.00100077 3.75661e-07 0)
(0.00100098 3.6885e-07 0)
(0.00100116 3.20018e-07 0)
(0.0010013 2.24373e-07 0)
(0.00100136 8.60851e-08 0)
(0.00100132 -7.14043e-08 0)
(0.00100115 -2.0805e-07 0)
(0.00100086 -2.99529e-07 0)
(0.00100054 -3.14e-07 0)
(0.00100017 -2.82419e-07 0)
(0.000999904 -2.02569e-07 0)
(0.000999617 -1.68916e-07 0)
(0.000999521 -1.18821e-07 0)
(0.000999253 -1.98152e-07 0)
(0.001 -3.821e-09 0)
(0.00100004 -9.91365e-09 0)
(0.00100012 -1.34218e-08 0)
(0.00100024 -1.5527e-08 0)
(0.00100039 -1.76486e-08 0)
(0.00100056 -2.29099e-08 0)
(0.00100075 -3.35244e-08 0)
(0.00100094 -5.31331e-08 0)
(0.00100112 -8.15141e-08 0)
(0.00100123 -1.21964e-07 0)
(0.00100128 -1.69733e-07 0)
(0.00100122 -2.31606e-07 0)
(0.00100107 -2.91221e-07 0)
(0.00100081 -3.42016e-07 0)
(0.00100054 -3.60157e-07 0)
(0.00100018 -3.68088e-07 0)
(0.00099995 -3.42227e-07 0)
(0.000999614 -3.5276e-07 0)
(0.000999526 -3.27825e-07 0)
(0.000999134 -4.10458e-07 0)
)
;

boundaryField
{
    sides
    {
        type            slip;
    }
    inlet
    {
        type            fixedValue;
        value           uniform (0.001 0 0);
    }
    outlet
    {
        type            zeroGradient;
    }
    frontAndBack
    {
        type            empty;
    }
}


// ************************************************************************* //
