/*--------------------------------*- C++ -*----------------------------------*\
  =========                 |
  \\      /  F ield         | OpenFOAM: The Open Source CFD Toolbox
   \\    /   O peration     | Website:  https://openfoam.org
    \\  /    A nd           | Version:  9
     \\/     M anipulation  |
\*---------------------------------------------------------------------------*/
FoamFile
{
    format      ascii;
    class       surfaceScalarField;
    location    "65";
    object      phi;
}
// * * * * * * * * * * * * * * * * * * * * * * * * * * * * * * * * * * * * * //

dimensions      [0 4 -1 0 0 0 0];

internalField   nonuniform List<scalar> 
760
(
5.0001e-06
-9.29731e-11
5.00041e-06
-3.02826e-10
5.00092e-06
-5.07172e-10
5.00163e-06
-7.02253e-10
5.0025e-06
-8.75555e-10
5.00351e-06
-1.00291e-09
5.00457e-06
-1.05806e-09
5.00558e-06
-1.01128e-09
5.0064e-06
-8.31576e-10
5.00693e-06
-5.22617e-10
5.00706e-06
-1.24042e-10
5.00667e-06
3.99183e-10
5.00581e-06
8.5815e-10
5.00471e-06
1.10709e-09
5.00354e-06
1.17398e-09
5.00259e-06
9.50111e-10
5.00187e-06
7.10748e-10
5.00162e-06
2.44996e-10
5.00152e-06
1.10768e-10
-3.90676e-10
5.00012e-06
-2.13783e-10
5.00046e-06
-6.27547e-10
5.00099e-06
-1.03617e-09
5.00173e-06
-1.43855e-09
5.00266e-06
-1.80602e-09
5.00376e-06
-2.09297e-09
5.00494e-06
-2.24419e-09
5.00612e-06
-2.18651e-09
5.00713e-06
-1.84956e-09
5.00778e-06
-1.16685e-09
5.00776e-06
-9.24393e-11
5.00727e-06
8.89783e-10
5.00628e-06
1.85323e-09
5.00497e-06
2.42411e-09
5.00369e-06
2.45014e-09
5.00279e-06
1.8568e-09
5.00226e-06
1.23941e-09
5.00192e-06
5.79526e-10
5.00166e-06
3.72903e-10
-1.46871e-10
5.00011e-06
-3.21173e-10
5.00044e-06
-9.44766e-10
5.00097e-06
-1.56535e-09
5.00173e-06
-2.1986e-09
5.00273e-06
-2.80364e-09
5.00395e-06
-3.31695e-09
5.00533e-06
-3.61944e-09
5.00673e-06
-3.58349e-09
5.00794e-06
-3.04824e-09
5.00873e-06
-1.95856e-09
5.00894e-06
-3.01893e-10
5.00826e-06
1.57447e-09
5.00688e-06
3.23801e-09
5.00516e-06
4.14777e-09
5.00351e-06
4.0995e-09
5.00232e-06
3.05456e-09
5.00168e-06
1.8837e-09
5.00149e-06
7.71171e-10
5.00145e-06
4.06257e-10
-2.19861e-10
5.0001e-06
-4.19086e-10
5.00042e-06
-1.25207e-09
5.00095e-06
-2.09941e-09
5.00176e-06
-3.00006e-09
5.00286e-06
-3.9121e-09
5.00429e-06
-4.7494e-09
5.00602e-06
-5.34196e-09
5.00796e-06
-5.5085e-09
5.00985e-06
-4.93469e-09
5.01109e-06
-3.18645e-09
5.0112e-06
-4.37041e-10
5.01e-06
2.78212e-09
5.00766e-06
5.57981e-09
5.00515e-06
6.64836e-09
5.00348e-06
5.76842e-09
5.0027e-06
3.82716e-09
5.00248e-06
2.10623e-09
5.00232e-06
9.4162e-10
5.002e-06
7.21697e-10
3.42568e-10
5.00009e-06
-4.98994e-10
5.00035e-06
-1.5096e-09
5.00084e-06
-2.59263e-09
5.00164e-06
-3.80371e-09
5.00286e-06
-5.13482e-09
5.00458e-06
-6.46374e-09
5.00681e-06
-7.55868e-09
5.00943e-06
-8.123e-09
5.0124e-06
-7.90584e-09
5.01479e-06
-5.58472e-09
5.01484e-06
-4.66728e-10
5.01285e-06
4.74287e-09
5.00868e-06
9.75707e-09
5.0046e-06
1.07206e-08
5.00224e-06
8.11586e-09
5.00174e-06
4.31797e-09
5.00205e-06
1.80158e-09
5.00226e-06
7.34609e-10
5.00202e-06
9.7053e-10
6.32864e-10
5.00005e-06
-5.3967e-10
5.00021e-06
-1.66589e-09
5.00055e-06
-2.935e-09
5.00122e-06
-4.47742e-09
5.00242e-06
-6.3335e-09
5.00453e-06
-8.57201e-09
5.00761e-06
-1.06346e-08
5.01168e-06
-1.22007e-08
5.01555e-06
-1.17546e-08
5.01902e-06
-9.08871e-09
5.02022e-06
-1.65185e-09
5.01603e-06
8.94028e-09
5.00951e-06
1.62525e-08
5.00422e-06
1.60125e-08
5.00218e-06
1.01584e-08
5.0025e-06
3.99275e-09
5.00327e-06
1.02514e-09
5.0034e-06
6.06926e-10
5.00281e-06
1.56538e-09
1.42844e-09
4.99999e-06
-5.20154e-10
4.99995e-06
-1.62606e-09
5.00004e-06
-3.03012e-09
5.00037e-06
-4.80802e-09
5.00123e-06
-7.19069e-09
5.00293e-06
-1.02714e-08
5.00681e-06
-1.45238e-08
5.01394e-06
-1.93211e-08
5.02376e-06
-2.16028e-08
5.03096e-06
-1.62273e-08
5.02871e-06
4.62712e-10
5.01674e-06
2.09603e-08
5.0042e-06
2.88194e-08
4.99874e-06
2.14617e-08
5.00059e-06
8.31488e-09
5.00286e-06
1.72343e-09
5.00373e-06
1.56378e-10
5.00367e-06
6.56244e-10
5.00305e-06
2.17792e-09
1.68563e-09
4.99987e-06
-3.87581e-10
4.99956e-06
-1.31502e-09
4.99913e-06
-2.60572e-09
4.99887e-06
-4.53767e-09
4.99934e-06
-7.6641e-09
5.00037e-06
-1.13012e-08
5.00366e-06
-1.78191e-08
5.00983e-06
-2.55082e-08
5.0249e-06
-3.66526e-08
5.05624e-06
-4.75096e-08
5.05003e-06
5.13124e-09
5.02315e-06
4.77381e-08
4.99818e-06
5.38151e-08
4.99351e-06
2.61482e-08
4.99948e-06
2.34859e-09
5.00409e-06
-2.87867e-09
5.00492e-06
-6.74343e-10
5.00374e-06
1.83761e-09
5.00352e-06
2.38946e-09
9.7242e-10
4.99977e-06
-1.57774e-10
4.99916e-06
-7.02523e-10
4.99793e-06
-1.37509e-09
4.99612e-06
-2.72758e-09
4.99403e-06
-5.57425e-09
4.99375e-06
-1.10266e-08
4.99946e-06
-2.35307e-08
5.01715e-06
-4.31906e-08
5.05571e-06
-7.52328e-08
5.06672e-06
-5.85753e-08
5.04975e-06
2.3644e-08
4.99654e-06
1.01057e-07
4.98932e-06
6.10144e-08
4.99592e-06
1.95424e-08
5.0002e-06
-1.93271e-09
5.00294e-06
-5.61274e-09
5.00254e-06
-2.54475e-10
5.00186e-06
2.52286e-09
5.00256e-06
1.68398e-09
8.30766e-11
4.99986e-06
-1.69642e-11
4.99921e-06
-5.1575e-11
4.99792e-06
-8.45342e-11
4.99532e-06
-1.24295e-10
4.98991e-06
-1.66993e-10
4.97909e-06
-2.16944e-10
4.95583e-06
-2.65531e-10
4.91296e-06
-3.29243e-10
4.83815e-06
-3.977e-10
4.77997e-06
-4.65038e-10
4.80432e-06
-5.69106e-10
4.90604e-06
-7.35635e-10
4.96779e-06
-7.52587e-10
4.98823e-06
-9.03275e-10
4.98746e-06
-1.16319e-09
4.98327e-06
-1.42411e-09
4.98457e-06
-1.55318e-09
4.98892e-06
-1.82198e-09
4.99249e-06
-1.89019e-09
-2.58368e-09
4.99986e-06
1.25255e-10
4.99921e-06
5.99257e-10
4.99792e-06
1.20966e-09
4.99531e-06
2.48317e-09
4.98989e-06
5.2525e-09
4.97906e-06
1.06032e-08
4.95578e-06
2.30148e-08
4.91291e-06
4.25417e-08
4.83804e-06
7.44592e-08
4.77974e-06
5.78307e-08
4.80425e-06
-2.5056e-08
4.906e-06
-1.02479e-07
4.96778e-06
-6.25239e-08
4.98807e-06
-2.12066e-08
4.98736e-06
-4.5648e-10
4.98294e-06
3.00193e-09
4.98444e-06
-3.04308e-09
4.9889e-06
-6.28054e-09
4.99236e-06
-5.35555e-09
-4.98385e-09
4.99977e-06
3.56964e-10
4.99915e-06
1.21781e-09
4.99793e-06
2.43767e-09
4.99611e-06
4.29423e-09
4.99403e-06
7.33571e-09
4.99374e-06
1.08894e-08
4.99944e-06
1.73131e-08
5.01709e-06
2.48901e-08
5.05563e-06
3.5895e-08
5.06716e-06
4.63774e-08
5.04942e-06
-8.83178e-09
4.99611e-06
-4.90883e-08
4.98885e-06
-5.52713e-08
4.9957e-06
-2.80587e-08
5.00011e-06
-4.87075e-09
5.00233e-06
7.93205e-10
5.00166e-06
-2.38223e-09
5.00091e-06
-5.53174e-09
5.00169e-06
-6.13921e-09
-5.95276e-09
4.99987e-06
4.90774e-10
4.99955e-06
1.53365e-09
4.99912e-06
2.87086e-09
4.99884e-06
4.57476e-09
4.99929e-06
6.89044e-09
5.00028e-06
9.89504e-09
5.00349e-06
1.41003e-08
5.00961e-06
1.87562e-08
5.02462e-06
2.09129e-08
5.0555e-06
1.53931e-08
5.04982e-06
-1.60484e-09
5.02283e-06
-2.21716e-08
4.99787e-06
-3.0323e-08
4.99317e-06
-2.33423e-08
4.99866e-06
-1.03465e-08
5.00346e-06
-4.01356e-09
5.00374e-06
-2.66133e-09
5.00236e-06
-4.15985e-09
5.00217e-06
-5.94939e-09
-6.53759e-09
4.99998e-06
5.11202e-10
4.99993e-06
1.58065e-09
5.00001e-06
2.79293e-09
5.00032e-06
4.27226e-09
5.00114e-06
6.06649e-09
5.00281e-06
8.23328e-09
5.00669e-06
1.02107e-08
5.01379e-06
1.16548e-08
5.02358e-06
1.11159e-08
5.03073e-06
8.27871e-09
5.02839e-06
6.23005e-10
5.01625e-06
-1.00358e-08
5.00351e-06
-1.75619e-08
4.99778e-06
-1.76158e-08
4.99943e-06
-1.1984e-08
5.00162e-06
-6.2078e-09
5.00241e-06
-3.45468e-09
5.00214e-06
-3.8906e-09
5.0012e-06
-5.01591e-09
-5.9801e-09
5.00004e-06
4.72758e-10
5.00019e-06
1.43404e-09
5.00051e-06
2.47012e-09
5.00116e-06
3.62814e-09
5.00233e-06
4.89857e-09
5.00441e-06
6.15855e-09
5.00743e-06
7.18674e-09
5.0114e-06
7.67271e-09
5.01515e-06
7.37752e-09
5.01854e-06
4.88307e-09
5.01957e-06
-3.94622e-10
5.01524e-06
-5.6955e-09
5.00855e-06
-1.08742e-08
5.00312e-06
-1.21816e-08
5.00089e-06
-9.7494e-09
5.00102e-06
-6.33827e-09
5.00156e-06
-3.99974e-09
5.00132e-06
-3.65521e-09
5.00036e-06
-4.05665e-09
-4.98125e-09
5.00008e-06
3.96022e-10
5.00033e-06
1.18838e-09
5.0008e-06
1.99758e-09
5.00157e-06
2.85494e-09
5.00276e-06
3.71889e-09
5.00442e-06
4.50014e-09
5.00657e-06
5.03964e-09
5.0091e-06
5.13516e-09
5.01204e-06
4.44053e-09
5.01441e-06
2.50752e-09
5.01415e-06
-1.37475e-10
5.01209e-06
-3.64009e-09
5.00776e-06
-6.5444e-09
5.0035e-06
-7.9172e-09
5.00094e-06
-7.19089e-09
5.00014e-06
-5.54482e-09
5.00011e-06
-3.97714e-09
4.99988e-06
-3.42687e-09
4.99918e-06
-3.35369e-09
-4.17696e-09
5.0001e-06
2.99919e-10
5.0004e-06
8.93642e-10
5.00092e-06
1.48633e-09
5.00168e-06
2.0843e-09
5.00274e-06
2.655e-09
5.00413e-06
3.11908e-09
5.0058e-06
3.37749e-09
5.00764e-06
3.29875e-09
5.00934e-06
2.74345e-09
5.01028e-06
1.56608e-09
5.01044e-06
-3.05211e-10
5.00904e-06
-2.24301e-09
5.00651e-06
-4.02221e-09
5.00368e-06
-5.09388e-09
5.00155e-06
-5.06741e-09
5.00035e-06
-4.35313e-09
4.99971e-06
-3.33974e-09
4.99917e-06
-2.89097e-09
4.99846e-06
-2.63404e-09
-3.21864e-09
5.0001e-06
1.99229e-10
5.00042e-06
5.89406e-10
5.00093e-06
9.73483e-10
5.00167e-06
1.34815e-09
5.00262e-06
1.69426e-09
5.00379e-06
1.95673e-09
5.00511e-06
2.06945e-09
5.00646e-06
1.9537e-09
5.00765e-06
1.5533e-09
5.0084e-06
8.26658e-10
5.00822e-06
-1.31352e-10
5.00735e-06
-1.36669e-09
5.00571e-06
-2.39018e-09
5.00369e-06
-3.07947e-09
5.00179e-06
-3.17949e-09
5.00034e-06
-2.90073e-09
4.99932e-06
-2.32337e-09
4.99853e-06
-2.09446e-09
4.99774e-06
-1.83507e-09
-2.27836e-09
5.00008e-06
1.15482e-10
5.00038e-06
3.02738e-10
5.00087e-06
4.87418e-10
5.00156e-06
6.67344e-10
5.00242e-06
8.30567e-10
5.00342e-06
9.51538e-10
5.0045e-06
9.98505e-10
5.00551e-06
9.36426e-10
5.00633e-06
7.3706e-10
5.0068e-06
3.62895e-10
5.00682e-06
-1.41975e-10
5.00609e-06
-6.31268e-10
5.0048e-06
-1.09802e-09
5.00316e-06
-1.43658e-09
5.00149e-06
-1.50704e-09
5.00003e-06
-1.43962e-09
4.9989e-06
-1.18517e-09
4.99794e-06
-1.13259e-09
4.99708e-06
-9.74907e-10
-1.42363e-09
5.00011e-06
5.00042e-06
5.00091e-06
5.00159e-06
5.00243e-06
5.00338e-06
5.00437e-06
5.0053e-06
5.00604e-06
5.0064e-06
5.00626e-06
5.00564e-06
5.00454e-06
5.00311e-06
5.00161e-06
5.00018e-06
4.999e-06
4.99787e-06
4.99689e-06
)
;

boundaryField
{
    sides
    {
        type            calculated;
        value           uniform 0;
    }
    inlet
    {
        type            calculated;
        value           nonuniform List<scalar> 
20
(
-5e-06
-5e-06
-5e-06
-5e-06
-5e-06
-5e-06
-5e-06
-5e-06
-5e-06
-5e-06
-5e-06
-5e-06
-5e-06
-5e-06
-5e-06
-5e-06
-5e-06
-5e-06
-5e-06
-5e-06
)
;
    }
    outlet
    {
        type            calculated;
        value           nonuniform List<scalar> 
20
(
5.00191e-06
5.00142e-06
5.00153e-06
5.00144e-06
5.00173e-06
5.00201e-06
5.00279e-06
5.00423e-06
5.00345e-06
4.99516e-06
4.99476e-06
5.00266e-06
5.00276e-06
5.00065e-06
4.99936e-06
4.99837e-06
4.9975e-06
4.9968e-06
4.99623e-06
4.99546e-06
)
;
    }
    frontAndBack
    {
        type            empty;
        value           nonuniform List<scalar> 0();
    }
}


// ************************************************************************* //
