/*--------------------------------*- C++ -*----------------------------------*\
  =========                 |
  \\      /  F ield         | OpenFOAM: The Open Source CFD Toolbox
   \\    /   O peration     | Website:  https://openfoam.org
    \\  /    A nd           | Version:  9
     \\/     M anipulation  |
\*---------------------------------------------------------------------------*/
FoamFile
{
    format      ascii;
    class       volVectorField;
    location    "65";
    object      U;
}
// * * * * * * * * * * * * * * * * * * * * * * * * * * * * * * * * * * * * * //

dimensions      [0 1 -1 0 0 0 0];

internalField   nonuniform List<vector> 
400
(
(0.0999964 -2.41834e-06 0)
(0.100001 -7.01224e-06 0)
(0.10001 -1.12603e-05 0)
(0.100023 -1.52035e-05 0)
(0.10004 -1.87367e-05 0)
(0.100061 -2.16722e-05 0)
(0.100084 -2.36737e-05 0)
(0.100107 -2.45083e-05 0)
(0.100128 -2.36293e-05 0)
(0.100144 -2.11339e-05 0)
(0.100153 -1.68686e-05 0)
(0.100152 -1.28313e-05 0)
(0.10014 -9.86039e-06 0)
(0.10012 -9.26379e-06 0)
(0.100093 -9.94449e-06 0)
(0.100068 -1.35805e-05 0)
(0.100045 -1.56792e-05 0)
(0.100034 -2.01086e-05 0)
(0.100025 -1.88454e-05 0)
(0.100033 -2.68365e-05 0)
(0.099997 -2.66086e-06 0)
(0.100002 -7.78235e-06 0)
(0.100012 -1.26731e-05 0)
(0.100026 -1.7316e-05 0)
(0.100044 -2.13316e-05 0)
(0.100066 -2.40232e-05 0)
(0.100091 -2.45567e-05 0)
(0.100117 -2.19668e-05 0)
(0.100141 -1.54242e-05 0)
(0.100161 -4.7473e-06 0)
(0.100171 9.39183e-06 0)
(0.100169 2.48382e-05 0)
(0.100154 3.91217e-05 0)
(0.100129 4.78316e-05 0)
(0.1001 5.06e-05 0)
(0.100071 4.51688e-05 0)
(0.100051 3.77765e-05 0)
(0.100038 2.57704e-05 0)
(0.100033 2.06824e-05 0)
(0.100029 8.14173e-06 0)
(0.0999969 -5.24446e-06 0)
(0.100002 -1.57682e-05 0)
(0.100011 -2.64812e-05 0)
(0.100025 -3.72434e-05 0)
(0.100045 -4.73334e-05 0)
(0.100069 -5.55622e-05 0)
(0.100097 -6.03065e-05 0)
(0.100127 -5.96283e-05 0)
(0.100156 -5.16644e-05 0)
(0.10018 -3.51189e-05 0)
(0.100193 -1.08968e-05 0)
(0.100193 1.64021e-05 0)
(0.100174 4.04636e-05 0)
(0.100142 5.23126e-05 0)
(0.100102 5.01265e-05 0)
(0.100066 3.53967e-05 0)
(0.100038 2.02467e-05 0)
(0.100026 4.66441e-06 0)
(0.100021 -1.58351e-07 0)
(0.100029 -1.16704e-05 0)
(0.0999964 -7.32066e-06 0)
(0.100001 -2.20585e-05 0)
(0.100011 -3.72437e-05 0)
(0.100025 -5.2891e-05 0)
(0.100046 -6.80496e-05 0)
(0.100073 -8.10311e-05 0)
(0.100107 -8.87878e-05 0)
(0.100146 -8.82882e-05 0)
(0.100187 -7.53071e-05 0)
(0.100222 -4.7397e-05 0)
(0.100243 -2.2694e-06 0)
(0.10024 4.95001e-05 0)
(0.100211 9.39862e-05 0)
(0.100159 0.00011429 0)
(0.100104 0.000105661 0)
(0.100061 7.43192e-05 0)
(0.100042 4.23255e-05 0)
(0.100035 1.71156e-05 0)
(0.100041 1.04428e-05 0)
(0.100035 9.48627e-08 0)
(0.0999954 -9.03176e-06 0)
(0.0999997 -2.75922e-05 0)
(0.100008 -4.7432e-05 0)
(0.100023 -6.92407e-05 0)
(0.100045 -9.20897e-05 0)
(0.100076 -0.000113935 0)
(0.100117 -0.00012966 0)
(0.100168 -0.000133303 0)
(0.100226 -0.00011727 0)
(0.100281 -7.7711e-05 0)
(0.100319 -1.70834e-05 0)
(0.100317 5.79788e-05 0)
(0.100268 0.000123354 0)
(0.100182 0.00015137 0)
(0.100091 0.00013759 0)
(0.100029 9.64034e-05 0)
(0.10001 5.80491e-05 0)
(0.100019 3.15789e-05 0)
(0.100036 2.6535e-05 0)
(0.100043 1.68755e-05 0)
(0.099994 -1.02447e-05 0)
(0.099997 -3.16239e-05 0)
(0.100004 -5.59512e-05 0)
(0.100016 -8.43378e-05 0)
(0.100036 -0.000117301 0)
(0.10007 -0.000152463 0)
(0.100122 -0.000185612 0)
(0.100193 -0.000205007 0)
(0.100277 -0.00019088 0)
(0.100357 -0.000120055 0)
(0.100414 8.50524e-06 0)
(0.100415 0.000154207 0)
(0.100339 0.000243581 0)
(0.100208 0.000230686 0)
(0.100085 0.000142996 0)
(0.100015 4.91013e-05 0)
(0.100013 1.18993e-06 0)
(0.100035 -8.44394e-06 0)
(0.100065 6.30082e-06 0)
(0.100056 5.08592e-06 0)
(0.0999924 -1.01678e-05 0)
(0.099993 -3.31374e-05 0)
(0.0999951 -5.9969e-05 0)
(0.100001 -9.60931e-05 0)
(0.100016 -0.000139238 0)
(0.100046 -0.000194543 0)
(0.100104 -0.000248677 0)
(0.100202 -0.000308126 0)
(0.10035 -0.000323213 0)
(0.10052 -0.000288175 0)
(0.100633 -6.64375e-05 0)
(0.10059 0.000256027 0)
(0.100383 0.000483008 0)
(0.100118 0.000473783 0)
(0.099948 0.000302772 0)
(0.0999221 0.000126204 0)
(0.0999929 4.29348e-05 0)
(0.100056 3.27473e-05 0)
(0.100095 5.64839e-05 0)
(0.100067 5.3469e-05 0)
(0.0999905 -9.18395e-06 0)
(0.0999875 -2.87146e-05 0)
(0.0999809 -5.75343e-05 0)
(0.0999773 -9.55792e-05 0)
(0.0999778 -0.000157703 0)
(0.100002 -0.000234389 0)
(0.100047 -0.000340076 0)
(0.10016 -0.000412283 0)
(0.100335 -0.000437324 0)
(0.10066 -0.000255216 0)
(0.101007 7.42378e-05 0)
(0.101013 0.000426525 0)
(0.100606 0.000472153 0)
(0.100072 0.000278298 0)
(0.0997822 7.35131e-05 0)
(0.0997971 -2.75743e-05 0)
(0.0999674 -2.87316e-05 0)
(0.100089 -9.38557e-07 0)
(0.100139 2.13776e-05 0)
(0.100087 1.03287e-05 0)
(0.0999895 -4.88357e-06 0)
(0.0999806 -2.02838e-05 0)
(0.0999631 -3.85386e-05 0)
(0.0999381 -7.34003e-05 0)
(0.099911 -0.000133782 0)
(0.0999022 -0.000248051 0)
(0.0999569 -0.000468613 0)
(0.100145 -0.000806778 0)
(0.100537 -0.0013291 0)
(0.101061 -0.00149286 0)
(0.101323 0.000383578 0)
(0.100998 0.00187437 0)
(0.100242 0.00157848 0)
(0.0997202 0.000574088 0)
(0.0996447 -3.15187e-05 0)
(0.0998222 -0.000126322 0)
(0.100024 -9.47183e-06 0)
(0.100107 6.3502e-05 0)
(0.100113 6.52979e-05 0)
(0.100056 2.43754e-05 0)
(0.0999703 -1.97243e-06 0)
(0.100006 -6.63004e-06 0)
(0.099908 -1.50754e-05 0)
(0.0999721 -2.47924e-05 0)
(0.0997262 -5.91703e-05 0)
(0.0998443 -0.000113073 0)
(0.0992767 -0.000288158 0)
(0.0996753 -0.000558762 0)
(0.0991185 -0.00115354 0)
(0.102003 -0.00141504 0)
(0.106281 3.13302e-05 0)
(0.101267 0.00146786 0)
(0.0990078 0.00130731 0)
(0.0982226 0.000513252 0)
(0.0988555 1.94518e-05 0)
(0.0996053 -7.80681e-05 0)
(0.0999353 -1.10538e-05 0)
(0.0999524 2.49359e-05 0)
(0.0998672 1.75325e-05 0)
(0.0998493 -1.84919e-05 0)
(0.099971 1.29524e-06 0)
(0.100006 4.5734e-06 0)
(0.0999086 1.17446e-05 0)
(0.0999726 2.0025e-05 0)
(0.0997266 5.29517e-05 0)
(0.0998444 0.00010512 0)
(0.0992765 0.00027854 0)
(0.0996748 0.00054697 0)
(0.0991173 0.00113929 0)
(0.102001 0.00139757 0)
(0.106277 -5.19588e-05 0)
(0.101265 -0.00149438 0)
(0.0990081 -0.00133973 0)
(0.0982224 -0.000552626 0)
(0.098854 -6.4772e-05 0)
(0.0996018 2.49019e-05 0)
(0.0999312 -4.70998e-05 0)
(0.099948 -0.000100125 0)
(0.0998661 -9.87746e-05 0)
(0.0998445 -8.88432e-05 0)
(0.0999915 4.25139e-06 0)
(0.0999826 1.83215e-05 0)
(0.099965 3.52664e-05 0)
(0.0999401 6.8698e-05 0)
(0.0999128 0.000127661 0)
(0.0999041 0.000240143 0)
(0.0999585 0.000458853 0)
(0.100147 0.000794276 0)
(0.100537 0.00131363 0)
(0.101064 0.00147339 0)
(0.101325 -0.000407815 0)
(0.100995 -0.00190268 0)
(0.100235 -0.00161011 0)
(0.0997123 -0.000612315 0)
(0.0996388 -8.53451e-06 0)
(0.0998175 7.75986e-05 0)
(0.100015 -4.25496e-05 0)
(0.100092 -0.000130404 0)
(0.100093 -0.000137896 0)
(0.100038 -0.000125074 0)
(0.0999939 8.59971e-06 0)
(0.0999907 2.68829e-05 0)
(0.099984 5.43419e-05 0)
(0.0999801 9.09518e-05 0)
(0.0999802 0.000151395 0)
(0.100003 0.000226176 0)
(0.100048 0.000329304 0)
(0.100159 0.000398973 0)
(0.100333 0.000421021 0)
(0.100654 0.000236518 0)
(0.101 -9.85876e-05 0)
(0.101008 -0.000454523 0)
(0.100601 -0.000502517 0)
(0.100067 -0.000313193 0)
(0.0997754 -0.0001132 0)
(0.099785 -2.50117e-05 0)
(0.0999513 -3.20353e-05 0)
(0.100067 -7.40569e-05 0)
(0.100112 -9.67414e-05 0)
(0.100057 -0.0001074 0)
(0.0999971 9.60533e-06 0)
(0.0999975 3.1381e-05 0)
(0.0999994 5.69739e-05 0)
(0.100005 9.1682e-05 0)
(0.100019 0.000133414 0)
(0.100049 0.000187118 0)
(0.100105 0.000239773 0)
(0.100203 0.000297324 0)
(0.100351 0.000311126 0)
(0.10052 0.00027327 0)
(0.100631 5.16211e-05 0)
(0.100586 -0.000275318 0)
(0.100375 -0.000507995 0)
(0.100105 -0.000507202 0)
(0.0999306 -0.000344881 0)
(0.0998992 -0.000179181 0)
(0.0999684 -0.000101831 0)
(0.100027 -0.000105862 0)
(0.100065 -0.000130792 0)
(0.100026 -0.000151577 0)
(0.1 9.70681e-06 0)
(0.100003 3.00285e-05 0)
(0.100009 5.33234e-05 0)
(0.100021 8.05201e-05 0)
(0.100041 0.000112225 0)
(0.100074 0.000145948 0)
(0.100125 0.000177655 0)
(0.100194 0.00019486 0)
(0.100276 0.000178128 0)
(0.100354 0.000103618 0)
(0.100408 -2.78891e-05 0)
(0.100406 -0.000178232 0)
(0.100326 -0.000271204 0)
(0.100191 -0.000263291 0)
(0.100064 -0.000177821 0)
(0.0999893 -8.93054e-05 0)
(0.0999838 -4.24729e-05 0)
(0.0999985 -4.47841e-05 0)
(0.100024 -6.17811e-05 0)
(0.100002 -8.49061e-05 0)
(0.100003 8.53643e-06 0)
(0.100007 2.61759e-05 0)
(0.100015 4.51548e-05 0)
(0.100029 6.60954e-05 0)
(0.10005 8.78796e-05 0)
(0.10008 0.000108458 0)
(0.10012 0.000122793 0)
(0.10017 0.000124993 0)
(0.100225 0.000107192 0)
(0.10028 6.57088e-05 0)
(0.100315 1.93535e-06 0)
(0.100309 -7.70017e-05 0)
(0.100256 -0.000145123 0)
(0.100166 -0.00017753 0)
(0.100072 -0.000166766 0)
(0.100003 -0.000134632 0)
(0.0999795 -0.00010274 0)
(0.0999769 -9.37567e-05 0)
(0.0999896 -9.47444e-05 0)
(0.0999777 -0.000110917 0)
(0.100005 6.90223e-06 0)
(0.10001 2.07766e-05 0)
(0.100019 3.51263e-05 0)
(0.100033 5.00222e-05 0)
(0.100053 6.45032e-05 0)
(0.100079 7.6632e-05 0)
(0.100112 8.36022e-05 0)
(0.100149 8.23201e-05 0)
(0.100187 6.89394e-05 0)
(0.100218 4.05706e-05 0)
(0.100235 -4.72029e-06 0)
(0.100228 -5.77041e-05 0)
(0.100196 -0.000103767 0)
(0.100139 -0.00012833 0)
(0.100077 -0.000123023 0)
(0.100023 -9.93414e-05 0)
(0.0999953 -7.00789e-05 0)
(0.0999765 -5.57813e-05 0)
(0.0999771 -4.89431e-05 0)
(0.0999571 -5.98984e-05 0)
(0.100007 5.0657e-06 0)
(0.100012 1.48626e-05 0)
(0.100021 2.44319e-05 0)
(0.100035 3.37017e-05 0)
(0.100053 4.21753e-05 0)
(0.100076 4.84083e-05 0)
(0.100103 5.08219e-05 0)
(0.100132 4.71944e-05 0)
(0.10016 3.6037e-05 0)
(0.100182 1.55384e-05 0)
(0.100193 -1.17619e-05 0)
(0.100186 -4.2297e-05 0)
(0.100163 -6.84417e-05 0)
(0.100123 -8.45153e-05 0)
(0.100078 -8.51989e-05 0)
(0.100032 -7.71152e-05 0)
(0.100001 -6.37654e-05 0)
(0.0999729 -5.97505e-05 0)
(0.0999652 -5.6274e-05 0)
(0.0999399 -6.84925e-05 0)
(0.100009 3.50908e-06 0)
(0.100013 1.04287e-05 0)
(0.100021 1.72978e-05 0)
(0.100034 2.40006e-05 0)
(0.100051 3.01519e-05 0)
(0.100071 3.50104e-05 0)
(0.100094 3.75726e-05 0)
(0.100117 3.68923e-05 0)
(0.100138 3.20088e-05 0)
(0.100154 2.24425e-05 0)
(0.100161 8.61059e-06 0)
(0.100155 -7.14211e-06 0)
(0.100137 -2.08095e-05 0)
(0.100105 -2.99584e-05 0)
(0.100068 -3.14046e-05 0)
(0.100027 -2.82448e-05 0)
(0.0999975 -2.02584e-05 0)
(0.0999661 -1.68924e-05 0)
(0.0999545 -1.18824e-05 0)
(0.0999261 -1.98154e-05 0)
(0.10001 -3.82138e-07 0)
(0.100015 -9.91468e-07 0)
(0.100023 -1.34233e-06 0)
(0.100036 -1.5529e-06 0)
(0.100053 -1.76511e-06 0)
(0.100073 -2.29137e-06 0)
(0.100094 -3.35306e-06 0)
(0.100115 -5.3144e-06 0)
(0.100134 -8.15325e-06 0)
(0.100147 -1.21993e-05 0)
(0.100153 -1.69775e-05 0)
(0.100146 -2.31661e-05 0)
(0.100129 -2.91285e-05 0)
(0.1001 -3.42082e-05 0)
(0.100069 -3.60214e-05 0)
(0.100031 -3.68133e-05 0)
(0.100004 -3.42257e-05 0)
(0.0999674 -3.52781e-05 0)
(0.099956 -3.27836e-05 0)
(0.0999147 -4.10463e-05 0)
)
;

boundaryField
{
    sides
    {
        type            calculated;
        value           nonuniform List<vector> 
40
(
(0.10001 0 0)
(0.100015 0 0)
(0.100023 0 0)
(0.100036 0 0)
(0.100053 0 0)
(0.100073 0 0)
(0.100094 0 0)
(0.100115 0 0)
(0.100134 0 0)
(0.100147 0 0)
(0.100153 0 0)
(0.100146 0 0)
(0.100129 0 0)
(0.1001 0 0)
(0.100069 0 0)
(0.100031 0 0)
(0.100004 0 0)
(0.0999674 0 0)
(0.099956 0 0)
(0.0999147 0 0)
(0.0999964 0 0)
(0.100001 0 0)
(0.10001 0 0)
(0.100023 0 0)
(0.10004 0 0)
(0.100061 0 0)
(0.100084 0 0)
(0.100107 0 0)
(0.100128 0 0)
(0.100144 0 0)
(0.100153 0 0)
(0.100152 0 0)
(0.10014 0 0)
(0.10012 0 0)
(0.100093 0 0)
(0.100068 0 0)
(0.100045 0 0)
(0.100034 0 0)
(0.100025 0 0)
(0.100033 0 0)
)
;
    }
    inlet
    {
        type            calculated;
        value           nonuniform List<vector> 
20
(
(0.0999963 0 0)
(0.0999968 0 0)
(0.0999967 0 0)
(0.0999962 0 0)
(0.0999952 0 0)
(0.0999939 0 0)
(0.0999924 0 0)
(0.099991 0 0)
(0.09999 0 0)
(0.09999 0 0)
(0.0999906 0 0)
(0.099992 0 0)
(0.0999944 0 0)
(0.0999972 0 0)
(0.1 0 0)
(0.100003 0 0)
(0.100005 0 0)
(0.100007 0 0)
(0.100009 0 0)
(0.10001 0 0)
)
;
    }
    outlet
    {
        type            calculated;
        value           nonuniform List<vector> 
20
(
(0.100033 -2.68366e-05 0)
(0.100029 8.14172e-06 0)
(0.10003 -1.16704e-05 0)
(0.100035 9.48623e-08 0)
(0.100043 1.68755e-05 0)
(0.100055 5.08587e-06 0)
(0.100066 5.34683e-05 0)
(0.100085 1.03286e-05 0)
(0.100054 2.43751e-05 0)
(0.0998508 -1.84922e-05 0)
(0.0998458 -8.88444e-05 0)
(0.100037 -0.000125072 0)
(0.100055 -0.000107398 0)
(0.100024 -0.000151575 0)
(0.100001 -8.49051e-05 0)
(0.0999769 -0.000110916 0)
(0.0999563 -5.98979e-05 0)
(0.099939 -6.84919e-05 0)
(0.0999253 -1.98152e-05 0)
(0.0999134 -4.10458e-05 0)
)
;
    }
    frontAndBack
    {
        type            empty;
    }
}


// ************************************************************************* //
