/*--------------------------------*- C++ -*----------------------------------*\
  =========                 |
  \\      /  F ield         | OpenFOAM: The Open Source CFD Toolbox
   \\    /   O peration     | Website:  https://openfoam.org
    \\  /    A nd           | Version:  9
     \\/     M anipulation  |
\*---------------------------------------------------------------------------*/
FoamFile
{
    format      ascii;
    class       volScalarField;
    location    "49";
    object      ddt0(h);
}
// * * * * * * * * * * * * * * * * * * * * * * * * * * * * * * * * * * * * * //

dimensions      [0 1 -1 0 0 0 0];

internalField   nonuniform List<scalar> 
400
(
-3.83107e-08
-3.12736e-08
-3.80091e-08
-6.57549e-08
-9.35755e-08
-1.02718e-07
-7.22211e-08
-5.42513e-08
-3.36503e-08
-2.9059e-08
1.52925e-08
1.14261e-08
2.50474e-08
3.78606e-08
3.93187e-08
5.54818e-08
8.0949e-08
9.00735e-08
7.59294e-08
3.07209e-08
-2.90702e-08
-3.26686e-08
-4.64252e-08
-6.9679e-08
-7.89437e-08
-6.19487e-08
-4.54623e-08
-5.54836e-08
-3.2748e-08
-3.1146e-08
-2.0764e-08
6.3854e-09
-1.77662e-08
1.42802e-08
2.12689e-08
2.17314e-08
3.37515e-08
4.03894e-08
3.67968e-08
1.87279e-08
-2.72948e-08
-3.98507e-08
-5.63229e-08
-6.08512e-08
-3.88332e-08
-8.09947e-09
-5.99178e-08
-4.6484e-08
-7.10704e-08
-1.96748e-08
-6.27154e-08
-7.31906e-09
-1.71393e-08
-1.5111e-08
2.91666e-08
2.5351e-08
1.09288e-08
1.58369e-08
2.02722e-08
7.62575e-09
-3.19984e-08
-4.24464e-08
-5.35992e-08
-3.62856e-08
5.16184e-09
-2.44057e-08
-6.73514e-08
-3.19768e-08
-6.09483e-08
-4.6922e-08
2.15388e-08
-6.03785e-08
2.73657e-08
2.85498e-09
1.65389e-08
4.14603e-08
1.54466e-08
-1.38314e-08
-1.70627e-08
-5.65616e-09
-3.38429e-08
-3.53063e-08
-3.45022e-08
-5.87333e-09
-7.11206e-10
-5.94122e-08
-1.38814e-08
-5.1998e-08
-5.32628e-10
-7.89937e-08
-3.00969e-08
4.94661e-08
-3.74496e-08
3.3946e-08
3.61877e-08
3.57578e-08
2.99553e-08
2.77128e-09
-8.93827e-09
-4.03375e-09
-2.74311e-08
-1.80306e-08
-1.12755e-08
3.21759e-10
-2.67667e-08
-3.14621e-08
-1.96814e-08
1.67074e-08
-1.26268e-07
1.37961e-07
-1.71023e-07
7.71525e-08
8.28202e-08
-1.65779e-08
1.60222e-08
3.49209e-08
3.2891e-08
2.08644e-08
1.42729e-08
7.15027e-09
-1.48204e-08
6.97235e-10
-1.00837e-09
-6.71987e-09
-1.41573e-08
-1.74594e-08
2.61472e-08
-7.53312e-08
4.17159e-08
-1.03655e-07
3.10818e-07
-2.88876e-07
8.26835e-08
8.30276e-08
1.25205e-08
1.66614e-08
2.28129e-08
2.40257e-08
2.74052e-08
1.5215e-08
2.20268e-09
1.10961e-08
2.5987e-10
-1.49686e-09
6.12619e-09
1.59141e-08
-2.22127e-08
-4.73563e-09
-5.35994e-09
-5.94359e-07
4.21523e-06
1.10839e-07
-1.23027e-07
6.14423e-09
2.61693e-08
1.24788e-08
5.96688e-09
1.10797e-08
2.30072e-08
1.3794e-08
1.68509e-08
1.74603e-08
1.6876e-09
1.06992e-08
3.23821e-08
4.26533e-09
-1.87459e-10
-5.24385e-08
-9.33105e-08
4.98999e-07
-4.32514e-06
-1.2912e-07
1.42771e-07
1.45135e-08
1.56345e-08
1.0976e-08
-5.17674e-08
-1.09338e-08
7.79569e-09
4.36196e-08
2.20786e-08
2.13311e-08
1.54058e-08
1.81526e-08
3.50098e-08
1.21414e-08
-4.95516e-08
-6.89378e-10
-1.22815e-07
6.94214e-08
-3.30281e-07
3.15215e-07
-4.1181e-08
-7.53332e-09
2.61928e-08
9.46097e-09
2.79341e-08
-5.1027e-09
-7.24015e-09
-3.9801e-08
1.64861e-08
2.57321e-08
2.92189e-08
2.15838e-08
1.67902e-08
9.34051e-09
-3.63786e-08
-8.27429e-08
1.01995e-07
-2.24841e-07
7.70192e-07
-1.40279e-07
-6.11927e-09
7.94431e-08
4.20229e-08
-2.51872e-09
-9.12696e-09
3.64745e-09
6.35378e-09
1.32282e-09
5.16496e-09
2.05119e-08
3.71241e-08
1.8385e-08
-3.87949e-09
-5.02981e-10
-2.90992e-08
-3.70658e-08
-3.32081e-08
1.68142e-07
-8.55636e-07
6.08225e-07
6.31822e-08
4.79852e-08
3.72704e-08
7.74483e-11
3.65837e-09
1.77038e-08
2.07855e-08
7.22038e-09
-7.12433e-09
7.24665e-09
2.62513e-08
1.71476e-08
-2.01928e-08
-1.02984e-08
-1.70686e-08
-2.56414e-08
-4.62749e-08
-1.27198e-07
8.00562e-07
-6.1982e-07
3.19774e-08
1.6733e-08
1.20599e-08
2.0044e-08
2.5868e-08
2.3465e-08
1.2432e-08
2.81249e-09
-2.09116e-08
-9.74669e-09
6.68507e-09
5.34066e-09
-1.17486e-08
-2.9818e-08
1.61346e-09
-2.2353e-08
-7.5188e-08
3.30506e-08
-6.19592e-07
1.21657e-07
-3.45017e-08
-6.63583e-09
8.44326e-09
2.96675e-08
2.87696e-08
1.00824e-08
-8.7684e-09
-6.98917e-09
-3.57621e-08
-2.45698e-08
-7.84863e-09
-1.43376e-08
-1.4052e-08
-1.49898e-08
-2.29153e-08
-4.36874e-09
-3.1647e-08
-1.1119e-07
3.21918e-08
-7.17501e-08
-1.98449e-08
-7.17178e-09
1.90145e-08
3.9495e-08
2.37541e-08
-5.25051e-09
-1.98377e-08
-1.0598e-08
-4.70197e-08
-3.80174e-08
-1.51572e-08
-2.19798e-08
-4.02273e-08
-1.83976e-08
-3.06537e-08
-2.78082e-08
-2.70061e-08
-3.02412e-08
-3.31639e-08
-1.89855e-08
-1.15638e-08
1.0444e-08
3.9595e-08
3.70123e-08
2.01078e-08
-5.13335e-10
-1.14576e-08
-6.50013e-09
-5.07304e-08
-4.87689e-08
-2.4719e-08
-2.1793e-08
-5.66782e-08
-6.19722e-08
-4.04641e-08
-5.19059e-08
-2.49352e-08
-3.0671e-08
-2.07762e-08
-1.10825e-08
8.98291e-09
3.00546e-08
2.91868e-08
3.71688e-08
3.78594e-08
1.70556e-08
-1.16099e-09
-2.7047e-09
-4.27306e-08
-5.39852e-08
-4.64598e-08
-3.43953e-08
-5.81641e-08
-9.0855e-08
-8.21573e-08
-6.27401e-08
-4.7768e-08
-3.80616e-08
-2.99918e-08
-1.44911e-08
1.83659e-08
2.70479e-08
3.34102e-08
5.18699e-08
5.74789e-08
3.46266e-08
7.44437e-09
-1.36692e-09
-2.66813e-08
-5.2885e-08
-7.26207e-08
-6.80304e-08
-6.39517e-08
-8.44328e-08
-9.25856e-08
-7.56839e-08
-5.79507e-08
-4.47257e-08
-3.94351e-08
-1.93448e-08
7.26649e-09
2.21658e-08
2.85549e-08
3.62887e-08
4.62345e-08
4.20009e-08
1.8991e-08
2.21692e-09
-1.38741e-08
-4.77374e-08
-8.83484e-08
-9.66164e-08
-7.77079e-08
-7.2093e-08
-8.17224e-08
-7.21944e-08
-5.54893e-08
-4.39763e-08
-3.56999e-08
-2.236e-08
-2.29686e-09
1.25361e-08
1.3692e-08
1.39251e-08
3.13622e-08
5.04003e-08
3.61842e-08
8.77857e-09
)
;

boundaryField
{
    sides
    {
        type            calculated;
        value           nonuniform List<scalar> 
40
(
-1.38741e-08
-4.77374e-08
-8.83484e-08
-9.66164e-08
-7.77079e-08
-7.2093e-08
-8.17224e-08
-7.21944e-08
-5.54893e-08
-4.39763e-08
-3.56999e-08
-2.236e-08
-2.29686e-09
1.25361e-08
1.3692e-08
1.39251e-08
3.13622e-08
5.04003e-08
3.61842e-08
8.77857e-09
-3.83107e-08
-3.12736e-08
-3.80091e-08
-6.57549e-08
-9.35755e-08
-1.02718e-07
-7.22211e-08
-5.42513e-08
-3.36503e-08
-2.9059e-08
1.52925e-08
1.14261e-08
2.50474e-08
3.78606e-08
3.93187e-08
5.54818e-08
8.0949e-08
9.00735e-08
7.59294e-08
3.07209e-08
)
;
    }
    inlet
    {
        type            calculated;
        value           nonuniform List<scalar> 
20
(
-3.83107e-08
-2.90702e-08
-2.72948e-08
-3.19984e-08
-3.38429e-08
-2.74311e-08
-1.48204e-08
2.20268e-09
1.68509e-08
2.20786e-08
1.64861e-08
5.16496e-09
-7.12433e-09
-2.09116e-08
-3.57621e-08
-4.70197e-08
-5.07304e-08
-4.27306e-08
-2.66813e-08
-1.38741e-08
)
;
    }
    outlet
    {
        type            calculated;
        value           uniform 0;
    }
    frontAndBack
    {
        type            empty;
    }
}


// ************************************************************************* //
