/*--------------------------------*- C++ -*----------------------------------*\
  =========                 |
  \\      /  F ield         | OpenFOAM: The Open Source CFD Toolbox
   \\    /   O peration     | Website:  https://openfoam.org
    \\  /    A nd           | Version:  9
     \\/     M anipulation  |
\*---------------------------------------------------------------------------*/
FoamFile
{
    format      ascii;
    class       volVectorField;
    location    "49";
    object      ddtCorrDdt0(hU);
}
// * * * * * * * * * * * * * * * * * * * * * * * * * * * * * * * * * * * * * //

dimensions      [0 2 -2 0 0 0 0];

internalField   nonuniform List<vector> 
400
(
(-2.4415e-09 -2.08006e-09 0)
(-4.2876e-10 -2.4319e-09 0)
(5.31944e-09 6.37875e-10 0)
(5.45206e-09 4.85744e-09 0)
(4.44139e-09 5.38725e-09 0)
(4.50092e-09 -1.05522e-09 0)
(7.34714e-09 -8.07159e-09 0)
(1.29115e-08 -6.49017e-09 0)
(1.73789e-08 -3.89607e-09 0)
(1.1331e-08 -6.49698e-10 0)
(5.66705e-09 -6.04745e-09 0)
(3.57592e-10 -5.87624e-09 0)
(5.78426e-09 -3.8953e-09 0)
(8.14411e-09 -1.75066e-09 0)
(-2.76471e-11 2.73194e-09 0)
(-6.93381e-09 2.36778e-09 0)
(-1.04915e-08 -2.81047e-09 0)
(-7.20125e-09 -5.11986e-09 0)
(-1.57119e-09 -3.79571e-09 0)
(-1.31449e-08 -1.62259e-09 0)
(-1.2938e-09 -4.54352e-09 0)
(1.3767e-09 -5.43681e-09 0)
(7.10485e-09 1.28865e-09 0)
(6.3564e-09 1.07934e-08 0)
(3.31007e-09 1.05873e-08 0)
(2.20786e-09 -6.06387e-09 0)
(6.50073e-09 -1.98203e-08 0)
(1.09768e-08 -1.5655e-08 0)
(1.65017e-08 -7.41803e-09 0)
(9.74655e-09 -1.04641e-09 0)
(3.62849e-09 -4.83701e-09 0)
(6.66498e-09 -1.51955e-08 0)
(2.50135e-09 -1.04116e-08 0)
(5.60363e-09 -4.31493e-09 0)
(-4.27492e-10 4.12761e-09 0)
(-1.1404e-08 5.38976e-09 0)
(-1.49509e-08 -8.39729e-09 0)
(-1.16914e-08 -2.3614e-08 0)
(-8.88247e-09 -1.61721e-08 0)
(-1.51931e-08 -1.0781e-09 0)
(-3.65521e-10 -4.20039e-09 0)
(3.46102e-09 -5.82482e-09 0)
(8.45711e-09 1.18499e-09 0)
(6.23393e-09 1.16127e-08 0)
(4.74421e-10 7.85972e-09 0)
(1.03623e-09 -1.22271e-08 0)
(4.69532e-09 -2.1451e-08 0)
(1.18903e-08 -2.04669e-08 0)
(1.09359e-08 -1.50427e-09 0)
(1.53851e-08 1.7792e-10 0)
(6.22974e-10 5.291e-10 0)
(4.78655e-09 -1.86628e-08 0)
(5.70983e-09 -2.1434e-08 0)
(9.66914e-10 -8.1662e-09 0)
(6.42899e-10 -1.02575e-09 0)
(-1.27744e-08 6.14011e-10 0)
(-2.58552e-08 -1.01738e-08 0)
(-1.85541e-08 -2.46541e-08 0)
(-2.62412e-09 -1.69984e-08 0)
(-4.09504e-09 -2.48844e-10 0)
(-2.35365e-10 -2.14579e-09 0)
(4.68073e-09 -5.18085e-09 0)
(7.95852e-09 -6.4994e-10 0)
(3.2253e-09 8.03359e-09 0)
(-2.00825e-09 3.32565e-09 0)
(1.76548e-09 -9.62763e-09 0)
(5.11566e-09 -2.18335e-08 0)
(1.29345e-08 -2.10985e-08 0)
(9.486e-09 -2.44751e-09 0)
(9.83872e-09 1.06717e-08 0)
(1.32674e-08 -1.31745e-08 0)
(-4.58013e-09 -1.83312e-08 0)
(8.27576e-09 -2.81746e-08 0)
(1.71406e-09 -1.72732e-08 0)
(-4.33816e-09 -4.56928e-09 0)
(-5.22312e-09 -5.0475e-09 0)
(-1.22661e-08 -1.61217e-08 0)
(-1.72056e-08 -2.67254e-08 0)
(-1.48818e-08 -1.32782e-08 0)
(-1.08227e-08 3.73083e-09 0)
(-6.92512e-10 1.79814e-10 0)
(3.10461e-09 -5.00901e-09 0)
(3.94866e-09 -4.0131e-09 0)
(-6.85034e-10 3.10868e-09 0)
(-3.07955e-10 4.69557e-09 0)
(2.99581e-09 -5.84813e-09 0)
(8.87358e-09 -2.59734e-08 0)
(4.70601e-09 -2.20828e-08 0)
(1.8095e-08 -5.01181e-09 0)
(-8.73875e-10 1.02193e-08 0)
(4.53113e-09 -5.25238e-09 0)
(1.81588e-08 -3.31429e-08 0)
(-7.51982e-09 -2.43468e-08 0)
(-1.83353e-12 -1.7902e-08 0)
(-1.31159e-09 -7.52093e-09 0)
(-5.79763e-09 -6.19409e-09 0)
(-8.04164e-09 -1.99825e-08 0)
(-8.85255e-09 -3.39417e-08 0)
(-5.00187e-09 -1.67816e-08 0)
(-5.5369e-09 4.91208e-09 0)
(-1.79885e-09 5.82417e-10 0)
(-9.33744e-10 -5.61395e-09 0)
(-1.34421e-09 -5.89218e-09 0)
(-2.36031e-09 3.48257e-09 0)
(5.63036e-10 8.48967e-09 0)
(6.22583e-09 -8.03971e-09 0)
(5.59821e-09 -2.89501e-08 0)
(1.01705e-08 -2.62501e-08 0)
(-8.37977e-11 5.13751e-09 0)
(2.82866e-08 -1.44102e-08 0)
(-1.63143e-08 2.73627e-08 0)
(1.41506e-08 -2.76501e-08 0)
(1.64825e-08 -3.76504e-08 0)
(-1.60832e-08 -1.0583e-08 0)
(-9.11243e-09 -2.28319e-10 0)
(1.0922e-09 -2.33029e-09 0)
(4.06451e-09 -1.81235e-08 0)
(-1.40863e-09 -3.26883e-08 0)
(-6.31298e-09 -1.98166e-08 0)
(-4.53753e-09 1.31754e-09 0)
(-2.50814e-09 -1.40637e-09 0)
(-4.96403e-09 -5.95207e-09 0)
(-4.96299e-09 -4.6025e-09 0)
(-3.88527e-09 6.26183e-09 0)
(1.84591e-09 8.31557e-09 0)
(5.43037e-09 -1.1496e-08 0)
(6.69221e-09 -2.85768e-08 0)
(7.7133e-09 -2.21829e-08 0)
(-6.033e-10 -9.67526e-09 0)
(1.67578e-08 1.33568e-08 0)
(6.08331e-08 -8.41907e-08 0)
(-5.82897e-08 2.91188e-08 0)
(8.57624e-09 -2.62909e-08 0)
(1.07635e-08 -1.59304e-08 0)
(-1.16427e-08 3.76632e-09 0)
(-5.87549e-09 2.82164e-09 0)
(3.1053e-09 -1.54618e-08 0)
(1.62482e-09 -3.49472e-08 0)
(-5.27479e-10 -2.18863e-08 0)
(2.52881e-09 4.27885e-10 0)
(-1.99845e-09 -3.25705e-09 0)
(-6.84058e-09 -4.84291e-09 0)
(-6.87261e-09 -2.26541e-09 0)
(-4.83498e-09 6.13306e-09 0)
(-1.84163e-10 4.50818e-09 0)
(6.22292e-09 -1.27172e-08 0)
(5.51693e-09 -2.4839e-08 0)
(1.42764e-09 -2.07441e-08 0)
(1.49934e-08 -1.09101e-08 0)
(-1.20078e-07 8.11803e-09 0)
(4.68474e-07 5.10288e-08 0)
(1.02327e-07 -5.80243e-08 0)
(-6.42141e-08 -1.18492e-08 0)
(-1.17499e-08 -8.5432e-09 0)
(-3.09909e-09 3.2846e-10 0)
(-2.23537e-09 4.07637e-09 0)
(2.11956e-09 -7.48494e-09 0)
(5.63787e-10 -2.48982e-08 0)
(-2.03289e-11 -1.68877e-08 0)
(7.22569e-09 -1.37363e-09 0)
(-6.38555e-10 -2.53332e-09 0)
(-7.14661e-09 -1.98631e-09 0)
(-8.12844e-09 -8.63284e-10 0)
(-6.88e-09 2.60593e-09 0)
(-1.40206e-09 6.97613e-10 0)
(3.8453e-09 -1.02869e-08 0)
(5.00783e-09 -1.66647e-08 0)
(3.82579e-09 -1.33901e-08 0)
(-1.06835e-08 -6.49821e-09 0)
(1.36239e-07 6.00263e-09 0)
(-4.51534e-07 4.68339e-08 0)
(-9.13351e-08 -5.68123e-08 0)
(5.86321e-08 -6.73811e-09 0)
(-6.86745e-09 -3.06665e-09 0)
(-9.02572e-09 1.13966e-09 0)
(1.36824e-09 3.91313e-09 0)
(-1.98227e-09 -6.97911e-09 0)
(-3.08121e-09 -1.46112e-08 0)
(-3.94429e-09 -9.52889e-09 0)
(1.08814e-08 3.06359e-09 0)
(2.14462e-10 9.87858e-12 0)
(-7.1761e-09 1.18242e-09 0)
(-9.29356e-09 -2.76814e-10 0)
(-8.28585e-09 -2.07759e-09 0)
(-2.5004e-09 -1.48199e-09 0)
(5.86441e-09 -4.79174e-09 0)
(5.03593e-09 -7.51921e-09 0)
(-9.2208e-10 -5.17306e-10 0)
(7.81341e-09 -3.509e-09 0)
(-1.1399e-09 1.49753e-09 0)
(-4.17959e-08 -8.77608e-08 0)
(7.43828e-08 4.15496e-08 0)
(-4.34186e-09 -1.3396e-08 0)
(-1.86232e-08 -5.98134e-09 0)
(-1.78527e-09 2.94403e-09 0)
(3.208e-10 1.4391e-09 0)
(6.16827e-09 -5.69045e-09 0)
(2.74285e-09 -6.78086e-09 0)
(-2.78451e-10 -4.13126e-09 0)
(-1.1976e-09 2.74491e-09 0)
(8.84219e-11 1.63508e-09 0)
(-7.1387e-09 3.06928e-09 0)
(-1.03702e-08 2.01939e-10 0)
(-8.51561e-09 -4.93728e-09 0)
(-1.78925e-09 -3.76281e-09 0)
(5.70853e-09 2.19598e-09 0)
(7.26976e-09 1.89989e-09 0)
(3.04135e-10 1.40557e-09 0)
(5.71052e-09 6.18768e-09 0)
(-3.35224e-08 -5.15513e-09 0)
(1.02589e-07 -1.80813e-07 0)
(2.35573e-10 -1.84028e-08 0)
(-1.07792e-08 -9.52776e-10 0)
(1.36743e-08 5.58647e-09 0)
(1.83023e-09 2.09735e-09 0)
(-1.85152e-09 -3.36151e-09 0)
(3.00055e-09 -1.76248e-09 0)
(3.3926e-09 1.85812e-09 0)
(3.15484e-11 4.09785e-10 0)
(1.66144e-09 -2.37887e-09 0)
(-2.86688e-10 1.58013e-09 0)
(-6.43944e-09 3.34671e-09 0)
(-9.83774e-09 1.56305e-09 0)
(-7.2497e-09 -5.02079e-09 0)
(1.50541e-10 -4.82364e-09 0)
(5.48216e-09 6.65156e-09 0)
(6.30058e-09 1.20257e-08 0)
(3.48821e-09 4.29358e-09 0)
(1.19779e-08 -2.36636e-09 0)
(-1.99316e-07 -1.04504e-08 0)
(-1.26198e-07 2.6219e-07 0)
(3.04608e-07 3.1859e-08 0)
(3.07461e-08 2.81982e-08 0)
(-3.00388e-09 1.28645e-08 0)
(-2.40396e-09 -2.49119e-09 0)
(-1.85487e-09 -7.87237e-09 0)
(6.33266e-09 -2.19278e-09 0)
(7.55243e-09 9.35086e-09 0)
(5.11994e-10 5.57395e-09 0)
(-9.04756e-10 -2.3764e-09 0)
(-6.99656e-10 1.02941e-09 0)
(-4.48025e-09 3.1953e-09 0)
(-7.2605e-09 2.34474e-09 0)
(-4.93681e-09 -4.01939e-09 0)
(1.54479e-09 -5.81463e-09 0)
(5.89696e-09 7.99905e-09 0)
(3.02678e-09 1.92469e-08 0)
(3.41484e-09 9.49871e-09 0)
(-1.33779e-08 -5.41222e-09 0)
(2.35486e-07 -6.53748e-09 0)
(1.42302e-07 2.36338e-07 0)
(-3.0786e-07 5.41571e-08 0)
(-1.97508e-08 3.1342e-08 0)
(-5.77431e-09 1.49623e-08 0)
(-8.98513e-09 -4.9627e-10 0)
(-1.09071e-09 -5.83819e-09 0)
(9.18718e-09 4.65521e-09 0)
(1.02657e-08 1.84174e-08 0)
(1.47458e-10 7.96291e-09 0)
(-4.88815e-09 -4.35861e-09 0)
(-1.046e-09 1.08061e-09 0)
(-1.90238e-09 3.80574e-09 0)
(-2.93737e-09 2.06838e-09 0)
(-1.91667e-09 -5.55011e-09 0)
(3.33884e-09 -6.32597e-09 0)
(4.53669e-09 6.55986e-09 0)
(3.35856e-09 2.35294e-08 0)
(-5.32036e-10 1.66743e-08 0)
(1.28998e-08 -3.03491e-09 0)
(2.25561e-08 6.75022e-09 0)
(-5.71945e-08 -2.35212e-07 0)
(2.08612e-08 5.66066e-09 0)
(-8.79599e-09 3.13509e-08 0)
(-1.36372e-08 1.68616e-08 0)
(-8.62819e-09 1.87617e-09 0)
(-4.91469e-10 -5.33125e-10 0)
(7.52783e-09 1.2087e-08 0)
(5.11519e-09 2.51875e-08 0)
(-4.73416e-09 9.20803e-09 0)
(-8.77573e-09 -6.03027e-09 0)
(-1.45581e-09 1.59798e-09 0)
(6.57058e-10 5.05122e-09 0)
(1.22706e-09 2.15198e-09 0)
(1.70094e-09 -9.04787e-09 0)
(3.53683e-09 -9.33627e-09 0)
(5.32608e-09 6.57802e-09 0)
(2.98992e-09 2.35795e-08 0)
(3.89261e-09 2.34819e-08 0)
(7.54351e-09 4.28017e-09 0)
(4.22265e-09 -1.84251e-08 0)
(1.76764e-08 5.39125e-09 0)
(-2.09768e-09 2.5865e-08 0)
(-4.27182e-09 2.77906e-08 0)
(-5.94733e-09 1.74919e-08 0)
(-4.98478e-09 5.65864e-09 0)
(9.75912e-10 4.08069e-09 0)
(1.65592e-09 1.48321e-08 0)
(-2.05883e-09 2.83825e-08 0)
(-7.86368e-09 1.22718e-08 0)
(-1.13164e-08 -5.46126e-09 0)
(-1.30625e-09 1.75745e-09 0)
(3.09903e-09 5.79444e-09 0)
(4.0944e-09 2.59722e-09 0)
(3.70347e-09 -1.0908e-08 0)
(3.97325e-09 -1.44001e-08 0)
(5.13041e-09 5.91918e-09 0)
(5.90404e-09 2.42974e-08 0)
(7.64088e-09 2.51094e-08 0)
(8.32938e-09 7.98505e-09 0)
(1.23602e-08 -3.24074e-09 0)
(8.81007e-09 4.9672e-09 0)
(1.09316e-09 2.47044e-08 0)
(-2.37579e-09 3.33484e-08 0)
(1.71506e-09 2.11078e-08 0)
(3.17847e-09 9.04889e-09 0)
(-3.01788e-09 4.58127e-09 0)
(-6.52336e-09 1.63452e-08 0)
(-5.69609e-09 3.18314e-08 0)
(-8.44671e-09 1.46482e-08 0)
(-1.49131e-08 -4.89843e-09 0)
(-5.80076e-10 1.7016e-09 0)
(5.21862e-09 4.56991e-09 0)
(6.05275e-09 1.77556e-09 0)
(3.75516e-09 -9.01442e-09 0)
(3.67865e-09 -1.4414e-08 0)
(5.74332e-09 2.23331e-09 0)
(9.13226e-09 2.37396e-08 0)
(1.08679e-08 2.25945e-08 0)
(1.25608e-08 9.80828e-09 0)
(5.21565e-09 6.54546e-10 0)
(2.64991e-09 1.10237e-08 0)
(4.8948e-09 2.88922e-08 0)
(7.92778e-09 3.31466e-08 0)
(8.82963e-09 2.01903e-08 0)
(1.0762e-09 4.94978e-09 0)
(-5.20394e-09 2.45407e-09 0)
(-7.54041e-09 1.61777e-08 0)
(-8.52294e-09 2.94923e-08 0)
(-1.16029e-08 1.17299e-08 0)
(-1.88832e-08 -5.56037e-09 0)
(6.34972e-11 2.17896e-09 0)
(5.79677e-09 1.83145e-09 0)
(8.19575e-09 -1.53482e-09 0)
(4.16064e-09 -7.13127e-09 0)
(2.098e-09 -8.66442e-09 0)
(5.61347e-09 2.183e-09 0)
(1.10702e-08 1.78869e-08 0)
(1.53706e-08 1.75947e-08 0)
(1.39239e-08 4.72587e-09 0)
(9.19909e-09 -6.39215e-10 0)
(3.70467e-09 1.17081e-08 0)
(-8.4884e-10 2.55445e-08 0)
(3.65428e-09 2.81197e-08 0)
(6.98021e-09 1.48853e-08 0)
(3.78737e-09 2.88101e-09 0)
(-2.60326e-09 2.78829e-09 0)
(-1.00141e-08 1.25242e-08 0)
(-1.29328e-08 1.90493e-08 0)
(-1.3286e-08 3.57718e-09 0)
(-1.87444e-08 -7.03317e-09 0)
(-1.24268e-10 2.22813e-09 0)
(3.56347e-09 -3.82189e-10 0)
(9.26797e-09 -3.36673e-09 0)
(6.18754e-09 -4.70095e-09 0)
(2.58666e-09 -1.61714e-09 0)
(5.32591e-09 4.45158e-09 0)
(1.17746e-08 1.11117e-08 0)
(1.61764e-08 9.77451e-09 0)
(1.45219e-08 1.13167e-09 0)
(7.19716e-09 -2.06597e-09 0)
(-3.09651e-10 2.57399e-09 0)
(1.33719e-09 1.29158e-08 0)
(7.38243e-09 1.67518e-08 0)
(8.40013e-09 9.77377e-09 0)
(3.40529e-09 1.85708e-09 0)
(-6.44173e-09 9.28057e-10 0)
(-1.80475e-08 6.19244e-09 0)
(-1.93632e-08 8.46565e-09 0)
(-1.24612e-08 -2.35909e-09 0)
(-1.3035e-08 -6.65862e-09 0)
(-7.89375e-10 8.97861e-10 0)
(1.33807e-09 -5.59756e-10 0)
(1.00394e-08 -1.43811e-09 0)
(8.54559e-09 -1.11126e-09 0)
(3.63957e-09 8.86591e-10 0)
(5.03706e-09 2.50478e-09 0)
(1.15192e-08 3.81698e-09 0)
(1.70823e-08 3.11362e-09 0)
(1.58727e-08 1.01739e-09 0)
(8.24162e-09 -3.93424e-10 0)
(1.45399e-09 1.89204e-09 0)
(6.94156e-10 5.63706e-09 0)
(4.49453e-09 5.45886e-09 0)
(6.24977e-09 2.55808e-09 0)
(2.04582e-09 -2.23168e-10 0)
(-8.45727e-09 -5.1714e-10 0)
(-2.21314e-08 1.2741e-09 0)
(-2.30093e-08 2.00253e-09 0)
(-1.12541e-08 -1.57873e-09 0)
(-7.70325e-09 -2.56497e-09 0)
)
;

boundaryField
{
    sides
    {
        type            calculated;
        value           nonuniform List<vector> 
40
(
(-7.89375e-10 0 0)
(1.33807e-09 0 0)
(1.00394e-08 0 0)
(8.54559e-09 0 0)
(3.63957e-09 0 0)
(5.03706e-09 0 0)
(1.15192e-08 0 0)
(1.70823e-08 0 0)
(1.58727e-08 0 0)
(8.24162e-09 0 0)
(1.45399e-09 0 0)
(6.94156e-10 0 0)
(4.49453e-09 0 0)
(6.24977e-09 0 0)
(2.04582e-09 0 0)
(-8.45727e-09 0 0)
(-2.21314e-08 0 0)
(-2.30093e-08 0 0)
(-1.12541e-08 0 0)
(-7.70325e-09 0 0)
(-2.4415e-09 0 0)
(-4.2876e-10 0 0)
(5.31944e-09 0 0)
(5.45206e-09 0 0)
(4.44139e-09 0 0)
(4.50092e-09 0 0)
(7.34714e-09 0 0)
(1.29115e-08 0 0)
(1.73789e-08 0 0)
(1.1331e-08 0 0)
(5.66705e-09 0 0)
(3.57592e-10 0 0)
(5.78426e-09 0 0)
(8.14411e-09 0 0)
(-2.76471e-11 0 0)
(-6.93381e-09 0 0)
(-1.04915e-08 0 0)
(-7.20125e-09 0 0)
(-1.57119e-09 0 0)
(-1.31449e-08 0 0)
)
;
    }
    inlet
    {
        type            calculated;
        value           uniform (0 0 0);
    }
    outlet
    {
        type            calculated;
        value           nonuniform List<vector> 
20
(
(-1.31449e-08 -1.62259e-09 0)
(-1.51931e-08 -1.0781e-09 0)
(-4.09504e-09 -2.48844e-10 0)
(-1.08227e-08 3.73083e-09 0)
(-5.5369e-09 4.91208e-09 0)
(-4.53753e-09 1.31754e-09 0)
(2.52881e-09 4.27885e-10 0)
(7.22569e-09 -1.37363e-09 0)
(1.08814e-08 3.06359e-09 0)
(-1.1976e-09 2.74491e-09 0)
(1.66144e-09 -2.37887e-09 0)
(-9.04756e-10 -2.3764e-09 0)
(-4.88815e-09 -4.35861e-09 0)
(-8.77573e-09 -6.03027e-09 0)
(-1.13164e-08 -5.46126e-09 0)
(-1.49131e-08 -4.89843e-09 0)
(-1.88832e-08 -5.56037e-09 0)
(-1.87444e-08 -7.03317e-09 0)
(-1.3035e-08 -6.65862e-09 0)
(-7.70325e-09 -2.56497e-09 0)
)
;
    }
    frontAndBack
    {
        type            empty;
    }
}


// ************************************************************************* //
