/*--------------------------------*- C++ -*----------------------------------*\
  =========                 |
  \\      /  F ield         | OpenFOAM: The Open Source CFD Toolbox
   \\    /   O peration     | Website:  https://openfoam.org
    \\  /    A nd           | Version:  9
     \\/     M anipulation  |
\*---------------------------------------------------------------------------*/
FoamFile
{
    format      ascii;
    class       volScalarField;
    location    "49";
    object      h;
}
// * * * * * * * * * * * * * * * * * * * * * * * * * * * * * * * * * * * * * //

dimensions      [0 1 0 0 0 0 0];

internalField   nonuniform List<scalar> 
400
(
0.0100004
0.0100004
0.0100003
0.0100001
0.00999993
0.00999971
0.00999947
0.00999922
0.009999
0.00999882
0.00999873
0.00999873
0.00999885
0.00999906
0.00999933
0.00999961
0.00999984
0.00999999
0.0100001
0.01
0.0100004
0.0100003
0.0100002
0.01
0.00999985
0.00999962
0.00999935
0.00999908
0.00999882
0.00999861
0.0099985
0.00999851
0.00999866
0.00999892
0.00999923
0.00999953
0.00999975
0.00999989
0.00999995
0.00999998
0.0100004
0.0100003
0.0100002
0.0100001
0.00999986
0.00999961
0.00999931
0.00999899
0.00999868
0.00999843
0.00999828
0.00999828
0.00999846
0.0099988
0.00999921
0.0099996
0.00999989
0.01
0.0100001
0.01
0.0100004
0.0100004
0.0100003
0.0100001
0.0099999
0.00999962
0.00999926
0.00999886
0.00999843
0.00999805
0.00999783
0.00999784
0.00999815
0.00999867
0.00999926
0.00999971
0.00999993
0.00999997
0.00999995
0.00999996
0.0100005
0.0100005
0.0100004
0.0100002
0.01
0.00999968
0.00999925
0.00999872
0.00999813
0.00999754
0.00999714
0.00999715
0.00999764
0.00999854
0.00999949
0.0100001
0.0100003
0.0100002
0.0100001
0.00999999
0.0100006
0.0100006
0.0100005
0.0100004
0.0100002
0.00999986
0.00999933
0.0099986
0.00999772
0.00999689
0.00999628
0.00999625
0.00999703
0.00999839
0.00999971
0.0100004
0.0100005
0.0100002
0.00999993
0.00999991
0.0100008
0.0100008
0.0100008
0.0100007
0.0100006
0.0100002
0.00999967
0.00999866
0.00999714
0.00999536
0.00999416
0.0099945
0.00999667
0.00999946
0.0100013
0.0100015
0.0100008
0.01
0.00999974
0.00999987
0.0100009
0.010001
0.010001
0.0100011
0.0100011
0.0100009
0.0100003
0.00999929
0.00999738
0.00999426
0.0099905
0.00999021
0.00999446
0.0100002
0.0100033
0.0100031
0.0100013
0.00999985
0.0099995
0.00999983
0.010001
0.0100011
0.0100013
0.0100016
0.0100018
0.010002
0.0100014
0.0099995
0.00999551
0.00998976
0.00998676
0.00998973
0.00999804
0.0100037
0.0100044
0.0100024
0.0100003
0.00999934
0.00999944
0.00999988
0.010001
0.0100012
0.0100014
0.0100019
0.0100027
0.0100041
0.0100059
0.0100078
0.0100049
0.00897848
0.00895239
0.00997586
0.0100088
0.0100178
0.0100104
0.0100023
0.00999885
0.0099989
0.00999978
0.0100002
0.010001
0.0100011
0.0100013
0.0100018
0.0100026
0.010004
0.0100058
0.0100078
0.0100049
0.00897844
0.00895244
0.0099758
0.0100088
0.0100178
0.0100104
0.0100023
0.00999885
0.00999889
0.00999975
0.0100001
0.0100008
0.0100009
0.0100011
0.0100014
0.0100016
0.0100018
0.0100012
0.00999931
0.00999532
0.00998957
0.0099865
0.00998961
0.00999792
0.0100036
0.0100043
0.0100023
0.0100002
0.00999932
0.00999946
0.00999989
0.0100006
0.0100006
0.0100007
0.0100008
0.0100007
0.0100005
0.01
0.00999899
0.00999711
0.00999402
0.00999034
0.00998993
0.00999421
0.00999993
0.0100031
0.0100029
0.0100011
0.00999977
0.00999947
0.00999982
0.0100003
0.0100003
0.0100003
0.0100002
0.0100001
0.0099998
0.00999923
0.00999823
0.00999671
0.00999493
0.0099937
0.00999412
0.00999631
0.00999916
0.010001
0.0100013
0.0100006
0.0099999
0.00999963
0.00999983
0.01
0.01
0.00999995
0.00999983
0.00999962
0.00999928
0.00999876
0.00999805
0.00999719
0.00999637
0.00999581
0.00999579
0.00999661
0.00999801
0.00999937
0.0100001
0.0100002
0.00999998
0.00999981
0.00999988
0.00999977
0.00999973
0.00999964
0.0099995
0.00999928
0.00999897
0.00999855
0.00999804
0.00999746
0.00999689
0.00999651
0.00999655
0.00999709
0.00999802
0.00999902
0.00999972
0.01
0.00999997
0.00999989
0.00999992
0.00999954
0.00999949
0.00999939
0.00999925
0.00999903
0.00999876
0.00999842
0.00999803
0.00999763
0.00999729
0.00999712
0.00999717
0.00999751
0.00999808
0.00999874
0.00999928
0.00999961
0.00999975
0.00999982
0.00999991
0.00999935
0.0099993
0.0099992
0.00999905
0.00999886
0.00999861
0.00999832
0.00999802
0.00999772
0.00999748
0.00999736
0.00999742
0.00999767
0.00999807
0.00999855
0.009999
0.00999936
0.0099996
0.00999977
0.00999991
0.00999919
0.00999915
0.00999905
0.00999892
0.00999873
0.00999851
0.00999827
0.00999802
0.00999779
0.00999762
0.00999754
0.00999759
0.00999778
0.0099981
0.0099985
0.0099989
0.00999925
0.00999953
0.00999974
0.00999991
0.00999906
0.00999901
0.00999891
0.00999877
0.00999859
0.00999838
0.00999815
0.00999792
0.00999771
0.00999756
0.0099975
0.00999756
0.00999774
0.00999802
0.00999837
0.00999873
0.00999908
0.00999938
0.00999964
0.00999986
)
;

boundaryField
{
    sides
    {
        type            zeroGradient;
    }
    inlet
    {
        type            zeroGradient;
    }
    outlet
    {
        type            fixedValue;
        value           uniform 0.01;
    }
    frontAndBack
    {
        type            empty;
    }
}


// ************************************************************************* //
