/*--------------------------------*- C++ -*----------------------------------*\
  =========                 |
  \\      /  F ield         | OpenFOAM: The Open Source CFD Toolbox
   \\    /   O peration     | Website:  https://openfoam.org
    \\  /    A nd           | Version:  9
     \\/     M anipulation  |
\*---------------------------------------------------------------------------*/
FoamFile
{
    format      ascii;
    class       volVectorField;
    location    "49";
    object      hU;
}
// * * * * * * * * * * * * * * * * * * * * * * * * * * * * * * * * * * * * * //

dimensions      [0 2 -1 0 0 0 0];

internalField   nonuniform List<vector> 
400
(
(0.001 -2.42323e-08 0)
(0.00100004 -6.9713e-08 0)
(0.00100012 -1.11338e-07 0)
(0.00100024 -1.50427e-07 0)
(0.0010004 -1.8665e-07 0)
(0.00100059 -2.17255e-07 0)
(0.0010008 -2.36818e-07 0)
(0.001001 -2.43465e-07 0)
(0.00100119 -2.34209e-07 0)
(0.00100134 -2.1111e-07 0)
(0.00100141 -1.70963e-07 0)
(0.00100141 -1.3034e-07 0)
(0.00100131 -9.93399e-08 0)
(0.00100112 -9.24229e-08 0)
(0.00100088 -9.94887e-08 0)
(0.00100065 -1.37168e-07 0)
(0.00100045 -1.59386e-07 0)
(0.00100035 -2.0352e-07 0)
(0.00100027 -1.90222e-07 0)
(0.00100033 -2.68778e-07 0)
(0.001 -2.67568e-08 0)
(0.00100005 -7.6907e-08 0)
(0.00100013 -1.23568e-07 0)
(0.00100026 -1.68866e-07 0)
(0.00100043 -2.11456e-07 0)
(0.00100063 -2.41959e-07 0)
(0.00100085 -2.46297e-07 0)
(0.00100109 -2.164e-07 0)
(0.00100131 -1.49831e-07 0)
(0.00100148 -4.70079e-08 0)
(0.00100158 8.97235e-08 0)
(0.00100156 2.43256e-07 0)
(0.00100143 3.89676e-07 0)
(0.0010012 4.79258e-07 0)
(0.00100093 5.05985e-07 0)
(0.00100067 4.48222e-07 0)
(0.00100049 3.70847e-07 0)
(0.00100037 2.52758e-07 0)
(0.00100034 2.08545e-07 0)
(0.00100029 8.37274e-08 0)
(0.001 -5.25012e-08 0)
(0.00100005 -1.56099e-07 0)
(0.00100013 -2.59891e-07 0)
(0.00100026 -3.66375e-07 0)
(0.00100043 -4.71936e-07 0)
(0.00100065 -5.59178e-07 0)
(0.00100091 -6.04393e-07 0)
(0.00100118 -5.91779e-07 0)
(0.00100144 -5.10287e-07 0)
(0.00100166 -3.49984e-07 0)
(0.00100178 -1.14082e-07 0)
(0.00100177 1.57484e-07 0)
(0.00100161 4.02902e-07 0)
(0.00100132 5.24898e-07 0)
(0.00100096 5.01357e-07 0)
(0.00100063 3.49015e-07 0)
(0.00100038 1.93245e-07 0)
(0.00100027 4.02257e-08 0)
(0.00100023 2.09059e-10 0)
(0.0010003 -1.13679e-07 0)
(0.001 -7.28401e-08 0)
(0.00100005 -2.17992e-07 0)
(0.00100013 -3.66015e-07 0)
(0.00100026 -5.22225e-07 0)
(0.00100045 -6.80344e-07 0)
(0.0010007 -8.15265e-07 0)
(0.00100101 -8.89827e-07 0)
(0.00100136 -8.77625e-07 0)
(0.00100172 -7.44985e-07 0)
(0.00100204 -4.71841e-07 0)
(0.00100223 -2.94947e-08 0)
(0.0010022 4.87652e-07 0)
(0.00100194 9.38612e-07 0)
(0.00100148 1.14555e-06 0)
(0.00100098 1.05684e-06 0)
(0.00100059 7.36418e-07 0)
(0.00100042 4.1137e-07 0)
(0.00100036 1.6405e-07 0)
(0.00100041 1.08313e-07 0)
(0.00100035 6.02485e-09 0)
(0.001 -8.94404e-08 0)
(0.00100004 -2.72725e-07 0)
(0.00100012 -4.67531e-07 0)
(0.00100025 -6.8588e-07 0)
(0.00100045 -9.21092e-07 0)
(0.00100073 -1.14509e-06 0)
(0.0010011 -1.2999e-06 0)
(0.00100156 -1.32835e-06 0)
(0.00100208 -1.16398e-06 0)
(0.00100258 -7.74676e-07 0)
(0.00100291 -1.76217e-07 0)
(0.0010029 5.72137e-07 0)
(0.00100245 1.2324e-06 0)
(0.00100168 1.51747e-06 0)
(0.00100087 1.37711e-06 0)
(0.00100032 9.57352e-07 0)
(0.00100014 5.67824e-07 0)
(0.00100023 3.08581e-07 0)
(0.00100037 2.71702e-07 0)
(0.00100044 1.75392e-07 0)
(0.001 -1.01323e-07 0)
(0.00100003 -3.1299e-07 0)
(0.00100009 -5.52982e-07 0)
(0.0010002 -8.37064e-07 0)
(0.00100039 -1.17325e-06 0)
(0.00100069 -1.53132e-06 0)
(0.00100116 -1.86094e-06 0)
(0.00100179 -2.04569e-06 0)
(0.00100255 -1.89965e-06 0)
(0.00100328 -1.19703e-06 0)
(0.00100378 8.03811e-08 0)
(0.00100379 1.53685e-06 0)
(0.00100311 2.43576e-06 0)
(0.00100193 2.31148e-06 0)
(0.00100083 1.43187e-06 0)
(0.0010002 4.84794e-07 0)
(0.00100018 -6.24667e-10 0)
(0.00100038 -9.28819e-08 0)
(0.00100065 6.61761e-08 0)
(0.00100055 5.61515e-08 0)
(0.001 -1.00695e-07 0)
(0.001 -3.28551e-07 0)
(0.00100002 -5.93882e-07 0)
(0.00100008 -9.55243e-07 0)
(0.00100022 -1.3931e-06 0)
(0.00100049 -1.95273e-06 0)
(0.001001 -2.49177e-06 0)
(0.00100189 -3.07761e-06 0)
(0.00100322 -3.2251e-06 0)
(0.00100475 -2.87678e-06 0)
(0.00100575 -6.74928e-07 0)
(0.00100537 2.5516e-06 0)
(0.00100351 4.82763e-06 0)
(0.00100114 4.74076e-06 0)
(0.000999621 3.02917e-06 0)
(0.000999385 1.2557e-06 0)
(0.00100002 4.17476e-07 0)
(0.00100057 3.19823e-07 0)
(0.00100094 5.69197e-07 0)
(0.00100067 5.4081e-07 0)
(0.000999995 -9.11527e-08 0)
(0.000999968 -2.85024e-07 0)
(0.000999909 -5.70946e-07 0)
(0.000999881 -9.51741e-07 0)
(0.000999886 -1.57868e-06 0)
(0.0010001 -2.35102e-06 0)
(0.00100051 -3.40497e-06 0)
(0.00100153 -4.11925e-06 0)
(0.0010031 -4.3654e-06 0)
(0.00100603 -2.54845e-06 0)
(0.00100912 7.45806e-07 0)
(0.00100916 4.25781e-06 0)
(0.00100551 4.71777e-06 0)
(0.00100075 2.78394e-06 0)
(0.000998166 7.34481e-07 0)
(0.000998289 -2.82668e-07 0)
(0.000999811 -2.97928e-07 0)
(0.00100088 -1.62834e-08 0)
(0.00100134 2.16494e-07 0)
(0.00100086 1.07901e-07 0)
(0.000999994 -4.84058e-08 0)
(0.000999914 -2.0166e-07 0)
(0.000999757 -3.83174e-07 0)
(0.000999536 -7.32613e-07 0)
(0.000999295 -1.34046e-06 0)
(0.000999217 -2.48662e-06 0)
(0.000999712 -4.69014e-06 0)
(0.0010014 -8.06539e-06 0)
(0.00100493 -1.32803e-05 0)
(0.0010096 -1.49118e-05 0)
(0.0010119 3.83542e-06 0)
(0.00100895 1.87225e-05 0)
(0.00100223 1.57815e-05 0)
(0.00099758 5.74288e-06 0)
(0.000996901 -3.17189e-07 0)
(0.000998476 -1.26906e-06 0)
(0.00100028 -1.03548e-07 0)
(0.00100101 6.29461e-07 0)
(0.00100108 6.55051e-07 0)
(0.00100056 2.48868e-07 0)
(0.000999803 -1.9635e-08 0)
(0.00100017 -6.6456e-08 0)
(0.000999217 -1.51338e-07 0)
(0.000999909 -2.49675e-07 0)
(0.000997529 -5.95037e-07 0)
(0.000998849 -1.13507e-06 0)
(0.000993351 -2.88608e-06 0)
(0.000997538 -5.59211e-06 0)
(0.00099168 -1.15406e-05 0)
(0.000915848 -1.27036e-05 0)
(0.00095148 2.73658e-07 0)
(0.00101024 1.46407e-05 0)
(0.000990965 1.30829e-05 0)
(0.000983989 5.13983e-06 0)
(0.000989602 1.9207e-07 0)
(0.000996297 -7.85584e-07 0)
(0.000999249 -1.16098e-07 0)
(0.000999422 2.45848e-07 0)
(0.000998659 1.76524e-07 0)
(0.000998518 -1.80472e-07 0)
(0.000999803 1.23364e-08 0)
(0.00100017 4.37507e-08 0)
(0.000999216 1.13806e-07 0)
(0.000999908 1.95582e-07 0)
(0.000997526 5.26093e-07 0)
(0.000998844 1.05e-06 0)
(0.000993343 2.78524e-06 0)
(0.000997527 5.47283e-06 0)
(0.000991664 1.13987e-05 0)
(0.000915823 1.25502e-05 0)
(0.000951451 -4.77597e-07 0)
(0.00101022 -1.49061e-05 0)
(0.00099096 -1.34088e-05 0)
(0.000983983 -5.53916e-06 0)
(0.000989583 -6.52998e-07 0)
(0.000996259 2.44331e-07 0)
(0.000999208 -4.73098e-07 0)
(0.000999377 -1.00299e-06 0)
(0.000998644 -9.88907e-07 0)
(0.000998468 -8.8658e-07 0)
(0.000999994 4.10306e-08 0)
(0.000999915 1.7935e-07 0)
(0.000999757 3.46292e-07 0)
(0.000999535 6.80054e-07 0)
(0.000999292 1.273e-06 0)
(0.000999216 2.40188e-06 0)
(0.000999707 4.58839e-06 0)
(0.0010014 7.9383e-06 0)
(0.00100491 1.31269e-05 0)
(0.00100959 1.47186e-05 0)
(0.0010119 -4.04843e-06 0)
(0.00100893 -1.89996e-05 0)
(0.00100216 -1.60974e-05 0)
(0.000997492 -6.1296e-06 0)
(0.000996831 -9.04304e-08 0)
(0.000998417 7.72697e-07 0)
(0.00100018 -4.25145e-07 0)
(0.00100086 -1.30373e-06 0)
(0.00100089 -1.38128e-06 0)
(0.00100038 -1.24998e-06 0)
(0.000999995 8.39247e-08 0)
(0.000999968 2.63489e-07 0)
(0.000999907 5.347e-07 0)
(0.000999876 9.00642e-07 0)
(0.000999877 1.51002e-06 0)
(0.00100009 2.26306e-06 0)
(0.00100048 3.29328e-06 0)
(0.00100149 3.98435e-06 0)
(0.00100305 4.20308e-06 0)
(0.00100597 2.36364e-06 0)
(0.00100904 -9.61631e-07 0)
(0.00100906 -4.53121e-06 0)
(0.00100544 -5.02146e-06 0)
(0.00100068 -3.13722e-06 0)
(0.000998074 -1.138e-06 0)
(0.00099815 -2.52631e-07 0)
(0.000999635 -3.17316e-07 0)
(0.00100065 -7.39037e-07 0)
(0.00100107 -9.71625e-07 0)
(0.00100056 -1.07469e-06 0)
(0.001 9.38731e-08 0)
(0.001 3.07775e-07 0)
(0.00100002 5.59278e-07 0)
(0.00100007 9.06161e-07 0)
(0.0010002 1.32997e-06 0)
(0.00100047 1.87328e-06 0)
(0.00100098 2.39865e-06 0)
(0.00100186 2.96782e-06 0)
(0.00100319 3.10323e-06 0)
(0.0010047 2.7316e-06 0)
(0.00100569 5.04519e-07 0)
(0.00100529 -2.74695e-06 0)
(0.0010034 -5.07825e-06 0)
(0.00100098 -5.07941e-06 0)
(0.000999424 -3.45702e-06 0)
(0.000999137 -1.7938e-06 0)
(0.000999757 -1.01258e-06 0)
(0.00100026 -1.05562e-06 0)
(0.00100062 -1.31317e-06 0)
(0.00100025 -1.51744e-06 0)
(0.001 9.51779e-08 0)
(0.00100003 2.94459e-07 0)
(0.00100008 5.223e-07 0)
(0.00100019 7.93256e-07 0)
(0.00100037 1.11724e-06 0)
(0.00100067 1.46165e-06 0)
(0.00100112 1.77732e-06 0)
(0.00100175 1.94244e-06 0)
(0.00100249 1.77338e-06 0)
(0.00100319 1.03422e-06 0)
(0.00100367 -2.70435e-07 0)
(0.00100365 -1.77428e-06 0)
(0.00100294 -2.71342e-06 0)
(0.00100172 -2.64132e-06 0)
(0.00100059 -1.7854e-06 0)
(0.000999919 -8.93417e-07 0)
(0.00099987 -4.17311e-07 0)
(0.000999991 -4.43133e-07 0)
(0.00100023 -6.22506e-07 0)
(0.00100001 -8.5093e-07 0)
(0.001 8.38146e-08 0)
(0.00100004 2.56609e-07 0)
(0.00100012 4.41315e-07 0)
(0.00100024 6.48963e-07 0)
(0.00100043 8.72886e-07 0)
(0.0010007 1.08602e-06 0)
(0.00100106 1.22833e-06 0)
(0.00100151 1.24385e-06 0)
(0.00100201 1.06443e-06 0)
(0.0010025 6.56601e-07 0)
(0.00100281 2.67143e-08 0)
(0.00100276 -7.61669e-07 0)
(0.00100229 -1.45021e-06 0)
(0.00100148 -1.78152e-06 0)
(0.00100064 -1.67325e-06 0)
(0.00100002 -1.34544e-06 0)
(0.000999804 -1.01873e-06 0)
(0.000999775 -9.31952e-07 0)
(0.000999892 -9.5169e-07 0)
(0.000999775 -1.11102e-06 0)
(0.001 6.77367e-08 0)
(0.00100005 2.03341e-07 0)
(0.00100013 3.42536e-07 0)
(0.00100025 4.89946e-07 0)
(0.00100043 6.39319e-07 0)
(0.00100067 7.66505e-07 0)
(0.00100096 8.35711e-07 0)
(0.0010013 8.17257e-07 0)
(0.00100164 6.82325e-07 0)
(0.00100192 4.05506e-07 0)
(0.00100208 -3.97176e-08 0)
(0.00100202 -5.68719e-07 0)
(0.00100173 -1.03656e-06 0)
(0.00100121 -1.2889e-06 0)
(0.00100066 -1.23492e-06 0)
(0.00100017 -9.9169e-07 0)
(0.000999924 -6.91949e-07 0)
(0.000999749 -5.5213e-07 0)
(0.000999759 -4.93087e-07 0)
(0.000999566 -6.00755e-07 0)
(0.001 4.96765e-08 0)
(0.00100005 1.44793e-07 0)
(0.00100013 2.37075e-07 0)
(0.00100025 3.29281e-07 0)
(0.00100042 4.17904e-07 0)
(0.00100063 4.83973e-07 0)
(0.00100087 5.06745e-07 0)
(0.00100113 4.65815e-07 0)
(0.00100138 3.53576e-07 0)
(0.00100158 1.54953e-07 0)
(0.00100168 -1.10329e-07 0)
(0.00100162 -4.15683e-07 0)
(0.00100141 -6.8302e-07 0)
(0.00100105 -8.48498e-07 0)
(0.00100065 -8.54286e-07 0)
(0.00100023 -7.68641e-07 0)
(0.000999959 -6.30239e-07 0)
(0.000999699 -5.93189e-07 0)
(0.000999634 -5.66205e-07 0)
(0.000999392 -6.86838e-07 0)
(0.001 3.45548e-08 0)
(0.00100004 1.0174e-07 0)
(0.00100012 1.68228e-07 0)
(0.00100023 2.35392e-07 0)
(0.00100038 2.99799e-07 0)
(0.00100057 3.5032e-07 0)
(0.00100078 3.74278e-07 0)
(0.00100099 3.6419e-07 0)
(0.00100118 3.15009e-07 0)
(0.00100131 2.23509e-07 0)
(0.00100138 8.94027e-08 0)
(0.00100133 -6.69196e-08 0)
(0.00100117 -2.06525e-07 0)
(0.00100088 -3.01027e-07 0)
(0.00100055 -3.15235e-07 0)
(0.00100017 -2.80928e-07 0)
(0.000999909 -1.98226e-07 0)
(0.000999623 -1.67062e-07 0)
(0.000999523 -1.22176e-07 0)
(0.000999253 -1.99907e-07 0)
(0.001 -3.96076e-09 0)
(0.00100004 -1.06665e-08 0)
(0.00100012 -1.48275e-08 0)
(0.00100024 -1.6886e-08 0)
(0.00100039 -1.81086e-08 0)
(0.00100057 -2.27983e-08 0)
(0.00100076 -3.39392e-08 0)
(0.00100096 -5.45239e-08 0)
(0.00100113 -8.31056e-08 0)
(0.00100124 -1.22451e-07 0)
(0.00100129 -1.68549e-07 0)
(0.00100123 -2.30559e-07 0)
(0.00100109 -2.91501e-07 0)
(0.00100082 -3.43043e-07 0)
(0.00100054 -3.60845e-07 0)
(0.00100019 -3.67805e-07 0)
(0.000999953 -3.40948e-07 0)
(0.000999619 -3.52303e-07 0)
(0.000999528 -3.29128e-07 0)
(0.000999135 -4.11115e-07 0)
)
;

boundaryField
{
    sides
    {
        type            slip;
    }
    inlet
    {
        type            fixedValue;
        value           uniform (0.001 0 0);
    }
    outlet
    {
        type            zeroGradient;
    }
    frontAndBack
    {
        type            empty;
    }
}


// ************************************************************************* //
