/*--------------------------------*- C++ -*----------------------------------*\
  =========                 |
  \\      /  F ield         | OpenFOAM: The Open Source CFD Toolbox
   \\    /   O peration     | Website:  https://openfoam.org
    \\  /    A nd           | Version:  9
     \\/     M anipulation  |
\*---------------------------------------------------------------------------*/
FoamFile
{
    format      ascii;
    class       surfaceScalarField;
    location    "49";
    object      phi_0;
}
// * * * * * * * * * * * * * * * * * * * * * * * * * * * * * * * * * * * * * //

dimensions      [0 4 -1 0 0 0 0];

internalField   nonuniform List<scalar> 
760
(
5.0001e-06
-9.22811e-11
5.00041e-06
-2.9877e-10
5.00092e-06
-4.97794e-10
5.00162e-06
-6.90909e-10
5.00252e-06
-8.69871e-10
5.00355e-06
-1.00384e-09
5.00462e-06
-1.05317e-09
5.00563e-06
-9.95509e-10
5.00645e-06
-8.15267e-10
5.00698e-06
-5.23634e-10
5.00712e-06
-1.38698e-10
5.00673e-06
3.8387e-10
5.00587e-06
8.54569e-10
5.00475e-06
1.11071e-09
5.00357e-06
1.17115e-09
5.00262e-06
9.33668e-10
5.00191e-06
6.85227e-10
5.00166e-06
2.30716e-10
5.00152e-06
1.18978e-10
-3.85963e-10
5.00013e-06
-2.12754e-10
5.00046e-06
-6.19232e-10
5.00099e-06
-1.01653e-09
5.00173e-06
-1.41616e-09
5.00268e-06
-1.79931e-09
5.00379e-06
-2.10049e-09
5.00499e-06
-2.23989e-09
5.00617e-06
-2.15812e-09
5.00718e-06
-1.82112e-09
5.00783e-06
-1.16325e-09
5.00781e-06
-1.21763e-10
5.00733e-06
8.68051e-10
5.00634e-06
1.85111e-09
5.00501e-06
2.43293e-09
5.00373e-06
2.44954e-09
5.00282e-06
1.83497e-09
5.00229e-06
1.20396e-09
5.00195e-06
5.60417e-10
5.00168e-06
3.83018e-10
-1.311e-10
5.00011e-06
-3.19255e-10
5.00044e-06
-9.31528e-10
5.00097e-06
-1.53589e-09
5.00174e-06
-2.16902e-09
5.00275e-06
-2.80141e-09
5.00398e-06
-3.33414e-09
5.00538e-06
-3.61704e-09
5.00678e-06
-3.54678e-09
5.00798e-06
-3.01123e-09
5.00878e-06
-1.95308e-09
5.009e-06
-3.30523e-10
5.00833e-06
1.54712e-09
5.00694e-06
3.24302e-09
5.00521e-06
4.1649e-09
5.00355e-06
4.10041e-09
5.00236e-06
3.02405e-09
5.00173e-06
1.83351e-09
5.00153e-06
7.49786e-10
5.00147e-06
4.36193e-10
-2.02282e-10
5.0001e-06
-4.15416e-10
5.00042e-06
-1.23413e-09
5.00096e-06
-2.06322e-09
5.00177e-06
-2.96837e-09
5.00288e-06
-3.91544e-09
5.00433e-06
-4.77435e-09
5.00607e-06
-5.34141e-09
5.008e-06
-5.47404e-09
5.0099e-06
-4.88991e-09
5.01114e-06
-3.18244e-09
5.01126e-06
-4.62664e-10
5.01007e-06
2.75694e-09
5.00772e-06
5.58826e-09
5.0052e-06
6.67648e-09
5.00353e-06
5.77478e-09
5.00274e-06
3.79533e-09
5.00252e-06
2.05558e-09
5.00235e-06
9.21176e-10
5.00204e-06
7.50584e-10
3.675e-10
5.00009e-06
-4.9328e-10
5.00035e-06
-1.48933e-09
5.00085e-06
-2.55522e-09
5.00166e-06
-3.77282e-09
5.00288e-06
-5.1404e-09
5.00461e-06
-6.4906e-09
5.00684e-06
-7.56775e-09
5.00947e-06
-8.08996e-09
5.01244e-06
-7.86265e-09
5.01485e-06
-5.56709e-09
5.0149e-06
-5.07671e-10
5.01292e-06
4.72887e-09
5.00874e-06
9.77366e-09
5.00466e-06
1.07523e-08
5.0023e-06
8.12729e-09
5.0018e-06
4.2846e-09
5.0021e-06
1.74304e-09
5.00231e-06
7.12623e-10
5.00205e-06
1.00908e-09
6.63874e-10
5.00005e-06
-5.33079e-10
5.00021e-06
-1.64651e-09
5.00056e-06
-2.90033e-09
5.00123e-06
-4.44905e-09
5.00244e-06
-6.33876e-09
5.00456e-06
-8.60283e-09
5.00764e-06
-1.06468e-08
5.01172e-06
-1.21715e-08
5.0156e-06
-1.17132e-08
5.01907e-06
-9.06955e-09
5.02029e-06
-1.68344e-09
5.01609e-06
8.90681e-09
5.00957e-06
1.62707e-08
5.00429e-06
1.60437e-08
5.00224e-06
1.01679e-08
5.00255e-06
3.96294e-09
5.00332e-06
9.71508e-10
5.00344e-06
5.84252e-10
5.00285e-06
1.5983e-09
1.45776e-09
4.99998e-06
-5.13977e-10
4.99995e-06
-1.60993e-09
5.00005e-06
-3.00173e-09
5.00039e-06
-4.78467e-09
5.00125e-06
-7.19835e-09
5.00295e-06
-1.03017e-08
5.00684e-06
-1.45368e-08
5.01398e-06
-1.92946e-08
5.02382e-06
-2.15642e-08
5.03102e-06
-1.62409e-08
5.02878e-06
4.71568e-10
5.01682e-06
2.09443e-08
5.00425e-06
2.88186e-08
4.9988e-06
2.14775e-08
5.00065e-06
8.31459e-09
5.00291e-06
1.69459e-09
5.00377e-06
1.04761e-10
5.00371e-06
6.34427e-10
5.0031e-06
2.20695e-09
1.713e-09
4.99987e-06
-3.82649e-10
4.99956e-06
-1.304e-09
4.99914e-06
-2.58683e-09
4.99888e-06
-4.5247e-09
4.99936e-06
-7.67487e-09
5.00038e-06
-1.13283e-08
5.00368e-06
-1.78268e-08
5.00987e-06
-2.54894e-08
5.02494e-06
-3.66315e-08
5.05631e-06
-4.74586e-08
5.05006e-06
5.67002e-09
5.02322e-06
4.77483e-08
4.99825e-06
5.38215e-08
4.99358e-06
2.61527e-08
4.99955e-06
2.33844e-09
5.00415e-06
-2.90805e-09
5.00496e-06
-7.11401e-10
5.00377e-06
1.81697e-09
5.00357e-06
2.41009e-09
9.95854e-10
4.99977e-06
-1.5519e-10
4.99916e-06
-6.98653e-10
4.99794e-06
-1.36939e-09
4.99614e-06
-2.72819e-09
4.99405e-06
-5.58936e-09
4.99377e-06
-1.10478e-08
4.99948e-06
-2.35421e-08
5.01719e-06
-4.31808e-08
5.05579e-06
-7.52151e-08
5.0668e-06
-5.8594e-08
5.04986e-06
2.36945e-08
4.99659e-06
1.01052e-07
4.98937e-06
6.10059e-08
4.99598e-06
1.95378e-08
5.00027e-06
-1.95204e-09
5.003e-06
-5.6431e-09
5.00258e-06
-2.76522e-10
5.00189e-06
2.5043e-09
5.00261e-06
1.6943e-09
8.09233e-11
4.99986e-06
-1.83834e-11
4.99921e-06
-5.7281e-11
4.99793e-06
-9.45425e-11
4.99534e-06
-1.3962e-10
4.98992e-06
-1.83638e-10
4.9791e-06
-2.30793e-10
4.95585e-06
-2.7665e-10
4.91301e-06
-3.34353e-10
4.83821e-06
-3.89047e-10
4.78005e-06
-4.54242e-10
4.80439e-06
-5.56062e-10
4.90609e-06
-7.3509e-10
4.96786e-06
-7.47226e-10
4.98831e-06
-9.08891e-10
4.98753e-06
-1.18008e-09
4.98333e-06
-1.44735e-09
4.98461e-06
-1.56827e-09
4.98895e-06
-1.83424e-09
4.99254e-06
-1.88953e-09
-2.57026e-09
4.99986e-06
1.18763e-10
4.99921e-06
5.82305e-10
4.99793e-06
1.18382e-09
4.99533e-06
2.45468e-09
4.9899e-06
5.23469e-09
4.97907e-06
1.05973e-08
4.9558e-06
2.30038e-08
4.91296e-06
4.25287e-08
4.8381e-06
7.44444e-08
4.77984e-06
5.78622e-08
4.80431e-06
-2.52214e-08
4.90607e-06
-1.02453e-07
4.96785e-06
-6.25245e-08
4.98814e-06
-2.1226e-08
4.98743e-06
-4.81186e-10
4.983e-06
2.98331e-09
4.98448e-06
-3.04661e-09
4.98894e-06
-6.28715e-09
4.99241e-06
-5.36484e-09
-4.97586e-09
4.99977e-06
3.45941e-10
4.99916e-06
1.19103e-09
4.99794e-06
2.39687e-09
4.99613e-06
4.25579e-09
4.99405e-06
7.31798e-09
4.99376e-06
1.08888e-08
4.99946e-06
1.73071e-08
5.01713e-06
2.48646e-08
5.0557e-06
3.58816e-08
5.06717e-06
4.6353e-08
5.04969e-06
-7.52776e-09
4.99617e-06
-4.90867e-08
4.98892e-06
-5.52828e-08
4.99577e-06
-2.80919e-08
5.00018e-06
-4.90406e-09
5.00238e-06
7.83784e-10
5.00171e-06
-2.37258e-09
5.00095e-06
-5.53417e-09
5.00174e-06
-6.16055e-09
-5.95161e-09
4.99987e-06
4.77945e-10
4.99956e-06
1.50088e-09
4.99913e-06
2.81957e-09
4.99885e-06
4.52739e-09
4.9993e-06
6.87414e-09
5.00029e-06
9.90097e-09
5.00351e-06
1.40953e-08
5.00965e-06
1.87262e-08
5.02467e-06
2.08746e-08
5.05564e-06
1.54151e-08
5.04969e-06
-1.7769e-09
5.0229e-06
-2.21416e-08
4.99795e-06
-3.03391e-08
4.99324e-06
-2.33912e-08
4.99872e-06
-1.03818e-08
5.00352e-06
-4.02093e-09
5.00378e-06
-2.64342e-09
5.0024e-06
-4.15908e-09
5.00222e-06
-5.97956e-09
-6.54189e-09
4.99998e-06
4.99266e-10
4.99994e-06
1.54703e-09
5.00002e-06
2.73608e-09
5.00033e-06
4.21779e-09
5.00116e-06
6.04851e-09
5.00282e-06
8.24284e-09
5.00672e-06
1.02042e-08
5.01383e-06
1.16184e-08
5.02364e-06
1.10833e-08
5.03078e-06
8.26758e-09
5.02848e-06
6.74602e-10
5.01632e-06
-1.00149e-08
5.00358e-06
-1.75838e-08
4.99785e-06
-1.76641e-08
4.99949e-06
-1.2021e-08
5.00167e-06
-6.21245e-09
5.00245e-06
-3.42829e-09
5.00218e-06
-3.88607e-09
5.00125e-06
-5.04889e-09
-5.98719e-09
5.00005e-06
4.62836e-10
5.0002e-06
1.40305e-09
5.00052e-06
2.41444e-09
5.00117e-06
3.5709e-09
5.00235e-06
4.87619e-09
5.00443e-06
6.16653e-09
5.00746e-06
7.18017e-09
5.01144e-06
7.63167e-09
5.0152e-06
7.33781e-09
5.0186e-06
4.88835e-09
5.01964e-06
-3.68105e-10
5.01531e-06
-5.66788e-09
5.00862e-06
-1.08903e-08
5.00319e-06
-1.22313e-08
5.00095e-06
-9.78725e-09
5.00107e-06
-6.33907e-09
5.0016e-06
-3.96588e-09
5.00136e-06
-3.64416e-09
5.0004e-06
-4.08615e-09
-4.98811e-09
5.00009e-06
3.87877e-10
5.00034e-06
1.16148e-09
5.00081e-06
1.94831e-09
5.00158e-06
2.80261e-09
5.00277e-06
3.69459e-09
5.00444e-06
4.5014e-09
5.0066e-06
5.02958e-09
5.00915e-06
5.09373e-09
5.01209e-06
4.40137e-09
5.01448e-06
2.50645e-09
5.01421e-06
-9.48107e-11
5.01217e-06
-3.61459e-09
5.00784e-06
-6.56087e-09
5.00357e-06
-7.96153e-09
5.00099e-06
-7.22162e-09
5.00018e-06
-5.53977e-09
5.00015e-06
-3.93973e-09
4.99992e-06
-3.41068e-09
4.99921e-06
-3.37765e-09
-4.18298e-09
5.00011e-06
2.93667e-10
5.00041e-06
8.71145e-10
5.00092e-06
1.44551e-09
5.00168e-06
2.04251e-09
5.00276e-06
2.63561e-09
5.00416e-06
3.11593e-09
5.00584e-06
3.36135e-09
5.00768e-06
3.25875e-09
5.00939e-06
2.70572e-09
5.01033e-06
1.56805e-09
5.01052e-06
-2.75011e-10
5.00912e-06
-2.21389e-09
5.00658e-06
-4.02778e-09
5.00374e-06
-5.12422e-09
5.0016e-06
-5.0876e-09
5.00039e-06
-4.34294e-09
4.99975e-06
-3.30359e-09
4.99921e-06
-2.87624e-09
4.99849e-06
-2.65566e-09
-3.22485e-09
5.00011e-06
1.94932e-10
5.00042e-06
5.72527e-10
5.00094e-06
9.43315e-10
5.00167e-06
1.31935e-09
5.00263e-06
1.68299e-09
5.00382e-06
1.95472e-09
5.00515e-06
2.05318e-09
5.0065e-06
1.91883e-09
5.0077e-06
1.5222e-09
5.00845e-06
8.24414e-10
5.00829e-06
-1.04864e-10
5.00743e-06
-1.34715e-09
5.00579e-06
-2.39442e-09
5.00375e-06
-3.0976e-09
5.00185e-06
-3.18834e-09
5.00038e-06
-2.88986e-09
4.99936e-06
-2.2969e-09
4.99856e-06
-2.08607e-09
4.99776e-06
-1.85383e-09
-2.28454e-09
5.00009e-06
1.13378e-10
5.00038e-06
2.93422e-10
5.00087e-06
4.70753e-10
5.00156e-06
6.52359e-10
5.00243e-06
8.26293e-10
5.00345e-06
9.5207e-10
5.00454e-06
9.89395e-10
5.00556e-06
9.15382e-10
5.00638e-06
7.17695e-10
5.00686e-06
3.59704e-10
5.00689e-06
-1.32369e-10
5.00617e-06
-6.20964e-10
5.00487e-06
-1.09865e-09
5.00322e-06
-1.44403e-09
5.00153e-06
-1.51133e-09
5.00007e-06
-1.43552e-09
4.99893e-06
-1.17354e-09
4.99797e-06
-1.12945e-09
4.99709e-06
-9.85567e-10
-1.42773e-09
5.00012e-06
5.00042e-06
5.00092e-06
5.00159e-06
5.00244e-06
5.00341e-06
5.00442e-06
5.00535e-06
5.00608e-06
5.00645e-06
5.00633e-06
5.00571e-06
5.00462e-06
5.00317e-06
5.00165e-06
5.00022e-06
4.99903e-06
4.99789e-06
4.9969e-06
)
;

boundaryField
{
    sides
    {
        type            calculated;
        value           uniform 0;
    }
    inlet
    {
        type            calculated;
        value           nonuniform List<scalar> 
20
(
-5e-06
-5e-06
-5e-06
-5e-06
-5e-06
-5e-06
-5e-06
-5e-06
-5e-06
-5e-06
-5e-06
-5e-06
-5e-06
-5e-06
-5e-06
-5e-06
-5e-06
-5e-06
-5e-06
-5e-06
)
;
    }
    outlet
    {
        type            calculated;
        value           nonuniform List<scalar> 
20
(
5.0019e-06
5.00142e-06
5.00154e-06
5.00147e-06
5.00176e-06
5.00205e-06
5.00284e-06
5.00428e-06
5.00351e-06
4.9952e-06
4.99482e-06
5.00272e-06
5.00281e-06
5.00069e-06
4.9994e-06
4.99841e-06
4.99753e-06
4.99682e-06
4.99624e-06
4.99547e-06
)
;
    }
    frontAndBack
    {
        type            empty;
        value           nonuniform List<scalar> 0();
    }
}


// ************************************************************************* //
