/*--------------------------------*- C++ -*----------------------------------*\
  =========                 |
  \\      /  F ield         | OpenFOAM: The Open Source CFD Toolbox
   \\    /   O peration     | Website:  https://openfoam.org
    \\  /    A nd           | Version:  9
     \\/     M anipulation  |
\*---------------------------------------------------------------------------*/
FoamFile
{
    format      ascii;
    class       volVectorField;
    location    "49";
    object      U;
}
// * * * * * * * * * * * * * * * * * * * * * * * * * * * * * * * * * * * * * //

dimensions      [0 1 -1 0 0 0 0];

internalField   nonuniform List<vector> 
400
(
(0.0999961 -2.42313e-06 0)
(0.100001 -6.97105e-06 0)
(0.100009 -1.11335e-05 0)
(0.100023 -1.50425e-05 0)
(0.10004 -1.86651e-05 0)
(0.100062 -2.17261e-05 0)
(0.100085 -2.36831e-05 0)
(0.100108 -2.43484e-05 0)
(0.100129 -2.34232e-05 0)
(0.100145 -2.11135e-05 0)
(0.100154 -1.70985e-05 0)
(0.100154 -1.30356e-05 0)
(0.100142 -9.93513e-06 0)
(0.100122 -9.24316e-06 0)
(0.100094 -9.94954e-06 0)
(0.100069 -1.37173e-05 0)
(0.100046 -1.59388e-05 0)
(0.100035 -2.03521e-05 0)
(0.100026 -1.90221e-05 0)
(0.100033 -2.68776e-05 0)
(0.0999966 -2.67558e-06 0)
(0.100002 -7.69047e-06 0)
(0.100011 -1.23565e-05 0)
(0.100025 -1.68865e-05 0)
(0.100044 -2.11459e-05 0)
(0.100067 -2.41969e-05 0)
(0.100092 -2.46313e-05 0)
(0.100118 -2.1642e-05 0)
(0.100143 -1.49849e-05 0)
(0.100162 -4.70144e-06 0)
(0.100173 8.9737e-06 0)
(0.100171 2.43292e-05 0)
(0.100156 3.89729e-05 0)
(0.100131 4.7931e-05 0)
(0.100101 5.06025e-05 0)
(0.100072 4.48243e-05 0)
(0.100052 3.70857e-05 0)
(0.100038 2.52761e-05 0)
(0.100034 2.08546e-05 0)
(0.100029 8.37275e-06 0)
(0.0999965 -5.24992e-06 0)
(0.100002 -1.56095e-05 0)
(0.100011 -2.59886e-05 0)
(0.100025 -3.66373e-05 0)
(0.100045 -4.71943e-05 0)
(0.100069 -5.592e-05 0)
(0.100098 -6.04435e-05 0)
(0.100128 -5.91838e-05 0)
(0.100157 -5.10354e-05 0)
(0.100181 -3.50039e-05 0)
(0.100195 -1.14101e-05 0)
(0.100194 1.57511e-05 0)
(0.100176 4.02964e-05 0)
(0.100144 5.24962e-05 0)
(0.100104 5.01396e-05 0)
(0.100067 3.49029e-05 0)
(0.100039 1.93247e-05 0)
(0.100027 4.02255e-06 0)
(0.100022 2.09058e-08 0)
(0.10003 -1.13679e-05 0)
(0.099996 -7.28371e-06 0)
(0.100001 -2.17984e-05 0)
(0.10001 -3.66006e-05 0)
(0.100025 -5.2222e-05 0)
(0.100046 -6.80351e-05 0)
(0.100074 -8.15296e-05 0)
(0.100108 -8.89893e-05 0)
(0.100147 -8.77725e-05 0)
(0.100188 -7.45102e-05 0)
(0.100224 -4.71933e-05 0)
(0.100245 -2.95011e-06 0)
(0.100242 4.87758e-05 0)
(0.100212 9.38786e-05 0)
(0.100161 0.00011457 0)
(0.100106 0.000105692 0)
(0.100062 7.3644e-05 0)
(0.100042 4.11373e-05 0)
(0.100036 1.64051e-05 0)
(0.100041 1.08314e-05 0)
(0.100036 6.02488e-07 0)
(0.099995 -8.94358e-06 0)
(0.0999994 -2.72712e-05 0)
(0.100008 -4.67513e-05 0)
(0.100023 -6.85864e-05 0)
(0.100045 -9.21092e-05 0)
(0.100076 -0.000114513 0)
(0.100118 -0.00013 0)
(0.100169 -0.000132852 0)
(0.100227 -0.00011642 0)
(0.100283 -7.74867e-05 0)
(0.10032 -1.76268e-05 0)
(0.100318 5.723e-05 0)
(0.100269 0.000123269 0)
(0.100183 0.000151769 0)
(0.100092 0.000137718 0)
(0.10003 9.57338e-05 0)
(0.100011 5.67805e-05 0)
(0.10002 3.08573e-05 0)
(0.100037 2.717e-05 0)
(0.100044 1.75392e-05 0)
(0.0999936 -1.01316e-05 0)
(0.0999967 -3.12971e-05 0)
(0.100003 -5.52951e-05 0)
(0.100016 -8.37028e-05 0)
(0.100036 -0.000117323 0)
(0.10007 -0.000153134 0)
(0.100122 -0.000186106 0)
(0.100193 -0.000204598 0)
(0.100278 -0.000190008 0)
(0.100359 -0.00011974 0)
(0.100415 8.0411e-06 0)
(0.100417 0.000153743 0)
(0.100341 0.000243648 0)
(0.100209 0.000231186 0)
(0.100086 0.000143191 0)
(0.100016 4.84773e-05 0)
(0.100014 -6.24637e-08 0)
(0.100036 -9.28803e-06 0)
(0.100065 6.61766e-06 0)
(0.100056 5.6152e-06 0)
(0.0999921 -1.00688e-05 0)
(0.0999925 -3.28525e-05 0)
(0.0999948 -5.93837e-05 0)
(0.100001 -9.55176e-05 0)
(0.100016 -0.000139302 0)
(0.100047 -0.000195268 0)
(0.100104 -0.000249185 0)
(0.100203 -0.000307802 0)
(0.100351 -0.000322602 0)
(0.100521 -0.000287812 0)
(0.100634 -6.75322e-05 0)
(0.100592 0.000255301 0)
(0.100384 0.000482924 0)
(0.100119 0.000474101 0)
(0.0999492 0.000302878 0)
(0.0999233 0.000125551 0)
(0.0999939 4.17443e-05 0)
(0.100057 3.19822e-05 0)
(0.100096 5.69212e-05 0)
(0.100068 5.40817e-05 0)
(0.0999902 -9.11442e-06 0)
(0.099987 -2.84996e-05 0)
(0.0999805 -5.70887e-05 0)
(0.0999772 -9.51637e-05 0)
(0.0999779 -0.000157851 0)
(0.100002 -0.000235081 0)
(0.100047 -0.000340485 0)
(0.10016 -0.000411954 0)
(0.100336 -0.000436654 0)
(0.100661 -0.000254992 0)
(0.101008 7.46515e-05 0)
(0.101015 0.000426198 0)
(0.100607 0.000472039 0)
(0.100073 0.000278389 0)
(0.0997835 7.34238e-05 0)
(0.0997984 -2.82582e-05 0)
(0.0999685 -2.97891e-05 0)
(0.10009 -1.62837e-06 0)
(0.100139 2.16505e-05 0)
(0.100088 1.07902e-05 0)
(0.0999891 -4.84008e-06 0)
(0.0999802 -2.01637e-05 0)
(0.0999627 -3.83124e-05 0)
(0.099938 -7.32498e-05 0)
(0.099911 -0.000134021 0)
(0.0999022 -0.000248614 0)
(0.099957 -0.000468947 0)
(0.100145 -0.000806579 0)
(0.100538 -0.00132863 0)
(0.101063 -0.00149271 0)
(0.101324 0.000384051 0)
(0.100998 0.00187417 0)
(0.100243 0.00157846 0)
(0.0997214 0.000574077 0)
(0.099646 -3.17049e-05 0)
(0.0998235 -0.000126875 0)
(0.100026 -1.03545e-05 0)
(0.100108 6.29503e-05 0)
(0.100114 6.55087e-05 0)
(0.100057 2.48871e-05 0)
(0.09997 -1.9633e-06 0)
(0.100005 -6.64482e-06 0)
(0.0999076 -1.51317e-05 0)
(0.0999719 -2.49627e-05 0)
(0.0997262 -5.94878e-05 0)
(0.0998443 -0.000113461 0)
(0.0992767 -0.000288438 0)
(0.0996756 -0.000558773 0)
(0.0991195 -0.0011535 0)
(0.102005 -0.0014149 0)
(0.106282 3.05682e-05 0)
(0.101269 0.00146762 0)
(0.0990092 0.00130714 0)
(0.098224 0.000513069 0)
(0.098857 1.9187e-05 0)
(0.0996066 -7.85403e-05 0)
(0.0999364 -1.16112e-05 0)
(0.0999532 2.45875e-05 0)
(0.0998681 1.76528e-05 0)
(0.0998503 -1.80469e-05 0)
(0.0999706 1.23352e-06 0)
(0.100006 4.37459e-06 0)
(0.0999082 1.13791e-05 0)
(0.0999724 1.95546e-05 0)
(0.0997266 5.25955e-05 0)
(0.0998444 0.000104958 0)
(0.0992765 0.000278362 0)
(0.0996752 0.000546857 0)
(0.0991182 0.00113931 0)
(0.102003 0.00139781 0)
(0.106278 -5.33482e-05 0)
(0.101267 -0.00149423 0)
(0.0990093 -0.0013397 0)
(0.0982239 -0.000552934 0)
(0.0988555 -6.52319e-05 0)
(0.0996031 2.44275e-05 0)
(0.0999323 -4.73153e-05 0)
(0.0999488 -0.00010031 0)
(0.0998669 -9.88931e-05 0)
(0.0998456 -8.86569e-05 0)
(0.0999912 4.10272e-06 0)
(0.0999822 1.79334e-05 0)
(0.0999646 3.46253e-05 0)
(0.0999398 6.79961e-05 0)
(0.0999128 0.000127279 0)
(0.0999041 0.000240145 0)
(0.0999585 0.000458783 0)
(0.100147 0.000793885 0)
(0.100538 0.0013133 0)
(0.101064 0.0014734 0)
(0.101326 -0.00040539 0)
(0.100998 -0.00190193 0)
(0.100237 -0.00161007 0)
(0.0997136 -0.000612741 0)
(0.0996402 -9.03915e-06 0)
(0.0998189 7.72521e-05 0)
(0.100016 -4.25136e-05 0)
(0.100093 -0.000130382 0)
(0.100094 -0.000138136 0)
(0.100039 -0.000124999 0)
(0.0999935 8.39197e-06 0)
(0.0999904 2.63473e-05 0)
(0.0999837 5.34662e-05 0)
(0.0999799 9.00573e-05 0)
(0.0999803 0.000150991 0)
(0.100003 0.000226294 0)
(0.100048 0.000329327 0)
(0.100159 0.000398475 0)
(0.100334 0.00042043 0)
(0.100657 0.000236506 0)
(0.101002 -9.6256e-05 0)
(0.101008 -0.000453577 0)
(0.100602 -0.000502437 0)
(0.100069 -0.000313724 0)
(0.0997768 -0.000113765 0)
(0.0997862 -2.52558e-05 0)
(0.0999523 -3.1728e-05 0)
(0.100067 -7.39054e-05 0)
(0.100112 -9.71677e-05 0)
(0.100058 -0.000107471 0)
(0.0999968 9.38701e-06 0)
(0.0999972 3.07766e-05 0)
(0.0999991 5.59261e-05 0)
(0.100005 9.06138e-05 0)
(0.100019 0.000132995 0)
(0.100049 0.000187331 0)
(0.100105 0.000239884 0)
(0.100204 0.000296834 0)
(0.100352 0.000310426 0)
(0.100521 0.000273298 0)
(0.100633 5.04837e-05 0)
(0.100588 -0.000274857 0)
(0.100377 -0.000508013 0)
(0.100106 -0.000507984 0)
(0.099932 -0.000345666 0)
(0.0999004 -0.000179356 0)
(0.0999694 -0.000101252 0)
(0.100027 -0.000105563 0)
(0.100066 -0.000131322 0)
(0.100026 -0.000151746 0)
(0.0999997 9.51775e-06 0)
(0.100003 2.94458e-05 0)
(0.100009 5.22302e-05 0)
(0.100021 7.9327e-05 0)
(0.100041 0.000111728 0)
(0.100074 0.000146175 0)
(0.100125 0.000177754 0)
(0.100194 0.000194282 0)
(0.100277 0.000177388 0)
(0.100355 0.000103459 0)
(0.100409 -2.70549e-05 0)
(0.100407 -0.000177503 0)
(0.100328 -0.000271434 0)
(0.100192 -0.000264184 0)
(0.100066 -0.000178551 0)
(0.0999906 -8.93405e-05 0)
(0.0999848 -4.17301e-05 0)
(0.0999993 -4.43134e-05 0)
(0.100025 -6.22518e-05 0)
(0.100003 -8.5094e-05 0)
(0.100002 8.38165e-06 0)
(0.100007 2.56616e-05 0)
(0.100015 4.41331e-05 0)
(0.100029 6.48995e-05 0)
(0.10005 8.7295e-05 0)
(0.100081 0.000108613 0)
(0.100121 0.000122851 0)
(0.100171 0.000124409 0)
(0.100226 0.00010647 0)
(0.100281 6.56806e-05 0)
(0.100316 2.67236e-06 0)
(0.10031 -7.61932e-05 0)
(0.100258 -0.000145064 0)
(0.100168 -0.000178187 0)
(0.100074 -0.000167342 0)
(0.100005 -0.000134548 0)
(0.0999804 -0.000101873 0)
(0.0999778 -9.31954e-05 0)
(0.0999903 -9.517e-05 0)
(0.0999782 -0.000111103 0)
(0.100005 6.77398e-06 0)
(0.10001 2.03351e-05 0)
(0.100019 3.42557e-05 0)
(0.100033 4.89983e-05 0)
(0.100053 6.39381e-05 0)
(0.100079 7.666e-05 0)
(0.100112 8.35843e-05 0)
(0.100149 8.17418e-05 0)
(0.100188 6.82486e-05 0)
(0.100219 4.05616e-05 0)
(0.100237 -3.97291e-06 0)
(0.10023 -5.6888e-05 0)
(0.100198 -0.000103682 0)
(0.10014 -0.000128915 0)
(0.100079 -0.000123508 0)
(0.100024 -9.91762e-05 0)
(0.0999963 -6.91976e-05 0)
(0.0999774 -5.52144e-05 0)
(0.0999777 -4.93096e-05 0)
(0.0999575 -6.0076e-05 0)
(0.100007 4.96797e-06 0)
(0.100012 1.44803e-05 0)
(0.100021 2.37094e-05 0)
(0.100034 3.29312e-05 0)
(0.100053 4.17952e-05 0)
(0.100077 4.8404e-05 0)
(0.100104 5.0683e-05 0)
(0.100133 4.65908e-05 0)
(0.100161 3.53657e-05 0)
(0.100183 1.54992e-05 0)
(0.100195 -1.10358e-05 0)
(0.100188 -4.15791e-05 0)
(0.100165 -6.83179e-05 0)
(0.100124 -8.48662e-05 0)
(0.100079 -8.5441e-05 0)
(0.100033 -7.68717e-05 0)
(0.100002 -6.30279e-05 0)
(0.0999738 -5.93212e-05 0)
(0.0999657 -5.66218e-05 0)
(0.09994 -6.86844e-05 0)
(0.100008 3.45576e-06 0)
(0.100013 1.01749e-05 0)
(0.100021 1.68244e-05 0)
(0.100034 2.35418e-05 0)
(0.100051 2.99837e-05 0)
(0.100072 3.50372e-05 0)
(0.100095 3.74343e-05 0)
(0.100118 3.64262e-05 0)
(0.10014 3.15079e-05 0)
(0.100155 2.23562e-05 0)
(0.100162 8.94246e-06 0)
(0.100157 -6.69358e-06 0)
(0.100139 -2.06571e-05 0)
(0.100107 -3.01084e-05 0)
(0.10007 -3.15282e-05 0)
(0.100028 -2.80959e-05 0)
(0.0999983 -1.9824e-05 0)
(0.099967 -1.6707e-05 0)
(0.0999549 -1.22179e-05 0)
(0.0999262 -1.99909e-05 0)
(0.10001 -3.96113e-07 0)
(0.100014 -1.06676e-06 0)
(0.100023 -1.48292e-06 0)
(0.100036 -1.6888e-06 0)
(0.100053 -1.81111e-06 0)
(0.100073 -2.2802e-06 0)
(0.100095 -3.39455e-06 0)
(0.100116 -5.45353e-06 0)
(0.100136 -8.31246e-06 0)
(0.100149 -1.22481e-05 0)
(0.100154 -1.68591e-05 0)
(0.100148 -2.30615e-05 0)
(0.100131 -2.91566e-05 0)
(0.100102 -3.43111e-05 0)
(0.100071 -3.60904e-05 0)
(0.100032 -3.67852e-05 0)
(0.100005 -3.4098e-05 0)
(0.0999681 -3.52325e-05 0)
(0.0999564 -3.2914e-05 0)
(0.0999148 -4.1112e-05 0)
)
;

boundaryField
{
    sides
    {
        type            calculated;
        value           nonuniform List<vector> 
40
(
(0.10001 0 0)
(0.100014 0 0)
(0.100023 0 0)
(0.100036 0 0)
(0.100053 0 0)
(0.100073 0 0)
(0.100095 0 0)
(0.100116 0 0)
(0.100136 0 0)
(0.100149 0 0)
(0.100154 0 0)
(0.100148 0 0)
(0.100131 0 0)
(0.100102 0 0)
(0.100071 0 0)
(0.100032 0 0)
(0.100005 0 0)
(0.0999681 0 0)
(0.0999564 0 0)
(0.0999148 0 0)
(0.0999961 0 0)
(0.100001 0 0)
(0.100009 0 0)
(0.100023 0 0)
(0.10004 0 0)
(0.100062 0 0)
(0.100085 0 0)
(0.100108 0 0)
(0.100129 0 0)
(0.100145 0 0)
(0.100154 0 0)
(0.100154 0 0)
(0.100142 0 0)
(0.100122 0 0)
(0.100094 0 0)
(0.100069 0 0)
(0.100046 0 0)
(0.100035 0 0)
(0.100026 0 0)
(0.100033 0 0)
)
;
    }
    inlet
    {
        type            calculated;
        value           nonuniform List<vector> 
20
(
(0.0999959 0 0)
(0.0999964 0 0)
(0.0999963 0 0)
(0.0999958 0 0)
(0.0999948 0 0)
(0.0999936 0 0)
(0.0999921 0 0)
(0.0999907 0 0)
(0.0999897 0 0)
(0.0999897 0 0)
(0.0999903 0 0)
(0.0999917 0 0)
(0.099994 0 0)
(0.0999968 0 0)
(0.0999996 0 0)
(0.100002 0 0)
(0.100005 0 0)
(0.100007 0 0)
(0.100008 0 0)
(0.100009 0 0)
)
;
    }
    outlet
    {
        type            calculated;
        value           nonuniform List<vector> 
20
(
(0.100033 -2.68778e-05 0)
(0.100029 8.37274e-06 0)
(0.10003 -1.13679e-05 0)
(0.100035 6.02485e-07 0)
(0.100044 1.75392e-05 0)
(0.100055 5.61515e-06 0)
(0.100067 5.4081e-05 0)
(0.100086 1.07901e-05 0)
(0.100056 2.48868e-05 0)
(0.0998518 -1.80472e-05 0)
(0.0998468 -8.8658e-05 0)
(0.100038 -0.000124998 0)
(0.100056 -0.000107469 0)
(0.100025 -0.000151744 0)
(0.100001 -8.5093e-05 0)
(0.0999775 -0.000111102 0)
(0.0999566 -6.00755e-05 0)
(0.0999392 -6.86838e-05 0)
(0.0999253 -1.99907e-05 0)
(0.0999135 -4.11115e-05 0)
)
;
    }
    frontAndBack
    {
        type            empty;
    }
}


// ************************************************************************* //
