/*--------------------------------*- C++ -*----------------------------------*\
  =========                 |
  \\      /  F ield         | OpenFOAM: The Open Source CFD Toolbox
   \\    /   O peration     | Website:  https://openfoam.org
    \\  /    A nd           | Version:  9
     \\/     M anipulation  |
\*---------------------------------------------------------------------------*/
FoamFile
{
    format      ascii;
    class       surfaceScalarField;
    location    "7";
    object      ddtCorrDdt0(phi);
}
// * * * * * * * * * * * * * * * * * * * * * * * * * * * * * * * * * * * * * //

dimensions      [0 4 -2 0 0 0 0];

internalField   nonuniform List<scalar> 
760
(
1.21382e-08
-1.08305e-09
7.74526e-09
-1.22677e-08
-1.21183e-08
-1.02568e-08
-1.82975e-08
-3.14858e-09
-1.83361e-08
2.07886e-09
-1.9678e-08
1.49523e-09
-5.89106e-09
1.90349e-09
1.60848e-08
2.68186e-09
2.22791e-08
1.80035e-09
2.15826e-08
-9.07038e-11
8.80921e-09
-1.46208e-09
-2.40628e-08
-3.77136e-09
-3.23577e-08
-1.50788e-09
-1.28185e-08
1.77204e-09
6.76497e-09
2.55715e-09
8.07089e-09
3.95804e-09
-1.50552e-08
4.00612e-09
-2.36465e-08
5.62292e-09
-1.14351e-08
6.64629e-09
1.63545e-09
9.41364e-09
-2.08652e-09
5.72587e-09
-2.37385e-08
-1.12749e-08
-1.41506e-08
-1.70908e-08
-6.67547e-09
-1.85548e-08
3.68826e-09
-1.83878e-08
3.90391e-09
-5.51268e-09
2.4203e-09
1.38969e-08
3.15795e-09
2.06336e-08
5.17551e-10
2.10571e-08
1.71231e-10
7.80755e-09
-1.88705e-09
-2.04701e-08
-6.87898e-09
-2.75214e-08
-2.54928e-09
-9.97567e-09
2.82811e-09
1.05028e-08
5.47613e-09
1.00966e-08
6.35651e-09
-1.11439e-08
5.12796e-09
-2.02803e-08
8.06257e-09
-1.19117e-08
8.86893e-09
3.26923e-09
3.82113e-09
-1.83725e-09
1.83706e-09
-2.65577e-08
-6.63281e-09
-2.43817e-08
-1.4557e-08
-1.01091e-08
-1.65775e-08
5.74221e-09
-1.63126e-08
3.38404e-09
-4.48887e-09
-6.02364e-10
9.29556e-09
7.94221e-11
1.87145e-08
1.73773e-10
1.94603e-08
-2.16228e-09
4.51793e-09
-4.93188e-09
-1.4588e-08
-7.84745e-09
-2.04142e-08
-3.43598e-09
-5.59625e-09
4.10211e-09
1.3826e-08
5.07481e-09
1.18387e-08
1.75389e-09
-5.82902e-09
-3.94249e-10
-1.70299e-08
3.7245e-09
-1.33693e-08
7.98992e-09
4.06087e-09
-6.45448e-10
-1.23986e-09
-3.01379e-09
-2.63709e-08
-3.69576e-09
-2.74304e-08
-7.59725e-09
-5.69666e-09
-1.51249e-08
4.94088e-09
-1.49577e-08
7.81707e-10
-3.87068e-09
-5.84867e-09
5.63275e-09
-5.15977e-09
1.48231e-08
-4.12261e-09
1.68415e-08
-4.16285e-09
2.64471e-09
-5.67902e-09
-9.35659e-09
-7.40312e-09
-1.19382e-08
-2.47291e-09
-2.22724e-09
3.26403e-09
1.29608e-08
4.73555e-09
1.3703e-08
1.29491e-09
2.65816e-09
-2.4993e-09
-7.34202e-09
1.09503e-09
-1.05035e-08
4.66987e-09
2.83803e-09
-3.87177e-09
-7.0615e-10
-6.50106e-09
-2.2352e-08
2.38626e-10
-2.32539e-08
-1.19023e-09
-6.43296e-09
-1.25866e-08
3.40551e-09
-1.3418e-08
-1.97377e-09
-2.59495e-09
-9.17537e-09
2.58599e-09
-9.29848e-09
1.1763e-08
-6.16321e-09
1.52107e-08
-4.8509e-09
1.70307e-09
-8.3489e-09
-4.26289e-09
-6.9184e-09
-6.11703e-09
-3.16456e-09
5.57895e-10
2.54043e-09
1.26851e-08
3.69243e-09
1.35708e-08
-3.07762e-09
1.02992e-08
-9.91946e-09
-5.35097e-10
-1.06063e-08
-7.90534e-09
-3.53909e-09
6.08874e-11
-4.90476e-09
-5.26384e-10
-7.54976e-09
-1.63523e-08
3.55175e-09
-1.58265e-08
3.37559e-09
-3.89703e-09
-8.56612e-09
1.49657e-09
-1.03772e-08
-4.45565e-09
-1.85301e-09
-1.13652e-08
7.88426e-10
-1.18638e-08
8.53144e-09
-7.33045e-09
9.82198e-09
-4.45789e-09
3.54142e-09
-6.25399e-09
1.46081e-09
-5.89882e-09
-2.24372e-10
-3.72566e-09
1.71917e-09
2.00209e-09
6.96678e-09
4.49583e-09
8.57806e-09
-3.46383e-09
1.18415e-08
-1.28572e-08
8.62772e-09
-1.63122e-08
-1.41149e-09
-9.99816e-09
-2.50301e-09
-2.81485e-09
-2.11587e-09
-5.31875e-09
-1.05423e-08
4.84637e-09
-9.08748e-09
6.19714e-09
-1.42932e-09
-4.48576e-09
-5.69502e-10
-7.28329e-09
-6.0748e-09
-1.34736e-09
-1.16548e-08
1.58714e-10
-1.16575e-08
7.46864e-09
-6.58435e-09
7.9167e-09
-2.0929e-09
3.78336e-09
-2.37471e-09
3.99175e-09
-4.5476e-09
4.31991e-09
-3.14441e-09
4.05885e-09
2.80019e-09
5.86984e-10
4.24802e-09
1.53638e-09
-8.92104e-10
1.03948e-08
-1.12455e-08
1.45531e-08
-1.80392e-08
5.16446e-09
-1.3178e-08
-4.56559e-09
2.46193e-09
-2.52587e-09
-1.12992e-09
-5.8311e-09
5.10418e-09
-3.65732e-09
6.29917e-09
-7.16922e-10
-1.2121e-09
-2.41719e-09
-4.23402e-09
-6.4142e-09
-1.06043e-09
-8.66451e-09
2.10081e-10
-8.95819e-09
7.44592e-09
-4.1996e-09
8.25968e-09
-1.22753e-09
1.71069e-09
2.00889e-08
4.36998e-09
-4.55752e-09
8.1523e-09
-1.97641e-09
4.75985e-09
3.32082e-09
-3.46132e-09
9.70872e-09
-9.65588e-09
-5.44786e-10
6.11625e-09
-8.98074e-09
1.70671e-08
-1.49115e-08
1.03074e-08
-9.59139e-09
-4.42179e-10
8.44225e-09
-1.94647e-09
3.38056e-09
-3.04018e-09
3.55194e-09
-1.72925e-09
5.28106e-09
-1.88832e-11
1.56134e-09
-2.31102e-09
-1.55676e-09
-4.46237e-09
-6.34354e-11
-4.94889e-09
2.39915e-09
-5.49528e-09
7.57272e-09
-2.51597e-09
6.6239e-09
6.39554e-10
1.63394e-09
-2.37627e-10
8.31582e-09
-4.43818e-09
1.18905e-08
-9.15778e-10
5.2164e-09
4.38308e-09
-6.92813e-09
7.16188e-09
-1.63442e-08
-1.76571e-09
-2.12134e-09
-9.42861e-09
1.4465e-08
-7.9291e-09
1.1123e-08
-1.80741e-09
-7.3452e-10
1.24613e-08
-1.16559e-10
6.36341e-09
-7.84161e-11
2.98728e-09
-6.39303e-10
4.3668e-09
-4.71223e-10
1.65164e-09
-6.52169e-10
4.74618e-10
-8.82594e-10
2.237e-09
-9.47018e-10
3.1557e-09
-5.27711e-10
4.60158e-09
-3.13383e-10
4.88018e-09
-1.80198e-10
2.07659e-09
-9.25498e-11
8.23408e-09
5.38775e-10
1.1745e-08
3.77623e-10
8.27322e-09
7.59413e-10
-4.06497e-09
1.31251e-09
-2.045e-08
1.50544e-09
-1.536e-08
-9.80262e-11
4.20335e-09
1.06811e-09
1.59665e-08
2.30027e-09
1.63453e-10
1.27395e-08
2.0191e-09
6.07774e-09
2.21125e-09
3.37554e-09
2.53782e-10
4.39491e-09
-1.05766e-09
1.56008e-09
7.66664e-10
3.73582e-10
2.68904e-09
2.43394e-09
3.23924e-09
3.11439e-09
4.39429e-09
4.50993e-09
2.0604e-09
4.8212e-09
-6.01648e-10
2.6464e-09
2.22409e-10
8.13049e-09
5.36945e-09
1.20581e-08
2.11842e-09
9.20149e-09
-3.78984e-09
-3.74463e-09
-8.4181e-09
-2.1414e-08
7.3802e-10
-1.35819e-08
8.47691e-09
5.27027e-09
7.34694e-09
1.33095e-08
2.06966e-10
-3.64156e-11
8.26098e-09
2.66576e-09
3.30385e-09
5.53838e-09
4.20621e-09
2.86156e-09
5.71512e-09
-7.22355e-10
1.39305e-09
6.10369e-10
-1.54705e-09
4.7549e-09
4.26687e-10
7.39855e-09
2.21903e-09
7.97365e-09
7.21371e-09
4.0429e-09
5.98156e-09
1.88825e-09
2.73626e-09
-1.07576e-08
8.90983e-09
4.87387e-09
1.27255e-08
2.85712e-09
6.22599e-09
-3.00729e-09
-7.43076e-09
-6.33258e-09
-1.73154e-08
-1.85648e-10
-6.57732e-10
1.03982e-08
1.4995e-08
1.32625e-08
1.09054e-08
7.56373e-09
2.32667e-09
2.26647e-09
2.08521e-09
-1.03861e-09
1.04182e-08
5.54008e-09
8.42499e-09
6.71294e-09
3.38229e-10
-1.1796e-09
-6.53691e-10
-3.87692e-09
4.62723e-09
-5.88749e-10
1.05347e-08
2.55809e-10
1.08044e-08
7.39745e-09
6.4025e-09
7.49263e-09
3.01668e-09
1.97205e-09
5.60519e-09
5.53198e-09
4.95298e-09
8.85795e-09
2.57352e-09
3.90381e-09
-1.9155e-09
-3.956e-09
-4.88915e-09
-8.09242e-09
1.65836e-09
3.86345e-09
1.03845e-08
1.56393e-08
1.86062e-08
9.96745e-09
1.31207e-08
4.18245e-09
-2.62464e-09
5.38967e-10
-5.00994e-09
1.61854e-08
4.97987e-09
1.56035e-08
6.06525e-09
3.62268e-09
-4.21155e-09
-2.11741e-09
-6.58334e-09
3.32057e-09
-8.86636e-10
1.06273e-08
2.36944e-10
1.12418e-08
7.76768e-09
7.0299e-09
8.95587e-09
4.73679e-09
2.46309e-09
6.50615e-09
4.11079e-09
6.91941e-09
5.87293e-09
3.44881e-09
2.34157e-09
-3.52573e-09
1.36291e-09
-3.84588e-09
9.66866e-10
2.6856e-09
1.05239e-08
1.24741e-08
1.37422e-08
1.62484e-08
4.97505e-09
9.67119e-09
2.21255e-09
-4.56475e-09
6.83235e-10
-6.89568e-09
2.22427e-08
4.05097e-09
2.30531e-08
3.72127e-09
5.90092e-09
-8.53593e-09
-4.7377e-09
-9.49783e-09
7.19086e-10
-1.7554e-09
8.26868e-09
6.35119e-10
8.53983e-09
8.87002e-09
5.61461e-09
1.07433e-08
5.25477e-09
2.7021e-09
4.49767e-09
1.12712e-09
7.92566e-09
4.54634e-10
4.46148e-09
1.80784e-09
-3.27193e-09
6.32447e-09
-4.89699e-09
8.83791e-09
2.54132e-09
1.3153e-08
8.08093e-09
7.76838e-09
7.70911e-09
-1.56212e-09
2.9449e-09
-1.89701e-10
-3.4374e-09
1.04151e-09
-5.60577e-09
2.67669e-08
8.54707e-10
2.73582e-08
-1.32226e-09
4.96483e-09
-1.23452e-08
-6.56551e-09
-1.21425e-08
-1.97352e-09
-2.36333e-09
3.82248e-09
2.51772e-09
3.35429e-09
1.20231e-08
3.15432e-09
1.51673e-08
3.56138e-09
1.39774e-09
5.40554e-09
-4.2223e-09
7.79756e-09
-6.47841e-09
3.38282e-09
8.42018e-10
-3.184e-09
1.30632e-08
-4.74319e-09
1.1808e-08
1.27171e-11
9.37095e-09
5.88592e-09
1.06228e-09
2.63178e-09
-6.92556e-09
-2.63385e-09
-1.74776e-09
2.89586e-10
1.83041e-09
-2.29639e-09
2.67317e-08
-4.05525e-09
2.43028e-08
-6.96518e-09
9.98053e-09
-1.38354e-08
-5.92257e-09
-1.40791e-08
-3.78533e-09
-3.5578e-09
5.5681e-10
5.6815e-09
-1.6632e-10
1.56191e-08
5.56328e-10
1.64817e-08
5.76175e-10
3.08292e-09
4.54901e-09
-8.86406e-09
8.145e-09
-1.30454e-08
3.30927e-09
-1.8004e-09
-2.96604e-09
1.51004e-08
-4.34081e-09
1.40184e-08
-3.77684e-09
2.42416e-09
-1.91346e-09
-7.63544e-09
-5.23364e-09
-1.10062e-08
-8.43434e-09
-3.96392e-09
5.00324e-09
2.20984e-09
2.05949e-09
2.12451e-08
-6.4309e-09
1.44326e-08
-1.34448e-08
6.68291e-09
-1.61785e-08
-3.37691e-09
-1.5745e-08
-3.21596e-09
-4.6718e-09
-3.79574e-09
9.09236e-09
-4.73201e-09
1.74488e-08
-3.11798e-09
1.95996e-08
6.80579e-10
5.03759e-09
2.60089e-09
-1.47854e-08
6.5069e-09
-2.01229e-08
2.72463e-09
-4.96246e-09
-2.498e-09
1.30914e-08
-5.10557e-09
1.23883e-08
-4.3891e-09
-4.9292e-09
-3.91052e-09
-1.50933e-08
-7.37952e-09
-1.3148e-08
-1.06192e-08
-5.12725e-09
8.6583e-09
1.07621e-09
6.06447e-09
1.46534e-08
-8.99882e-09
6.83964e-09
-1.59561e-08
4.57336e-09
-1.71556e-08
-2.15425e-09
-1.88564e-08
-2.98524e-09
-4.89218e-09
-2.60121e-09
1.34142e-08
-3.14054e-09
2.13358e-08
-6.15064e-10
2.07049e-08
-1.64275e-09
7.48286e-09
6.02686e-10
-2.02389e-08
3.45759e-09
-2.71507e-08
1.06699e-09
-9.70131e-09
-1.44794e-09
1.04883e-08
-2.95015e-09
9.45429e-09
-4.62507e-09
-1.16672e-08
-3.60725e-09
-2.18306e-08
-5.40467e-09
-1.2865e-08
-6.03198e-09
-2.78919e-09
1.24694e-08
8.09737e-09
-1.17287e-08
-1.75242e-08
-1.86415e-08
-2.01067e-08
-5.40011e-09
1.7055e-08
2.16292e-08
2.21215e-08
9.12343e-09
-2.39494e-08
-3.12055e-08
-1.31146e-08
7.31459e-09
9.21533e-09
-1.49145e-08
-2.42373e-08
-1.23578e-08
)
;

boundaryField
{
    sides
    {
        type            calculated;
        value           uniform 0;
    }
    inlet
    {
        type            calculated;
        value           uniform 0;
    }
    outlet
    {
        type            calculated;
        value           nonuniform List<scalar> 
20
(
-5.52232e-09
-7.90001e-09
-8.14179e-09
-7.54447e-09
-6.81077e-09
-3.59955e-09
7.56304e-10
4.84582e-09
8.23254e-09
1.5464e-08
1.41917e-08
6.4407e-09
5.48539e-09
1.38819e-09
-2.59978e-09
-5.62211e-09
-9.33048e-09
-1.0401e-08
-7.4607e-09
-5.82242e-09
)
;
    }
    frontAndBack
    {
        type            empty;
        value           nonuniform List<scalar> 0();
    }
}


// ************************************************************************* //
