/*--------------------------------*- C++ -*----------------------------------*\
  =========                 |
  \\      /  F ield         | OpenFOAM: The Open Source CFD Toolbox
   \\    /   O peration     | Website:  https://openfoam.org
    \\  /    A nd           | Version:  9
     \\/     M anipulation  |
\*---------------------------------------------------------------------------*/
FoamFile
{
    format      ascii;
    class       volVectorField;
    location    "7";
    object      ddtCorrDdt0(hU);
}
// * * * * * * * * * * * * * * * * * * * * * * * * * * * * * * * * * * * * * //

dimensions      [0 2 -2 0 0 0 0];

internalField   nonuniform List<vector> 
400
(
(2.73329e-06 -1.25489e-07 0)
(1.10823e-06 -1.27078e-06 0)
(7.34608e-08 -1.16511e-06 0)
(-2.13026e-06 -3.633e-07 0)
(-4.30235e-06 1.52137e-07 0)
(-4.17758e-06 9.31726e-08 0)
(-2.21999e-06 1.23605e-07 0)
(8.05263e-07 2.29549e-07 0)
(3.4867e-06 1.56904e-07 0)
(4.22808e-06 4.98353e-08 0)
(2.79403e-06 -7.92305e-08 0)
(-9.77552e-07 -3.2105e-07 0)
(-4.60765e-06 -1.0853e-07 0)
(-4.23044e-06 2.16634e-07 0)
(-1.11942e-06 2.96055e-07 0)
(5.81893e-07 4.27534e-07 0)
(-7.15678e-07 3.91474e-07 0)
(-3.60583e-06 5.66086e-07 0)
(-3.85519e-06 6.84694e-07 0)
(-1.26439e-06 3.08232e-07 0)
(2.39586e-06 -3.23421e-07 0)
(7.75423e-07 -3.64664e-06 0)
(-2.13755e-07 -3.55135e-06 0)
(-2.04165e-06 -1.03761e-06 0)
(-4.11205e-06 4.46858e-07 0)
(-4.03136e-06 4.22597e-07 0)
(-2.15742e-06 3.45807e-07 0)
(6.71206e-07 5.7706e-07 0)
(3.17275e-06 2.60325e-07 0)
(3.99101e-06 9.50774e-08 0)
(2.67387e-06 -2.34771e-07 0)
(-7.33808e-07 -9.48358e-07 0)
(-3.87101e-06 -3.08707e-07 0)
(-3.43204e-06 5.69121e-07 0)
(-4.29795e-07 9.13676e-07 0)
(1.24248e-06 1.12214e-06 0)
(-1.97855e-07 9.99076e-07 0)
(-2.88541e-06 1.48217e-06 0)
(-3.41034e-06 1.68693e-06 0)
(-1.70025e-06 7.14241e-07 0)
(1.72008e-06 -3.718e-07 0)
(2.06208e-08 -5.06983e-06 0)
(-1.84444e-07 -5.17755e-06 0)
(-1.76507e-06 -1.65884e-06 0)
(-3.47178e-06 7.76885e-07 0)
(-3.54388e-06 6.01398e-07 0)
(-1.98427e-06 9.68161e-08 0)
(4.76401e-07 3.17161e-07 0)
(2.58104e-06 6.90427e-08 0)
(3.54024e-06 -1.32404e-07 0)
(2.27489e-06 -6.1674e-07 0)
(-5.25462e-07 -1.39582e-06 0)
(-2.71264e-06 -5.40464e-07 0)
(-2.21412e-06 7.51695e-07 0)
(3.13187e-07 1.12358e-06 0)
(1.88638e-06 8.23579e-07 0)
(4.5631e-07 5.52929e-07 0)
(-2.0386e-06 1.28046e-06 0)
(-3.07913e-06 1.86813e-06 0)
(-2.0406e-06 8.0927e-07 0)
(9.60995e-07 -2.86603e-07 0)
(-5.66639e-07 -5.35517e-06 0)
(-5.59168e-07 -5.59348e-06 0)
(-1.07809e-06 -1.8424e-06 0)
(-2.53223e-06 9.61778e-07 0)
(-3.1276e-06 3.21677e-07 0)
(-1.86768e-06 -7.25166e-07 0)
(1.51343e-07 -5.4841e-07 0)
(2.03215e-06 -4.42627e-07 0)
(2.81503e-06 -5.96418e-07 0)
(1.87939e-06 -1.00718e-06 0)
(-2.8203e-07 -1.48189e-06 0)
(-1.50127e-06 -5.90738e-07 0)
(-1.0693e-06 7.30081e-07 0)
(7.64977e-07 1.05141e-06 0)
(1.93472e-06 4.39512e-07 0)
(1.52173e-06 -9.75767e-08 0)
(-2.23876e-07 6.48404e-07 0)
(-1.57821e-06 1.45802e-06 0)
(-1.9583e-06 7.74881e-07 0)
(1.85546e-07 -1.71659e-07 0)
(-8.6893e-07 -4.92008e-06 0)
(-6.5752e-07 -5.17292e-06 0)
(-3.21977e-07 -1.49481e-06 0)
(-1.56577e-06 8.36557e-07 0)
(-2.51163e-06 -1.45778e-07 0)
(-1.65007e-06 -1.52699e-06 0)
(-4.03054e-08 -1.46039e-06 0)
(1.48353e-06 -1.02581e-06 0)
(2.35977e-06 -9.47552e-07 0)
(1.66852e-06 -1.52885e-06 0)
(6.92644e-08 -1.61721e-06 0)
(-6.17667e-07 -6.37337e-07 0)
(-2.06389e-07 5.35877e-07 0)
(9.87036e-07 8.30018e-07 0)
(2.07844e-06 -1.59212e-07 0)
(2.33678e-06 -1.23285e-06 0)
(1.29451e-06 -8.53751e-07 0)
(-6.5544e-07 2.29131e-07 0)
(-1.75963e-06 3.48485e-07 0)
(-5.06273e-07 -1.06815e-07 0)
(-8.5974e-07 -3.91432e-06 0)
(-3.9833e-07 -3.97849e-06 0)
(2.27129e-07 -1.02669e-06 0)
(-6.1034e-07 5.52952e-07 0)
(-1.60993e-06 -6.05132e-07 0)
(-1.28075e-06 -2.05459e-06 0)
(-2.15821e-07 -2.1645e-06 0)
(9.83871e-07 -1.41294e-06 0)
(1.53991e-06 -9.54807e-07 0)
(1.24439e-06 -1.51522e-06 0)
(8.44232e-07 -1.54029e-06 0)
(4.78696e-07 -7.65791e-07 0)
(3.59374e-07 3.62273e-07 0)
(5.172e-07 7.06218e-07 0)
(1.29717e-06 -7.07579e-07 0)
(2.04903e-06 -2.31547e-06 0)
(2.25628e-06 -2.72295e-06 0)
(9.08975e-07 -1.40974e-06 0)
(-8.32908e-07 -2.7668e-07 0)
(-9.62998e-07 -2.52058e-07 0)
(-3.57205e-07 -2.72985e-06 0)
(6.38214e-08 -2.52322e-06 0)
(6.02258e-07 -4.81989e-07 0)
(1.38413e-07 2.5228e-07 0)
(-7.38926e-07 -9.78035e-07 0)
(-9.48837e-07 -2.25314e-06 0)
(-3.16046e-07 -2.39081e-06 0)
(7.4471e-07 -1.49775e-06 0)
(1.35978e-06 -7.33908e-07 0)
(1.02319e-06 -6.4122e-07 0)
(1.149e-06 -9.74907e-07 0)
(1.1931e-06 -7.14971e-07 0)
(7.2873e-07 3.69117e-07 0)
(1.09337e-07 7.61127e-07 0)
(2.51064e-07 -4.15644e-07 0)
(1.53773e-06 -2.58263e-06 0)
(2.47031e-06 -3.46123e-06 0)
(1.88677e-06 -2.38717e-06 0)
(4.21667e-07 -7.14388e-07 0)
(-1.20662e-06 -4.47894e-07 0)
(5.77025e-07 -1.65371e-06 0)
(6.58135e-07 -1.25525e-06 0)
(7.62637e-07 -1.29474e-07 0)
(5.07654e-07 -1.07447e-07 0)
(-6.18864e-08 -1.16043e-06 0)
(-5.75345e-07 -2.11657e-06 0)
(-3.69815e-07 -2.17612e-06 0)
(6.53816e-07 -1.12786e-06 0)
(1.40672e-06 -3.44262e-07 0)
(9.54142e-07 -4.48932e-07 0)
(9.72476e-07 -8.77072e-07 0)
(1.49681e-06 -4.19239e-07 0)
(1.04045e-06 4.84548e-07 0)
(-2.09845e-07 7.272e-07 0)
(-9.64244e-07 -5.51231e-08 0)
(1.62828e-07 -2.10189e-06 0)
(2.16265e-06 -3.30413e-06 0)
(2.32291e-06 -2.5962e-06 0)
(1.54579e-06 -1.04713e-06 0)
(-1.21857e-06 -4.32284e-07 0)
(1.54241e-06 -9.08457e-07 0)
(1.06051e-06 -4.75723e-07 0)
(6.91507e-07 4.84371e-08 0)
(7.98793e-07 -3.98134e-07 0)
(4.06088e-07 -1.09669e-06 0)
(-2.67428e-07 -1.41047e-06 0)
(-6.93929e-08 -1.51494e-06 0)
(8.71336e-07 -7.5141e-07 0)
(1.20872e-06 8.02949e-08 0)
(9.24365e-07 -2.23747e-07 0)
(1.30727e-06 -1.03181e-06 0)
(2.17393e-06 -3.80933e-07 0)
(1.34701e-06 1.0303e-06 0)
(-4.81397e-07 1.24499e-06 0)
(-1.79741e-06 -1.58703e-07 0)
(-1.0738e-06 -2.01482e-06 0)
(8.9394e-07 -2.54699e-06 0)
(1.81849e-06 -1.40626e-06 0)
(2.25189e-06 -4.5443e-07 0)
(-1.16652e-06 -2.02331e-07 0)
(2.21203e-06 -3.41828e-07 0)
(1.27649e-06 -1.84788e-07 0)
(7.36984e-07 2.58318e-08 0)
(8.50395e-07 -3.03185e-07 0)
(4.16464e-07 -5.82186e-07 0)
(1.69399e-07 -5.40839e-07 0)
(4.43897e-07 -5.79556e-07 0)
(5.26053e-07 -3.57229e-07 0)
(5.76787e-07 1.24375e-07 0)
(1.22877e-06 6.6742e-08 0)
(1.53005e-06 -5.44252e-07 0)
(1.63542e-06 -1.09548e-07 0)
(1.38947e-06 1.06819e-06 0)
(5.09239e-07 9.4151e-07 0)
(-1.34616e-06 -3.97292e-07 0)
(-3.03501e-06 -1.42572e-06 0)
(-2.26845e-06 -6.34285e-07 0)
(1.37776e-06 6.256e-07 0)
(3.93712e-06 1.74377e-07 0)
(-1.13208e-06 1.94931e-07 0)
(2.19858e-06 2.40481e-07 0)
(1.29308e-06 -5.47924e-08 0)
(7.72479e-07 -2.38154e-07 0)
(8.54862e-07 6.07516e-08 0)
(3.9369e-07 2.63396e-07 0)
(1.70956e-07 2.11965e-07 0)
(4.60679e-07 3.82538e-07 0)
(5.15716e-07 2.62186e-07 0)
(5.72027e-07 -1.66654e-07 0)
(1.28138e-06 -1.05004e-07 0)
(1.5462e-06 7.15469e-07 0)
(1.68514e-06 3.30252e-07 0)
(1.47224e-06 -7.8534e-07 0)
(7.02061e-07 -5.81626e-07 0)
(-1.50811e-06 6.22382e-07 0)
(-2.85182e-06 1.37266e-06 0)
(-1.97411e-06 7.95021e-07 0)
(1.16123e-06 -3.3886e-07 0)
(3.55431e-06 -1.40149e-07 0)
(-1.22932e-06 4.61948e-07 0)
(1.5047e-06 7.94136e-07 0)
(1.10582e-06 3.01137e-07 0)
(8.06361e-07 -3.09503e-07 0)
(8.29712e-07 1.07866e-07 0)
(3.89258e-07 7.8322e-07 0)
(-2.18018e-07 1.13547e-06 0)
(-3.65108e-08 1.31841e-06 0)
(8.16817e-07 6.76567e-07 0)
(1.10936e-06 -1.52565e-08 0)
(1.00936e-06 3.17207e-07 0)
(1.40953e-06 1.1189e-06 0)
(2.33192e-06 5.91342e-07 0)
(1.50841e-06 -8.60113e-07 0)
(-4.18231e-07 -1.3118e-06 0)
(-1.84885e-06 -6.99832e-09 0)
(-1.10823e-06 2.09576e-06 0)
(1.11534e-06 2.33013e-06 0)
(1.86621e-06 1.00515e-06 0)
(2.03139e-06 2.80532e-07 0)
(-1.22476e-06 4.57946e-07 0)
(5.68243e-07 1.61188e-06 0)
(6.88134e-07 1.13918e-06 0)
(8.58626e-07 -1.22841e-07 0)
(5.57316e-07 -2.42419e-07 0)
(-2.4721e-08 8.21191e-07 0)
(-5.02221e-07 1.84107e-06 0)
(-3.14226e-07 1.97005e-06 0)
(6.50355e-07 1.08512e-06 0)
(1.36801e-06 4.95165e-07 0)
(8.7389e-07 8.54752e-07 0)
(1.10578e-06 1.03065e-06 0)
(1.61839e-06 4.51764e-07 0)
(1.09205e-06 -4.18346e-07 0)
(-3.58287e-07 -9.45271e-07 0)
(-7.82972e-07 -5.59326e-08 0)
(1.02964e-07 2.01431e-06 0)
(1.70282e-06 3.13703e-06 0)
(2.13148e-06 2.3553e-06 0)
(1.61773e-06 8.37135e-07 0)
(-9.90453e-07 2.49521e-07 0)
(-2.84692e-07 2.70102e-06 0)
(1.01856e-07 2.44395e-06 0)
(5.89143e-07 3.22906e-07 0)
(1.62043e-07 -4.82761e-07 0)
(-6.39901e-07 7.08927e-07 0)
(-8.50187e-07 2.06408e-06 0)
(-2.48038e-07 2.25027e-06 0)
(7.88059e-07 1.47082e-06 0)
(1.45004e-06 8.68851e-07 0)
(1.03331e-06 9.82078e-07 0)
(1.08472e-06 1.15811e-06 0)
(1.26959e-06 6.54149e-07 0)
(6.8807e-07 -4.78772e-07 0)
(1.38102e-07 -7.99249e-07 0)
(2.00188e-07 3.87831e-07 0)
(1.49406e-06 2.38753e-06 0)
(2.43145e-06 3.45851e-06 0)
(1.77337e-06 2.34648e-06 0)
(4.60661e-07 6.48174e-07 0)
(-5.01052e-07 1.0915e-07 0)
(-7.84591e-07 3.88857e-06 0)
(-2.87791e-07 3.92309e-06 0)
(3.49557e-07 9.21304e-07 0)
(-5.72093e-07 -7.46101e-07 0)
(-1.5274e-06 3.64367e-07 0)
(-1.21539e-06 1.87398e-06 0)
(-2.05332e-07 2.01001e-06 0)
(1.00871e-06 1.34203e-06 0)
(1.60832e-06 1.01836e-06 0)
(1.30255e-06 1.579e-06 0)
(7.71682e-07 1.70656e-06 0)
(4.99888e-07 8.61207e-07 0)
(3.81425e-07 -5.59538e-07 0)
(5.32795e-07 -7.73942e-07 0)
(1.11198e-06 5.68849e-07 0)
(2.34754e-06 2.07535e-06 0)
(2.32827e-06 2.42437e-06 0)
(7.34913e-07 1.33981e-06 0)
(-7.33694e-07 2.40819e-07 0)
(1.78527e-07 1.48365e-07 0)
(-7.71441e-07 4.9428e-06 0)
(-4.9616e-07 5.13721e-06 0)
(-2.39997e-07 1.26576e-06 0)
(-1.53044e-06 -1.13617e-06 0)
(-2.41534e-06 -9.21679e-08 0)
(-1.49923e-06 1.25154e-06 0)
(4.48071e-10 1.22058e-06 0)
(1.48941e-06 8.81997e-07 0)
(2.36323e-06 9.38071e-07 0)
(1.62012e-06 1.47808e-06 0)
(8.83008e-08 1.75329e-06 0)
(-6.6668e-07 8.42648e-07 0)
(-2.0009e-07 -5.80145e-07 0)
(1.06014e-06 -9.01267e-07 0)
(1.94685e-06 2.82687e-07 0)
(2.05297e-06 1.37176e-06 0)
(1.30522e-06 9.23081e-07 0)
(-3.2835e-07 -7.41307e-08 0)
(-1.56486e-06 -2.51106e-07 0)
(9.7442e-07 2.63659e-07 0)
(-4.38087e-07 5.41006e-06 0)
(-5.07371e-07 5.50242e-06 0)
(-1.00761e-06 1.5884e-06 0)
(-2.34907e-06 -1.15086e-06 0)
(-2.9048e-06 -4.95329e-07 0)
(-1.77046e-06 5.03079e-07 0)
(2.06166e-07 3.40949e-07 0)
(2.08356e-06 3.08612e-07 0)
(2.86248e-06 3.99241e-07 0)
(1.87674e-06 8.90526e-07 0)
(-1.62604e-07 1.52386e-06 0)
(-1.56716e-06 6.48419e-07 0)
(-1.11097e-06 -6.1624e-07 0)
(9.49254e-07 -9.40073e-07 0)
(2.29992e-06 -4.44124e-07 0)
(1.42959e-06 2.8516e-07 0)
(-2.436e-07 -3.84602e-07 0)
(-1.66467e-06 -1.21355e-06 0)
(-2.18351e-06 -6.31494e-07 0)
(1.7343e-06 3.93063e-07 0)
(1.40236e-07 4.89816e-06 0)
(-1.06223e-07 4.85839e-06 0)
(-1.56792e-06 1.57752e-06 0)
(-3.36873e-06 -7.69392e-07 0)
(-3.47952e-06 -5.7466e-07 0)
(-1.88476e-06 -2.31718e-07 0)
(3.55861e-07 -4.38636e-07 0)
(2.46239e-06 -2.19837e-07 0)
(3.45125e-06 5.56161e-08 0)
(2.33947e-06 6.39076e-07 0)
(-5.55708e-07 1.38905e-06 0)
(-2.65511e-06 5.19176e-07 0)
(-2.13552e-06 -6.21968e-07 0)
(3.53273e-07 -1.01128e-06 0)
(1.83929e-06 -8.83981e-07 0)
(5.64047e-07 -6.49874e-07 0)
(-1.7463e-06 -1.34876e-06 0)
(-2.78525e-06 -2.02238e-06 0)
(-2.29955e-06 -9.94056e-07 0)
(2.26734e-06 3.31379e-07 0)
(7.37709e-07 3.60771e-06 0)
(1.46401e-07 3.54958e-06 0)
(-1.81997e-06 1.08209e-06 0)
(-3.85009e-06 -4.3026e-07 0)
(-3.90345e-06 -5.09373e-07 0)
(-2.14668e-06 -5.68091e-07 0)
(7.20174e-07 -7.64512e-07 0)
(3.18163e-06 -3.49364e-07 0)
(3.97984e-06 -1.38545e-07 0)
(2.60383e-06 2.34285e-07 0)
(-7.38453e-07 9.16878e-07 0)
(-3.79305e-06 3.02819e-07 0)
(-3.34359e-06 -4.8159e-07 0)
(-4.16206e-07 -8.95518e-07 0)
(1.16711e-06 -9.86468e-07 0)
(-3.27487e-07 -8.27705e-07 0)
(-3.07036e-06 -1.36696e-06 0)
(-3.68413e-06 -1.76762e-06 0)
(-1.73981e-06 -8.3723e-07 0)
(2.75233e-06 1.12001e-07 0)
(1.17213e-06 1.42373e-06 0)
(1.2977e-07 1.39433e-06 0)
(-1.99973e-06 4.12245e-07 0)
(-4.286e-06 -1.56636e-07 0)
(-4.20582e-06 -2.70036e-07 0)
(-2.21888e-06 -2.70923e-07 0)
(9.20281e-07 -3.5301e-07 0)
(3.52618e-06 -1.15678e-07 0)
(4.24528e-06 -1.60721e-07 0)
(2.8308e-06 2.26556e-08 0)
(-8.95618e-07 2.89177e-07 0)
(-4.49362e-06 4.07551e-08 0)
(-4.1523e-06 -2.34731e-07 0)
(-1.10868e-06 -4.13527e-07 0)
(7.83991e-07 -5.55578e-07 0)
(-5.72187e-07 -4.35366e-07 0)
(-3.66179e-06 -6.1805e-07 0)
(-4.01937e-06 -6.77217e-07 0)
(-1.3881e-06 -3.14713e-07 0)
)
;

boundaryField
{
    sides
    {
        type            calculated;
        value           nonuniform List<vector> 
40
(
(2.75233e-06 0 0)
(1.17213e-06 0 0)
(1.2977e-07 0 0)
(-1.99973e-06 0 0)
(-4.286e-06 0 0)
(-4.20582e-06 0 0)
(-2.21888e-06 0 0)
(9.20281e-07 0 0)
(3.52618e-06 0 0)
(4.24528e-06 0 0)
(2.8308e-06 0 0)
(-8.95618e-07 0 0)
(-4.49362e-06 0 0)
(-4.1523e-06 0 0)
(-1.10868e-06 0 0)
(7.83991e-07 0 0)
(-5.72187e-07 0 0)
(-3.66179e-06 0 0)
(-4.01937e-06 0 0)
(-1.3881e-06 0 0)
(2.73329e-06 0 0)
(1.10823e-06 0 0)
(7.34608e-08 0 0)
(-2.13026e-06 0 0)
(-4.30235e-06 0 0)
(-4.17758e-06 0 0)
(-2.21999e-06 0 0)
(8.05263e-07 0 0)
(3.4867e-06 0 0)
(4.22808e-06 0 0)
(2.79403e-06 0 0)
(-9.77552e-07 0 0)
(-4.60765e-06 0 0)
(-4.23044e-06 0 0)
(-1.11942e-06 0 0)
(5.81893e-07 0 0)
(-7.15678e-07 0 0)
(-3.60583e-06 0 0)
(-3.85519e-06 0 0)
(-1.26439e-06 0 0)
)
;
    }
    inlet
    {
        type            calculated;
        value           uniform (0 0 0);
    }
    outlet
    {
        type            calculated;
        value           nonuniform List<vector> 
20
(
(-1.26439e-06 3.08232e-07 0)
(-1.70025e-06 7.14241e-07 0)
(-2.0406e-06 8.0927e-07 0)
(-1.9583e-06 7.74881e-07 0)
(-1.75963e-06 3.48485e-07 0)
(-8.32908e-07 -2.7668e-07 0)
(4.21667e-07 -7.14388e-07 0)
(1.54579e-06 -1.04713e-06 0)
(2.25189e-06 -4.5443e-07 0)
(3.93712e-06 1.74377e-07 0)
(3.55431e-06 -1.40149e-07 0)
(2.03139e-06 2.80532e-07 0)
(1.61773e-06 8.37135e-07 0)
(4.60661e-07 6.48174e-07 0)
(-7.33694e-07 2.40819e-07 0)
(-1.56486e-06 -2.51106e-07 0)
(-2.18351e-06 -6.31494e-07 0)
(-2.29955e-06 -9.94056e-07 0)
(-1.73981e-06 -8.3723e-07 0)
(-1.3881e-06 -3.14713e-07 0)
)
;
    }
    frontAndBack
    {
        type            empty;
    }
}


// ************************************************************************* //
