/*--------------------------------*- C++ -*----------------------------------*\
  =========                 |
  \\      /  F ield         | OpenFOAM: The Open Source CFD Toolbox
   \\    /   O peration     | Website:  https://openfoam.org
    \\  /    A nd           | Version:  9
     \\/     M anipulation  |
\*---------------------------------------------------------------------------*/
FoamFile
{
    format      ascii;
    class       volScalarField;
    location    "7";
    object      h;
}
// * * * * * * * * * * * * * * * * * * * * * * * * * * * * * * * * * * * * * //

dimensions      [0 1 0 0 0 0 0];

internalField   nonuniform List<scalar> 
400
(
0.0099964
0.00999567
0.0099963
0.00999825
0.00999916
0.00999995
0.0100007
0.00999924
0.009996
0.00999292
0.00999115
0.00999299
0.009998
0.0100017
0.0100016
0.0099987
0.00999686
0.00999711
0.00999792
0.00999921
0.00999701
0.00999636
0.00999659
0.00999811
0.00999879
0.00999938
0.00999992
0.00999859
0.00999571
0.00999285
0.00999129
0.0099932
0.00999791
0.0100015
0.0100014
0.00999862
0.00999675
0.00999697
0.0099979
0.00999916
0.0099982
0.00999784
0.00999786
0.00999808
0.00999837
0.00999863
0.00999889
0.00999793
0.00999555
0.00999288
0.00999166
0.00999362
0.00999781
0.0100011
0.010001
0.00999854
0.00999676
0.00999693
0.00999803
0.0099993
0.00999955
0.00999958
0.00999925
0.00999849
0.00999804
0.00999807
0.00999811
0.00999729
0.00999555
0.00999309
0.00999209
0.00999386
0.00999741
0.0100004
0.0100007
0.00999868
0.00999735
0.00999747
0.00999855
0.00999958
0.0100009
0.0100013
0.0100008
0.00999929
0.00999826
0.00999823
0.00999806
0.00999726
0.00999583
0.00999345
0.00999237
0.00999379
0.00999667
0.00999949
0.0100002
0.00999924
0.00999853
0.00999858
0.00999916
0.00999982
0.010002
0.0100026
0.0100022
0.0100003
0.0099992
0.0099992
0.00999877
0.0099977
0.00999619
0.00999384
0.00999264
0.00999366
0.00999593
0.00999847
0.00999975
0.0100001
0.00999997
0.00999988
0.00999992
0.01
0.0100028
0.0100033
0.0100032
0.0100017
0.0100007
0.0100008
0.0100001
0.00999861
0.00999634
0.00999323
0.00999146
0.00999264
0.00999558
0.00999859
0.0100005
0.0100016
0.0100021
0.0100015
0.0100006
0.0100002
0.0100034
0.0100036
0.0100038
0.0100031
0.0100026
0.0100028
0.010002
0.0100002
0.00999732
0.00999275
0.0099883
0.00998859
0.00999301
0.00999832
0.0100017
0.0100035
0.0100042
0.0100029
0.0100009
0.0100002
0.0100039
0.0100035
0.0100041
0.0100045
0.0100047
0.010005
0.010004
0.0100012
0.00999595
0.00998876
0.00998543
0.00998858
0.00999634
0.0100011
0.0100023
0.0100031
0.0100042
0.0100032
0.010001
0.0100002
0.0100042
0.0100034
0.0100042
0.0100054
0.0100064
0.0100078
0.010009
0.01001
0.0100056
0.00897768
0.00895108
0.00997472
0.0100069
0.0100148
0.0100079
0.010003
0.010003
0.0100032
0.0100017
0.0100003
0.0100042
0.0100034
0.0100042
0.0100054
0.0100064
0.0100078
0.010009
0.0100099
0.0100055
0.0089777
0.0089511
0.00997463
0.0100068
0.0100146
0.0100078
0.010003
0.0100031
0.0100032
0.0100015
0.0100002
0.0100039
0.0100035
0.0100041
0.0100044
0.0100046
0.0100048
0.0100039
0.010001
0.0099958
0.00998864
0.0099853
0.00998831
0.00999606
0.0100008
0.010002
0.010003
0.0100041
0.0100032
0.010001
0.0100001
0.0100035
0.0100036
0.0100038
0.010003
0.0100025
0.0100026
0.0100018
0.00999997
0.00999708
0.00999255
0.00998809
0.00998829
0.00999254
0.0099979
0.0100014
0.0100034
0.0100039
0.0100027
0.0100009
0.0100001
0.0100028
0.0100033
0.0100031
0.0100015
0.0100005
0.0100006
0.00999979
0.00999821
0.00999592
0.00999273
0.00999099
0.00999226
0.00999507
0.00999808
0.0100003
0.0100013
0.010002
0.0100014
0.0100005
0.0100002
0.0100019
0.0100025
0.010002
0.0100001
0.00999895
0.00999885
0.00999826
0.00999717
0.00999564
0.00999321
0.00999212
0.00999327
0.00999552
0.009998
0.00999939
0.00999965
0.00999991
0.00999984
0.00999986
0.01
0.0100008
0.0100011
0.0100005
0.00999901
0.00999798
0.00999779
0.00999749
0.00999665
0.00999513
0.00999268
0.00999159
0.00999318
0.00999611
0.00999902
0.00999979
0.00999886
0.00999826
0.0099984
0.00999914
0.00999984
0.00999935
0.00999924
0.0099989
0.00999825
0.00999774
0.00999763
0.00999753
0.00999665
0.00999483
0.00999233
0.00999132
0.00999311
0.00999671
0.00999981
0.0100001
0.00999823
0.00999683
0.00999711
0.00999829
0.00999948
0.00999789
0.00999746
0.00999751
0.00999776
0.00999784
0.00999796
0.00999817
0.00999704
0.0099947
0.00999204
0.00999077
0.00999265
0.00999694
0.0100003
0.0100003
0.00999789
0.00999617
0.00999649
0.00999775
0.00999915
0.00999664
0.00999608
0.00999637
0.00999751
0.00999812
0.00999868
0.00999921
0.00999786
0.00999489
0.00999191
0.00999031
0.00999222
0.00999696
0.0100005
0.0100005
0.00999774
0.00999595
0.00999635
0.00999751
0.00999906
0.00999586
0.00999506
0.00999552
0.00999743
0.00999824
0.00999908
0.00999984
0.00999825
0.00999496
0.00999189
0.00999001
0.00999187
0.00999684
0.0100005
0.0100005
0.00999772
0.00999597
0.00999635
0.00999739
0.009999
)
;

boundaryField
{
    sides
    {
        type            zeroGradient;
    }
    inlet
    {
        type            zeroGradient;
    }
    outlet
    {
        type            fixedValue;
        value           uniform 0.01;
    }
    frontAndBack
    {
        type            empty;
    }
}


// ************************************************************************* //
