/*--------------------------------*- C++ -*----------------------------------*\
  =========                 |
  \\      /  F ield         | OpenFOAM: The Open Source CFD Toolbox
   \\    /   O peration     | Website:  https://openfoam.org
    \\  /    A nd           | Version:  9
     \\/     M anipulation  |
\*---------------------------------------------------------------------------*/
FoamFile
{
    format      ascii;
    class       volVectorField;
    location    "86";
    object      ddt0(hU);
}
// * * * * * * * * * * * * * * * * * * * * * * * * * * * * * * * * * * * * * //

dimensions      [0 2 -2 0 0 0 0];

internalField   nonuniform List<vector> 
400
(
(3.94539e-09 1.45812e-09 0)
(5.49066e-09 6.75582e-10 0)
(2.39633e-09 -1.87149e-09 0)
(-5.3114e-12 -2.67679e-09 0)
(9.82269e-11 -6.49044e-11 0)
(-9.2977e-10 3.45108e-10 0)
(-1.55918e-09 7.80831e-10 0)
(-2.96143e-09 1.77257e-09 0)
(8.41392e-10 2.14764e-09 0)
(1.30476e-09 8.98498e-10 0)
(1.80768e-10 2.21744e-09 0)
(3.9464e-10 -4.25378e-10 0)
(-2.50269e-09 1.00284e-09 0)
(5.0531e-10 -3.0588e-10 0)
(-2.19738e-09 -1.53399e-09 0)
(-4.95322e-09 -1.69722e-10 0)
(-1.21046e-09 9.96642e-10 0)
(1.95723e-09 6.14815e-10 0)
(-2.19183e-09 -1.33779e-09 0)
(-5.92317e-09 1.41348e-10 0)
(1.19753e-09 5.22716e-09 0)
(3.675e-09 1.34052e-09 0)
(1.31186e-09 -5.00107e-09 0)
(1.13288e-09 -5.04989e-09 0)
(1.27985e-09 5.07706e-11 0)
(7.04435e-10 -7.52163e-10 0)
(-1.42424e-09 2.67256e-09 0)
(-2.58232e-10 3.00826e-09 0)
(-1.08718e-09 5.13622e-09 0)
(3.04121e-09 1.07549e-09 0)
(-3.00893e-10 2.05962e-09 0)
(-7.11749e-10 6.43567e-10 0)
(-2.60302e-10 5.80302e-10 0)
(-2.25187e-09 2.65955e-10 0)
(-3.79343e-10 -2.86568e-09 0)
(-1.94524e-09 -7.55753e-10 0)
(-1.77266e-09 3.03631e-09 0)
(1.39287e-09 3.95755e-09 0)
(2.96916e-09 1.44146e-09 0)
(-4.27397e-10 6.77145e-12 0)
(-3.03962e-09 6.66095e-09 0)
(-1.21541e-09 6.98067e-10 0)
(-3.41194e-10 -4.50045e-09 0)
(2.17069e-09 -2.37986e-09 0)
(2.54313e-09 -1.91773e-09 0)
(2.28209e-09 -1.70834e-09 0)
(2.89118e-11 2.50353e-09 0)
(1.17019e-09 2.95035e-09 0)
(-6.9542e-10 2.50652e-09 0)
(-1.14719e-09 3.36492e-09 0)
(2.62335e-09 -3.26872e-09 0)
(-2.38199e-09 1.74552e-09 0)
(1.26619e-09 4.02351e-10 0)
(-1.04411e-09 -7.7001e-10 0)
(-6.64528e-10 -1.31303e-09 0)
(2.50726e-09 -2.51851e-10 0)
(1.59897e-09 3.94344e-09 0)
(2.38278e-09 5.54559e-09 0)
(3.15522e-09 2.49487e-09 0)
(-5.77407e-10 -6.29954e-10 0)
(-5.26506e-09 3.35881e-09 0)
(-4.87158e-09 -1.03713e-10 0)
(-1.52734e-09 -4.08381e-10 0)
(1.2112e-09 4.91139e-10 0)
(2.89026e-09 -3.0393e-09 0)
(2.23493e-09 -5.64073e-10 0)
(3.50827e-09 6.63212e-11 0)
(-9.65827e-10 3.71615e-10 0)
(2.71754e-09 1.75452e-10 0)
(-3.6469e-09 -1.96073e-09 0)
(-3.9417e-09 5.68603e-09 0)
(7.02061e-09 -6.903e-09 0)
(-2.59257e-09 1.02358e-09 0)
(6.43069e-10 4.15187e-10 0)
(2.55064e-09 -8.84949e-10 0)
(3.88831e-09 7.28007e-10 0)
(3.88724e-09 3.21379e-09 0)
(1.91236e-09 2.58289e-09 0)
(2.27907e-09 -1.94779e-09 0)
(1.49642e-09 -1.84522e-09 0)
(-4.10465e-09 -7.71429e-10 0)
(-5.44688e-09 -1.33873e-10 0)
(-2.39098e-09 2.13331e-09 0)
(2.59944e-11 1.3858e-09 0)
(1.06562e-09 -4.2739e-10 0)
(3.24075e-09 4.22473e-10 0)
(1.58127e-09 -1.85928e-09 0)
(3.9192e-09 -4.75781e-09 0)
(-7.54323e-09 2.00765e-09 0)
(1.27413e-08 -1.17091e-08 0)
(-9.87673e-09 4.63411e-09 0)
(-6.84146e-09 3.77525e-09 0)
(1.43824e-08 -7.75744e-09 0)
(-3.68465e-09 7.69417e-10 0)
(-8.95098e-10 2.15791e-09 0)
(5.74813e-09 9.99765e-10 0)
(4.31347e-09 3.60822e-10 0)
(-4.76236e-11 -1.45595e-09 0)
(-7.42343e-11 -3.44569e-09 0)
(2.7809e-09 -2.04787e-09 0)
(-1.30088e-09 -3.00901e-09 0)
(-4.25581e-09 -2.39971e-10 0)
(-1.91673e-09 2.0156e-09 0)
(-1.20979e-09 1.63759e-09 0)
(3.36602e-10 2.03943e-09 0)
(8.7848e-10 4.80573e-10 0)
(2.16482e-09 -4.40528e-09 0)
(3.80334e-10 -1.15385e-09 0)
(1.13585e-09 -1.28087e-08 0)
(-1.38925e-08 1.84359e-08 0)
(2.80402e-08 -5.35015e-08 0)
(-2.58219e-08 1.55971e-08 0)
(-4.51976e-09 3.71123e-09 0)
(1.40286e-08 -4.8214e-09 0)
(-2.01347e-09 2.22257e-09 0)
(-2.25506e-09 2.27113e-09 0)
(1.122e-09 -1.25211e-09 0)
(-7.61527e-10 -3.91715e-09 0)
(-5.30116e-10 -3.69176e-09 0)
(3.06021e-09 -1.38177e-09 0)
(5.6452e-10 -3.5004e-09 0)
(-1.96796e-09 -4.37374e-10 0)
(-9.08304e-10 1.22732e-09 0)
(-8.03642e-10 1.53776e-09 0)
(-1.33957e-09 2.11474e-09 0)
(-5.05416e-10 -9.19691e-10 0)
(1.59272e-09 -2.13979e-09 0)
(-4.96109e-09 -2.27386e-09 0)
(1.70537e-08 -2.36284e-09 0)
(-5.17643e-08 2.50632e-08 0)
(3.40602e-08 -1.38704e-07 0)
(7.75701e-08 -4.58422e-08 0)
(-2.5773e-08 1.80986e-08 0)
(-7.42143e-09 6.59496e-09 0)
(5.25197e-09 2.10512e-09 0)
(-2.37735e-09 2.68069e-09 0)
(-4.52843e-09 -9.42204e-11 0)
(-3.84812e-09 -3.55651e-09 0)
(-8.71482e-10 -3.0368e-09 0)
(3.46202e-09 -1.00292e-09 0)
(1.35552e-09 -2.90814e-09 0)
(4.50608e-10 -3.43014e-10 0)
(6.03894e-10 7.9656e-10 0)
(-8.48886e-10 6.38037e-10 0)
(-1.76359e-09 4.60105e-10 0)
(-1.54071e-09 -1.59064e-09 0)
(-3.0464e-11 9.50927e-10 0)
(3.32661e-09 1.22682e-09 0)
(1.0095e-08 9.01906e-09 0)
(-7.18583e-08 -3.10749e-08 0)
(-6.58092e-07 1.85199e-07 0)
(2.07529e-07 3.72448e-08 0)
(6.49513e-08 -1.26037e-08 0)
(-1.0486e-08 3.13023e-09 0)
(-6.93491e-09 3.51351e-09 0)
(-5.74005e-09 2.40969e-09 0)
(-8.42256e-09 5.11599e-11 0)
(-6.82214e-09 -7.00514e-10 0)
(-1.14262e-09 -6.37752e-11 0)
(3.21375e-09 -1.53272e-10 0)
(1.35926e-09 -1.83034e-09 0)
(2.51649e-09 4.51094e-11 0)
(1.19335e-09 3.85978e-10 0)
(-6.18022e-10 -8.20044e-10 0)
(-2.4216e-09 -1.18517e-09 0)
(-6.70023e-10 3.62799e-10 0)
(1.86574e-09 3.63013e-09 0)
(6.18359e-10 4.96915e-09 0)
(-5.2345e-09 5.21968e-09 0)
(6.97132e-08 -3.54624e-08 0)
(6.62984e-07 1.79547e-07 0)
(-2.04182e-07 2.34621e-08 0)
(-5.71781e-08 -1.83722e-08 0)
(1.90468e-08 -6.27159e-09 0)
(6.27836e-09 -2.74923e-09 0)
(-4.71091e-09 1.52067e-10 0)
(-1.26432e-08 2.31625e-09 0)
(-5.6957e-09 3.87426e-09 0)
(-1.73778e-09 4.1836e-09 0)
(5.31066e-09 1.9918e-09 0)
(1.41868e-09 -8.32442e-10 0)
(3.51168e-09 3.9422e-10 0)
(1.08478e-09 1.39253e-10 0)
(-1.03289e-09 -1.72534e-09 0)
(-9.53856e-10 -9.14376e-10 0)
(9.2651e-10 2.16188e-09 0)
(2.19697e-09 5.64874e-09 0)
(5.87982e-09 2.22842e-10 0)
(-1.90214e-08 -6.57241e-09 0)
(5.4272e-08 2.60302e-09 0)
(-5.5925e-08 -1.1561e-07 0)
(-7.09531e-08 -4.83796e-08 0)
(3.93204e-08 4.12092e-09 0)
(1.56576e-08 -7.10977e-09 0)
(3.87865e-09 -8.15254e-09 0)
(3.32305e-09 -3.56191e-09 0)
(2.04735e-09 7.0831e-10 0)
(-2.79627e-09 3.01137e-09 0)
(-1.32633e-09 3.85217e-09 0)
(-5.57692e-09 1.9812e-09 0)
(1.77227e-09 1.15324e-11 0)
(3.59065e-09 1.39449e-10 0)
(5.10123e-10 4.92743e-10 0)
(-9.1417e-10 -7.50502e-10 0)
(-8.58054e-11 4.72297e-10 0)
(2.73866e-09 2.26307e-09 0)
(7.5009e-10 -7.36402e-10 0)
(-2.38234e-09 1.47098e-09 0)
(-1.23459e-08 -2.00317e-08 0)
(1.16147e-08 2.8694e-08 0)
(5.04374e-08 -1.84466e-07 0)
(-2.88555e-08 3.20731e-08 0)
(-4.68975e-09 1.11326e-09 0)
(-6.8405e-10 -1.01004e-08 0)
(1.05071e-08 -4.25832e-09 0)
(7.21306e-09 -2.76356e-09 0)
(2.15596e-09 -2.58377e-09 0)
(1.06754e-09 -1.25876e-09 0)
(-4.07758e-11 -5.10788e-11 0)
(-2.2823e-09 -9.49028e-11 0)
(2.38135e-09 8.21461e-10 0)
(3.00061e-09 -5.63382e-10 0)
(3.73706e-10 4.32303e-10 0)
(-5.39937e-10 1.66744e-09 0)
(-8.18451e-12 1.66177e-09 0)
(8.07244e-10 3.406e-10 0)
(1.43304e-09 -6.2944e-09 0)
(-9.50806e-09 -5.20012e-09 0)
(2.26179e-08 1.52672e-08 0)
(-1.9598e-07 -1.0676e-08 0)
(-1.36732e-07 1.53895e-07 0)
(1.93598e-07 -1.39254e-08 0)
(-4.58576e-08 3.94026e-09 0)
(1.1989e-09 1.36827e-08 0)
(1.20667e-08 8.31913e-09 0)
(5.05647e-09 1.54283e-09 0)
(1.61258e-09 -1.44731e-09 0)
(1.44315e-09 -2.36966e-09 0)
(3.96672e-10 -2.13617e-09 0)
(-1.84687e-09 -9.59889e-10 0)
(2.65481e-09 2.1654e-09 0)
(1.43215e-09 -8.80418e-10 0)
(8.4834e-10 -5.19728e-10 0)
(1.50112e-10 2.56373e-09 0)
(-8.07545e-10 2.32588e-09 0)
(-2.06488e-09 -3.88869e-10 0)
(-1.90412e-09 -6.33734e-09 0)
(6.69651e-09 -6.3081e-09 0)
(-2.4301e-08 1.43945e-08 0)
(1.98349e-07 5.20085e-09 0)
(1.14382e-07 1.30255e-07 0)
(-2.08165e-07 -1.08892e-08 0)
(4.39832e-08 1.72997e-08 0)
(7.18089e-09 1.69099e-08 0)
(-6.85884e-09 8.27979e-09 0)
(-6.99755e-09 9.48301e-10 0)
(-3.3326e-09 -1.60341e-09 0)
(-2.59589e-10 -1.70167e-09 0)
(-9.98505e-10 -2.54714e-09 0)
(-1.212e-09 -1.56628e-09 0)
(1.32053e-09 3.89741e-09 0)
(-1.00756e-09 1.18133e-10 0)
(9.4631e-10 -2.32141e-09 0)
(1.41327e-09 1.36312e-10 0)
(-7.10278e-10 1.1015e-09 0)
(-3.86596e-09 1.02569e-09 0)
(-2.16122e-09 -1.02943e-09 0)
(2.9207e-09 -3.18879e-09 0)
(1.39091e-08 -7.59614e-09 0)
(-2.42347e-08 2.3764e-08 0)
(-4.21367e-08 -1.57594e-07 0)
(7.8582e-08 2.57475e-08 0)
(4.20482e-09 5.65723e-09 0)
(-8.93398e-09 -1.33816e-09 0)
(-9.95149e-09 -3.53751e-09 0)
(-9.0656e-09 -4.67567e-09 0)
(-3.78057e-09 -2.00372e-09 0)
(-1.29651e-09 1.24193e-10 0)
(-1.79552e-09 -1.02654e-09 0)
(9.14342e-10 -1.04474e-09 0)
(-1.41282e-09 4.43104e-09 0)
(-4.29768e-09 1.66367e-09 0)
(-1.32966e-10 -3.04111e-09 0)
(2.1772e-09 -4.22711e-09 0)
(1.46699e-09 -1.64854e-09 0)
(-2.88177e-09 1.12589e-09 0)
(-2.70651e-09 5.98282e-09 0)
(8.75132e-10 4.90631e-10 0)
(4.26721e-09 -4.50857e-09 0)
(-2.16639e-09 -1.87859e-08 0)
(1.41283e-08 3.36684e-08 0)
(-9.08594e-09 -2.41641e-09 0)
(-7.28897e-09 -1.06436e-08 0)
(-8.73366e-09 -8.79209e-09 0)
(-1.22571e-08 -9.91768e-09 0)
(-5.21907e-09 -6.36015e-09 0)
(1.33477e-09 -8.56391e-10 0)
(9.65043e-10 2.49103e-09 0)
(3.53119e-10 2.31384e-09 0)
(3.74876e-09 7.76788e-10 0)
(-3.97975e-09 2.27263e-09 0)
(-6.5128e-09 1.94935e-09 0)
(-2.33471e-09 -9.75346e-10 0)
(1.97049e-09 -4.53409e-09 0)
(3.15486e-09 -4.21903e-09 0)
(1.05198e-09 1.03896e-10 0)
(-2.04788e-09 6.49474e-09 0)
(-4.00763e-10 8.32675e-09 0)
(-2.58504e-10 -3.91594e-10 0)
(1.757e-09 -3.36425e-09 0)
(-1.63667e-09 -1.04149e-08 0)
(-3.98246e-09 -1.09123e-08 0)
(-6.02666e-09 -8.65529e-09 0)
(-1.05182e-08 -1.04731e-08 0)
(-5.70646e-09 -6.9429e-09 0)
(4.58286e-09 -1.71903e-09 0)
(8.082e-09 1.16709e-09 0)
(4.94048e-09 3.57259e-09 0)
(3.67221e-09 4.7715e-09 0)
(4.51685e-09 2.31765e-09 0)
(-4.58263e-09 -2.12453e-09 0)
(-5.70208e-09 6.90688e-10 0)
(-3.32097e-09 2.486e-09 0)
(4.50468e-10 9.53288e-10 0)
(3.07976e-09 -2.60363e-09 0)
(3.23225e-09 -2.27195e-09 0)
(9.50702e-10 1.42478e-09 0)
(-2.84507e-10 5.95463e-09 0)
(-1.54463e-10 4.32712e-09 0)
(-6.74698e-11 2.55798e-09 0)
(-1.40214e-09 -1.9177e-10 0)
(-4.58213e-10 -8.2562e-10 0)
(-4.42941e-09 -2.89507e-09 0)
(-3.36773e-09 -1.47802e-09 0)
(4.03487e-09 3.00375e-09 0)
(9.45146e-09 4.20644e-09 0)
(1.02829e-08 2.08406e-09 0)
(7.24586e-09 1.94906e-09 0)
(4.15729e-09 3.69616e-09 0)
(1.69813e-09 2.0891e-09 0)
(-2.63828e-09 -6.27434e-09 0)
(-1.58415e-09 -6.59159e-10 0)
(-1.53134e-09 4.95049e-09 0)
(-8.55739e-10 6.21796e-09 0)
(7.41963e-10 2.72722e-09 0)
(1.896e-09 -2.6051e-09 0)
(1.72754e-09 -3.93676e-09 0)
(1.9558e-10 -3.25772e-09 0)
(1.21255e-09 -1.59862e-10 0)
(1.36704e-09 1.3455e-09 0)
(1.29683e-09 4.84592e-09 0)
(-9.2304e-10 4.22524e-09 0)
(-1.91732e-09 4.19714e-09 0)
(1.61302e-09 7.14911e-09 0)
(5.14844e-09 8.78404e-09 0)
(7.48073e-09 6.44981e-09 0)
(7.8091e-09 7.30924e-10 0)
(4.86857e-09 -2.54777e-09 0)
(6.23348e-10 -6.60885e-10 0)
(-2.54686e-09 4.3644e-10 0)
(1.2224e-09 -7.42453e-09 0)
(3.80379e-09 -1.41521e-09 0)
(1.76263e-09 4.96854e-09 0)
(-7.66863e-10 6.87125e-09 0)
(-1.8486e-09 5.49014e-09 0)
(-1.28565e-09 7.44586e-11 0)
(-7.78226e-10 -5.3179e-09 0)
(-1.06947e-11 -7.53067e-09 0)
(1.77998e-09 -6.33843e-09 0)
(3.6843e-09 -3.51042e-09 0)
(3.3238e-09 -1.11461e-09 0)
(-5.69393e-10 3.43419e-10 0)
(-9.16992e-10 3.25886e-09 0)
(3.58823e-10 5.82006e-09 0)
(1.22739e-09 6.68512e-09 0)
(1.03706e-09 4.15874e-09 0)
(-3.64521e-11 -2.24841e-09 0)
(-8.4092e-10 -6.46596e-09 0)
(-2.48193e-09 -4.23566e-09 0)
(-4.32043e-09 -8.69995e-10 0)
(4.49936e-09 -3.47775e-09 0)
(7.97474e-09 -8.48081e-10 0)
(4.68019e-09 2.13454e-09 0)
(-1.09257e-10 2.97988e-09 0)
(-3.22328e-09 2.67817e-09 0)
(-4.01397e-09 7.26048e-10 0)
(-3.35347e-09 -2.24251e-09 0)
(-1.28737e-09 -3.69938e-09 0)
(1.59919e-09 -3.91612e-09 0)
(3.76323e-09 -2.7236e-09 0)
(2.62515e-09 -2.65788e-09 0)
(7.34638e-10 -1.54871e-09 0)
(-7.40933e-10 2.79871e-10 0)
(-1.21522e-09 1.41042e-09 0)
(-1.97231e-09 2.00891e-09 0)
(-4.75468e-09 9.45282e-10 0)
(-6.21643e-09 -1.87079e-09 0)
(-4.07005e-09 -3.68149e-09 0)
(-2.77436e-09 -2.52606e-09 0)
(-3.62173e-09 -5.81942e-10 0)
)
;

boundaryField
{
    sides
    {
        type            calculated;
        value           nonuniform List<vector> 
40
(
(4.49936e-09 0 0)
(7.97474e-09 0 0)
(4.68019e-09 0 0)
(-1.09257e-10 0 0)
(-3.22328e-09 0 0)
(-4.01397e-09 0 0)
(-3.35347e-09 0 0)
(-1.28737e-09 0 0)
(1.59919e-09 0 0)
(3.76323e-09 0 0)
(2.62515e-09 0 0)
(7.34638e-10 0 0)
(-7.40933e-10 0 0)
(-1.21522e-09 0 0)
(-1.97231e-09 0 0)
(-4.75468e-09 0 0)
(-6.21643e-09 0 0)
(-4.07005e-09 0 0)
(-2.77436e-09 0 0)
(-3.62173e-09 0 0)
(3.94539e-09 0 0)
(5.49066e-09 0 0)
(2.39633e-09 0 0)
(-5.3114e-12 0 0)
(9.82269e-11 0 0)
(-9.2977e-10 0 0)
(-1.55918e-09 0 0)
(-2.96143e-09 0 0)
(8.41392e-10 0 0)
(1.30476e-09 0 0)
(1.80768e-10 0 0)
(3.9464e-10 0 0)
(-2.50269e-09 0 0)
(5.0531e-10 0 0)
(-2.19738e-09 0 0)
(-4.95322e-09 0 0)
(-1.21046e-09 0 0)
(1.95723e-09 0 0)
(-2.19183e-09 0 0)
(-5.92317e-09 0 0)
)
;
    }
    inlet
    {
        type            calculated;
        value           uniform (0 0 0);
    }
    outlet
    {
        type            calculated;
        value           nonuniform List<vector> 
20
(
(-5.92317e-09 1.41348e-10 0)
(-4.27397e-10 6.77145e-12 0)
(-5.77407e-10 -6.29954e-10 0)
(1.49642e-09 -1.84522e-09 0)
(2.7809e-09 -2.04787e-09 0)
(3.06021e-09 -1.38177e-09 0)
(3.46202e-09 -1.00292e-09 0)
(3.21375e-09 -1.53272e-10 0)
(5.31066e-09 1.9918e-09 0)
(-5.57692e-09 1.9812e-09 0)
(-2.2823e-09 -9.49028e-11 0)
(-1.84687e-09 -9.59889e-10 0)
(-1.212e-09 -1.56628e-09 0)
(9.14342e-10 -1.04474e-09 0)
(3.74876e-09 7.76788e-10 0)
(4.51685e-09 2.31765e-09 0)
(1.69813e-09 2.0891e-09 0)
(-2.54686e-09 4.3644e-10 0)
(-4.32043e-09 -8.69995e-10 0)
(-3.62173e-09 -5.81942e-10 0)
)
;
    }
    frontAndBack
    {
        type            empty;
    }
}


// ************************************************************************* //
