/*--------------------------------*- C++ -*----------------------------------*\
  =========                 |
  \\      /  F ield         | OpenFOAM: The Open Source CFD Toolbox
   \\    /   O peration     | Website:  https://openfoam.org
    \\  /    A nd           | Version:  9
     \\/     M anipulation  |
\*---------------------------------------------------------------------------*/
FoamFile
{
    format      ascii;
    class       surfaceScalarField;
    location    "86";
    object      ddtCorrDdt0(phi);
}
// * * * * * * * * * * * * * * * * * * * * * * * * * * * * * * * * * * * * * //

dimensions      [0 4 -2 0 0 0 0];

internalField   nonuniform List<scalar> 
760
(
3.48762e-11
2.09854e-11
2.98921e-11
5.86945e-12
-9.43564e-13
-2.5464e-11
-1.02579e-11
-2.75708e-11
9.24621e-12
6.72869e-12
-1.22197e-11
5.68807e-12
-1.03367e-11
8.30159e-12
-1.33503e-11
1.57039e-11
1.84626e-11
1.95323e-11
-1.99075e-12
-6.18749e-12
5.69909e-12
5.34912e-12
-1.29026e-11
-1.14003e-11
-1.15096e-12
8.39765e-12
5.06289e-12
-4.68277e-12
-2.39006e-11
-1.81272e-11
-2.73567e-11
-1.07874e-12
4.11794e-13
1.30237e-11
2.09099e-11
9.39086e-12
-2.28474e-11
8.85684e-13
-1.02365e-11
2.9732e-11
3.87857e-11
9.86694e-12
5.42595e-12
-5.37104e-12
-3.39166e-11
1.19565e-11
-2.29316e-11
9.68153e-12
3.66508e-12
-9.35666e-12
-1.13709e-11
5.61436e-13
1.99201e-11
-9.41369e-12
1.12835e-11
8.6619e-12
2.78284e-11
1.50901e-11
-6.69298e-13
-1.74335e-11
-1.11686e-11
7.71403e-12
1.62873e-11
-1.01767e-11
-7.58079e-12
-2.86293e-12
4.12131e-12
-6.81945e-12
-1.48511e-11
-1.59955e-11
-9.00729e-12
-2.82497e-15
2.01223e-11
1.55887e-11
2.66613e-11
1.48553e-11
4.04771e-12
1.3463e-12
4.06794e-13
2.89408e-11
-2.19657e-11
-4.72978e-13
1.86638e-12
-1.3522e-11
3.26263e-11
1.11945e-12
-5.25034e-12
-2.18375e-11
1.86837e-11
-5.54622e-12
-6.12521e-12
6.95527e-12
1.16438e-11
1.86301e-11
-1.89408e-11
-6.50108e-12
1.41916e-11
3.36892e-11
-3.46292e-12
-3.53761e-11
-4.815e-12
6.35853e-12
9.28421e-12
7.37467e-12
-1.42126e-11
-1.17905e-11
5.18888e-12
-1.4468e-12
1.11428e-11
2.1963e-12
1.39951e-11
1.59766e-11
1.90611e-11
1.9913e-11
-5.40362e-13
3.22788e-12
-5.97138e-12
-3.03653e-11
4.05837e-12
-3.45559e-11
-2.37045e-12
1.39528e-11
1.03481e-11
1.14936e-11
5.05628e-12
4.45095e-12
-1.00457e-11
2.83376e-11
4.69058e-13
4.63208e-12
-4.83603e-12
-6.48939e-12
-1.5054e-11
1.9982e-11
9.60116e-12
-5.69178e-11
-5.23469e-11
3.80612e-11
1.08812e-10
4.0841e-12
-7.47718e-11
-7.99981e-12
1.906e-12
7.03686e-12
1.4176e-11
1.17143e-11
-7.34204e-12
2.75966e-11
3.43955e-12
2.20788e-11
9.61065e-12
1.332e-12
2.25283e-12
5.10286e-12
-8.73874e-12
-6.31587e-12
-4.15455e-11
-1.30335e-11
-2.39456e-11
-4.95428e-13
7.54265e-12
1.17234e-11
-6.87794e-12
9.24629e-12
1.31265e-11
5.98881e-12
2.27365e-11
4.35615e-12
3.01291e-12
-1.63777e-11
9.13322e-12
-3.25362e-11
-3.18538e-11
1.12701e-11
8.7033e-11
-6.30807e-11
-1.41567e-10
-1.22828e-10
8.77575e-11
1.34886e-10
1.4177e-11
-7.95531e-11
-2.81935e-11
-1.33241e-11
1.76275e-11
3.72508e-11
3.59452e-11
1.28944e-11
1.49996e-11
-7.53366e-12
-1.56387e-11
-1.73752e-11
3.87447e-12
-1.632e-11
-6.02065e-12
-3.29358e-11
-1.76583e-11
-1.17535e-11
-2.39325e-12
2.04909e-12
8.47346e-12
-1.30872e-11
7.47593e-12
9.89441e-12
1.55452e-11
1.22903e-11
8.05189e-14
-1.75951e-11
-3.11561e-11
6.58416e-11
2.2375e-11
-1.30329e-10
-1.58142e-10
1.13837e-10
3.39792e-10
7.11716e-12
-5.42425e-10
-1.42336e-10
2.68096e-11
7.98347e-11
1.64691e-10
1.83945e-11
-2.01791e-11
-1.92872e-11
-5.97555e-12
7.06279e-12
1.67295e-11
2.45575e-12
-2.50832e-12
-1.62635e-11
-2.11858e-11
6.78211e-12
-1.79702e-11
-5.57222e-12
-1.80703e-11
-1.6549e-11
-4.01263e-13
-1.09396e-12
5.31938e-13
3.73818e-12
-8.27617e-12
8.23026e-12
-8.55322e-13
5.45549e-12
-1.7896e-11
-1.04452e-11
4.3697e-11
9.21866e-12
-9.76529e-11
-4.99556e-11
2.29511e-10
1.65853e-10
-5.62974e-10
-2.35915e-10
7.21974e-10
1.52572e-09
-1.61713e-11
-5.25034e-10
-1.09469e-10
-3.61982e-11
2.26537e-11
8.37733e-11
6.42617e-12
2.81039e-11
-1.80089e-11
1.53049e-11
-2.43686e-11
-3.26548e-12
-1.90926e-11
-4.82439e-12
9.93028e-12
-7.69326e-12
-2.19003e-12
-1.14225e-13
-1.06467e-11
5.39146e-12
-3.93074e-13
5.88576e-12
4.4166e-12
-7.53436e-12
-2.40589e-12
-1.86006e-11
-2.09256e-12
3.82578e-12
-7.4849e-12
-1.73753e-11
6.14273e-12
6.10746e-11
7.67801e-11
2.26101e-10
-1.56606e-10
-2.83956e-09
-1.09425e-10
-3.32446e-10
3.04553e-08
6.05782e-10
1.00578e-09
5.01037e-11
-1.12573e-10
-5.37212e-11
-6.75517e-11
-2.63406e-11
-1.22548e-11
-3.25715e-11
1.17847e-12
-4.79098e-11
1.04317e-11
-2.08383e-11
1.07745e-11
9.98166e-12
8.7473e-12
1.77562e-12
1.42169e-11
-5.05563e-12
1.06099e-11
2.61261e-12
3.59566e-12
-4.90986e-13
-6.4857e-12
-6.72489e-12
-2.23319e-11
-1.03746e-11
1.02556e-12
1.62041e-11
4.06339e-11
2.86457e-11
-3.16993e-11
-2.00042e-11
-2.16127e-10
1.34542e-10
2.8305e-09
-3.76558e-10
3.60121e-10
1.40833e-09
-5.94886e-10
-6.72492e-10
1.11146e-11
-1.1475e-10
6.98459e-11
-3.00566e-11
1.77657e-12
-2.55483e-11
-5.30042e-11
-1.04645e-11
-4.56813e-11
2.13442e-09
-1.8652e-11
1.8875e-11
1.03547e-11
1.69125e-11
-6.88141e-11
2.57748e-11
-1.73342e-12
8.88328e-12
2.25047e-12
-1.83417e-13
1.37832e-12
-9.63445e-12
-1.14436e-11
-9.50996e-12
2.83916e-12
2.76815e-11
1.32736e-11
-4.45731e-12
2.14797e-11
7.12555e-11
-2.24338e-12
-2.01701e-10
-1.67825e-10
4.75798e-10
1.70958e-10
-7.6707e-10
-2.82146e-10
1.11174e-10
1.53757e-10
1.36721e-10
9.21669e-11
3.22715e-11
-4.871e-11
2.73671e-11
-4.45152e-11
1.13679e-11
-2.51427e-11
-1.04759e-11
-1.47882e-11
-3.74853e-12
-4.15806e-14
-1.46519e-11
4.41494e-12
9.7516e-13
2.96117e-11
3.33063e-13
9.52369e-12
-1.08001e-12
-1.15165e-11
3.40051e-12
-8.09821e-13
2.4972e-12
-1.40971e-12
3.76687e-12
3.49152e-11
1.21754e-11
4.13133e-12
-3.01632e-11
-8.26532e-11
1.69869e-11
-3.59837e-11
-8.70182e-11
2.962e-10
4.11921e-10
-6.89578e-11
-2.49529e-09
-2.80845e-11
2.99735e-10
-4.77841e-11
1.55938e-11
3.94121e-11
-1.16818e-11
5.57483e-11
5.86887e-12
1.61011e-11
-9.84423e-12
4.12802e-12
-1.57814e-11
9.20406e-12
-1.20353e-11
-6.0801e-12
-6.3459e-12
-1.67334e-12
2.38708e-11
4.64186e-12
1.30655e-11
-6.05806e-12
-1.27161e-11
2.50004e-12
-3.65653e-13
1.48644e-11
7.29722e-12
1.20724e-11
-5.16257e-13
-1.12552e-11
3.30793e-11
-3.11429e-11
-1.18606e-10
-3.71564e-11
1.59494e-10
2.64227e-10
-2.19472e-09
-4.34456e-10
1.51344e-09
5.57929e-08
-1.80756e-10
-5.72133e-10
-8.15771e-11
2.99728e-11
5.37095e-11
1.10183e-10
4.58917e-11
5.94741e-11
1.1388e-11
1.2624e-11
1.23813e-12
5.66057e-13
1.1857e-11
-7.13804e-12
-2.24656e-12
-1.02131e-11
-5.2964e-12
7.41022e-12
1.46636e-11
1.686e-11
-4.69783e-12
-3.94501e-12
-5.52659e-12
9.33243e-13
1.2942e-11
-4.37557e-12
1.03891e-11
-2.53366e-11
1.14655e-12
-9.77199e-12
-2.89432e-11
9.50158e-11
-4.47977e-12
-1.9969e-10
-7.97254e-11
2.229e-09
5.5001e-10
-1.65168e-09
-3.00516e-09
1.2803e-10
2.76051e-10
1.12082e-10
1.5294e-10
-1.31791e-11
2.40618e-11
-3.61014e-11
9.1044e-12
-2.78954e-11
-8.81155e-12
-1.38753e-11
-4.71052e-12
2.21291e-12
-3.47535e-12
-2.69829e-12
-1.12949e-11
-8.16353e-12
-1.55443e-11
2.41222e-11
1.18903e-11
4.99472e-12
1.07986e-11
-1.75672e-11
1.16945e-12
-1.05676e-11
-4.45725e-12
1.1452e-12
-5.11196e-11
8.13489e-12
1.09196e-11
1.73449e-11
4.32174e-11
-3.20198e-11
1.52301e-10
-1.82731e-11
-5.4622e-10
-1.42518e-10
3.811e-10
4.85533e-10
1.50913e-10
9.97961e-11
-3.00528e-11
-3.01206e-11
-4.38592e-11
-1.4336e-11
-5.38748e-11
-3.63049e-11
-3.04087e-11
-3.51656e-11
-1.31627e-11
-1.02041e-11
-1.03124e-11
6.12139e-12
3.07559e-13
1.39748e-13
-3.02285e-12
-3.45895e-11
2.15096e-11
-8.94935e-12
1.2459e-11
1.62387e-11
-1.41229e-11
1.18427e-11
-3.33962e-11
2.53467e-12
-1.64176e-11
-3.48454e-11
6.9334e-12
-2.15615e-11
4.59173e-11
5.00278e-11
2.7469e-11
-9.2338e-12
-2.67707e-11
4.50925e-11
-5.27387e-11
6.99461e-12
2.10093e-10
-5.35972e-11
-9.18437e-11
-2.61244e-11
-5.16991e-11
-6.27241e-11
-6.16822e-11
-5.0358e-11
-5.95087e-11
8.97907e-13
-2.99294e-11
9.54505e-12
-1.70013e-12
-8.30211e-12
1.54901e-11
1.02362e-11
1.77787e-11
7.12883e-12
-4.13523e-11
2.3871e-12
-2.97004e-11
8.35486e-12
2.23531e-12
3.54555e-12
2.3642e-11
-1.53109e-11
1.58524e-11
-2.60151e-11
-3.8378e-12
-9.75058e-13
-2.79347e-11
2.56584e-11
1.08906e-11
5.67807e-11
5.23507e-12
2.12355e-11
6.91384e-12
-4.03607e-12
-2.21264e-11
-5.31732e-11
-1.73512e-11
-3.75633e-11
-4.37192e-11
-4.67818e-11
-5.33752e-11
-4.72887e-11
-3.4892e-12
-1.39599e-11
4.6242e-11
5.73863e-12
3.86393e-11
6.26587e-12
6.38644e-12
1.37306e-11
1.73938e-11
2.41404e-11
1.27776e-11
-3.30296e-11
-2.34026e-11
-3.21982e-11
-7.04374e-13
-1.04461e-11
2.16663e-11
1.27767e-11
2.38352e-11
3.04146e-11
-1.77974e-12
1.08039e-11
-2.10598e-11
-2.81213e-12
-9.18309e-12
-1.18935e-11
7.31883e-12
8.66933e-12
2.71209e-11
-1.05023e-11
2.3766e-11
3.27867e-12
1.89344e-12
-1.14924e-11
1.67315e-11
-2.81586e-11
7.89146e-12
-1.43927e-12
2.48789e-11
3.5526e-11
3.9931e-11
5.82849e-11
3.19145e-11
5.17878e-11
1.0265e-11
1.79047e-11
1.62324e-12
9.29511e-12
1.1058e-11
8.43038e-12
-9.53971e-12
-4.01933e-11
-1.35917e-11
-4.33853e-12
-7.71502e-12
3.02131e-11
-5.41081e-12
3.96986e-11
1.52689e-11
2.66086e-11
1.72356e-11
-1.16165e-11
9.89308e-13
-3.55262e-11
-3.04354e-12
-3.94992e-11
7.22669e-12
-1.81297e-11
9.60377e-12
2.59383e-12
3.94396e-12
1.5223e-11
-1.35441e-11
2.13002e-11
-3.63636e-12
3.3854e-11
1.95171e-11
4.94063e-11
3.15095e-11
5.1922e-11
4.00696e-11
3.62581e-11
3.84114e-11
5.71052e-13
1.23346e-11
-2.21222e-11
-9.64446e-12
-1.09022e-11
-3.5472e-14
2.28418e-11
-3.33984e-11
1.46816e-11
-4.55768e-12
4.90954e-13
2.30195e-11
-1.12396e-11
2.83809e-11
-8.69015e-12
2.41675e-11
1.09768e-12
2.88913e-12
-6.81589e-12
-2.79347e-11
2.94967e-12
-3.82503e-11
1.43637e-11
-3.53395e-11
2.68576e-11
-1.91273e-11
2.70419e-12
-1.04852e-12
-9.38045e-12
1.80563e-12
-1.04186e-12
1.57116e-11
9.12862e-12
2.48971e-11
6.46185e-12
2.97607e-11
-5.35583e-12
1.78029e-11
-1.39902e-12
-1.02317e-11
1.72448e-12
-2.63915e-11
-1.81617e-11
-1.47981e-11
-3.21722e-12
4.72722e-11
3.98231e-11
6.9098e-12
-1.18e-11
-2.09258e-11
-1.9335e-11
-1.58249e-11
-3.60517e-13
2.04656e-11
2.03919e-11
5.28399e-12
-3.76968e-12
-4.21904e-12
6.41885e-13
-1.59202e-11
-4.30356e-11
-3.02236e-11
7.13206e-13
-1.26902e-11
)
;

boundaryField
{
    sides
    {
        type            calculated;
        value           uniform 0;
    }
    inlet
    {
        type            calculated;
        value           uniform 0;
    }
    outlet
    {
        type            calculated;
        value           nonuniform List<scalar> 
20
(
-4.90363e-11
-2.11445e-11
-1.46034e-12
1.84543e-11
3.18858e-11
2.92089e-11
2.52006e-11
1.88278e-11
2.95259e-11
-3.66472e-11
-1.89754e-11
-1.78782e-11
-1.20571e-11
7.49735e-12
3.20831e-11
3.96829e-11
2.02542e-11
-1.1896e-11
-3.298e-11
-3.86317e-11
)
;
    }
    frontAndBack
    {
        type            empty;
        value           nonuniform List<scalar> 0();
    }
}


// ************************************************************************* //
