/*--------------------------------*- C++ -*----------------------------------*\
  =========                 |
  \\      /  F ield         | OpenFOAM: The Open Source CFD Toolbox
   \\    /   O peration     | Website:  https://openfoam.org
    \\  /    A nd           | Version:  9
     \\/     M anipulation  |
\*---------------------------------------------------------------------------*/
FoamFile
{
    format      ascii;
    class       surfaceScalarField;
    location    "86";
    object      phi;
}
// * * * * * * * * * * * * * * * * * * * * * * * * * * * * * * * * * * * * * //

dimensions      [0 4 -1 0 0 0 0];

internalField   nonuniform List<scalar> 
760
(
5.0001e-06
-9.21663e-11
5.0004e-06
-3.05293e-10
5.00091e-06
-5.14205e-10
5.00162e-06
-7.08698e-10
5.00249e-06
-8.75882e-10
5.00349e-06
-1.00419e-09
5.00455e-06
-1.06028e-09
5.00557e-06
-1.01251e-09
5.0064e-06
-8.2909e-10
5.00692e-06
-5.2104e-10
5.00705e-06
-1.21257e-10
5.00665e-06
3.98433e-10
5.00579e-06
8.57158e-10
5.00469e-06
1.10532e-09
5.00352e-06
1.17317e-09
5.00257e-06
9.54239e-10
5.00185e-06
7.17591e-10
5.00161e-06
2.4779e-10
5.00151e-06
1.09815e-10
-3.90839e-10
5.00012e-06
-2.1083e-10
5.00045e-06
-6.32678e-10
5.00098e-06
-1.04876e-09
5.00172e-06
-1.44781e-09
5.00265e-06
-1.80802e-09
5.00374e-06
-2.09665e-09
5.00493e-06
-2.24709e-09
5.0061e-06
-2.19114e-09
5.00713e-06
-1.84898e-09
5.00777e-06
-1.16558e-09
5.00774e-06
-9.1137e-11
5.00725e-06
8.89909e-10
5.00626e-06
1.84572e-09
5.00495e-06
2.41814e-09
5.00368e-06
2.44716e-09
5.00277e-06
1.85976e-09
5.00224e-06
1.24758e-09
5.00191e-06
5.83743e-10
5.00165e-06
3.70897e-10
-1.45918e-10
5.00011e-06
-3.1814e-10
5.00043e-06
-9.53234e-10
5.00096e-06
-1.58044e-09
5.00172e-06
-2.20824e-09
5.00272e-06
-2.80861e-09
5.00394e-06
-3.31843e-09
5.00532e-06
-3.62522e-09
5.00672e-06
-3.59262e-09
5.00793e-06
-3.05857e-09
5.00872e-06
-1.95678e-09
5.00893e-06
-3.06181e-10
5.00825e-06
1.5699e-09
5.00687e-06
3.22709e-09
5.00515e-06
4.13336e-09
5.0035e-06
4.09318e-09
5.00231e-06
3.05776e-09
5.00166e-06
1.89202e-09
5.00147e-06
7.70797e-10
5.00144e-06
3.96769e-10
-2.21854e-10
5.0001e-06
-4.18321e-10
5.00041e-06
-1.26338e-09
5.00094e-06
-2.11556e-09
5.00175e-06
-3.01032e-09
5.00285e-06
-3.91363e-09
5.00429e-06
-4.74894e-09
5.00601e-06
-5.35269e-09
5.00795e-06
-5.53088e-09
5.00984e-06
-4.9495e-09
5.01107e-06
-3.19694e-09
5.0112e-06
-4.23878e-10
5.00999e-06
2.76803e-09
5.00765e-06
5.56752e-09
5.00514e-06
6.63626e-09
5.00347e-06
5.76005e-09
5.0027e-06
3.82825e-09
5.00248e-06
2.11087e-09
5.00231e-06
9.35549e-10
5.00199e-06
7.06722e-10
3.38296e-10
5.00008e-06
-5.01362e-10
5.00034e-06
-1.52248e-09
5.00083e-06
-2.60898e-09
5.00163e-06
-3.81195e-09
5.00286e-06
-5.13307e-09
5.00458e-06
-6.46398e-09
5.0068e-06
-7.57662e-09
5.00942e-06
-8.15211e-09
5.01238e-06
-7.9208e-09
5.01479e-06
-5.59583e-09
5.01481e-06
-4.81117e-10
5.01285e-06
4.75587e-09
5.00867e-06
9.73746e-09
5.00459e-06
1.07088e-08
5.00224e-06
8.1169e-09
5.00174e-06
4.32284e-09
5.00204e-06
1.80371e-09
5.00225e-06
7.2025e-10
5.00201e-06
9.46861e-10
6.25883e-10
5.00004e-06
-5.45011e-10
5.00019e-06
-1.67894e-09
5.00054e-06
-2.9488e-09
5.00121e-06
-4.4834e-09
5.00241e-06
-6.33115e-09
5.00452e-06
-8.57662e-09
5.0076e-06
-1.06564e-08
5.01167e-06
-1.22201e-08
5.01552e-06
-1.17869e-08
5.01902e-06
-9.05451e-09
5.02021e-06
-1.7091e-09
5.01601e-06
8.94227e-09
5.00951e-06
1.62635e-08
5.00421e-06
1.60027e-08
5.00217e-06
1.01578e-08
5.00249e-06
4.00009e-09
5.00327e-06
1.02841e-09
5.00339e-06
5.92919e-10
5.0028e-06
1.54194e-09
1.42135e-09
4.99998e-06
-5.27197e-10
4.99994e-06
-1.63698e-09
5.00003e-06
-3.04024e-09
5.00036e-06
-4.81234e-09
5.00122e-06
-7.19217e-09
5.00292e-06
-1.02795e-08
5.0068e-06
-1.45372e-08
5.01392e-06
-1.93435e-08
5.02376e-06
-2.1595e-08
5.03088e-06
-1.62595e-08
5.02878e-06
6.01816e-10
5.01674e-06
2.09047e-08
5.00418e-06
2.881e-08
4.99873e-06
2.14655e-08
5.00057e-06
8.31981e-09
5.00284e-06
1.73103e-09
5.00371e-06
1.61088e-10
5.00366e-06
6.4866e-10
5.00305e-06
2.15954e-09
1.68065e-09
4.99986e-06
-3.93502e-10
4.99955e-06
-1.32239e-09
4.99912e-06
-2.61208e-09
4.99885e-06
-4.54292e-09
4.99933e-06
-7.66881e-09
5.00036e-06
-1.13093e-08
5.00365e-06
-1.78277e-08
5.00983e-06
-2.55096e-08
5.0249e-06
-3.6676e-08
5.05603e-06
-4.74978e-08
5.05008e-06
6.40876e-09
5.02321e-06
4.7864e-08
4.99817e-06
5.38057e-08
4.99348e-06
2.61369e-08
4.99946e-06
2.34759e-09
5.00407e-06
-2.87453e-09
5.0049e-06
-6.688e-10
5.00372e-06
1.83511e-09
5.00351e-06
2.38058e-09
9.70056e-10
4.99977e-06
-1.60443e-10
4.99915e-06
-7.05613e-10
4.99792e-06
-1.37907e-09
4.99611e-06
-2.7331e-09
4.99401e-06
-5.58033e-09
4.99374e-06
-1.10303e-08
4.99945e-06
-2.35332e-08
5.01713e-06
-4.31971e-08
5.05568e-06
-7.52202e-08
5.06692e-06
-5.8629e-08
5.04969e-06
2.37703e-08
4.99646e-06
1.00976e-07
4.98931e-06
6.09944e-08
4.99591e-06
1.95341e-08
5.00018e-06
-1.93516e-09
5.00292e-06
-5.6131e-09
5.00252e-06
-2.71733e-10
5.00184e-06
2.52161e-09
5.00255e-06
1.68071e-09
8.46071e-11
4.99986e-06
-1.63924e-11
4.9992e-06
-5.11144e-11
4.99791e-06
-8.5806e-11
4.9953e-06
-1.28869e-10
4.98989e-06
-1.70524e-10
4.97909e-06
-2.19331e-10
4.95582e-06
-2.67152e-10
4.91296e-06
-3.30571e-10
4.83812e-06
-4.21124e-10
4.78002e-06
-4.5255e-10
4.80423e-06
-6.31215e-10
4.90604e-06
-7.30573e-10
4.96779e-06
-7.49005e-10
4.98822e-06
-9.11277e-10
4.98745e-06
-1.16763e-09
4.98326e-06
-1.42878e-09
4.98455e-06
-1.55937e-09
4.9889e-06
-1.82618e-09
4.99248e-06
-1.89465e-09
-2.58491e-09
4.99986e-06
1.27787e-10
4.99921e-06
6.02199e-10
4.99791e-06
1.21161e-09
4.99529e-06
2.4827e-09
4.98987e-06
5.25067e-09
4.97906e-06
1.06025e-08
4.95578e-06
2.30096e-08
4.91289e-06
4.25414e-08
4.83802e-06
7.44494e-08
4.77975e-06
5.78553e-08
4.80424e-06
-2.51297e-08
4.906e-06
-1.0246e-07
4.96777e-06
-6.2518e-08
4.98807e-06
-2.12028e-08
4.98736e-06
-4.55875e-10
4.98293e-06
2.9938e-09
4.98442e-06
-3.05504e-09
4.98888e-06
-6.28747e-09
4.99235e-06
-5.35997e-09
-4.98514e-09
4.99977e-06
3.60748e-10
4.99915e-06
1.22275e-09
4.99791e-06
2.44274e-09
4.9961e-06
4.29759e-09
4.99402e-06
7.33577e-09
4.99373e-06
1.0888e-08
4.99943e-06
1.73114e-08
5.01707e-06
2.48874e-08
5.05561e-06
3.5932e-08
5.067e-06
4.63788e-08
5.04951e-06
-6.69951e-09
4.9961e-06
-4.90966e-08
4.98885e-06
-5.52448e-08
4.9957e-06
-2.80338e-08
5.00011e-06
-4.86451e-09
5.00231e-06
7.86874e-10
5.00165e-06
-2.39638e-09
5.0009e-06
-5.5378e-09
5.00168e-06
-6.14063e-09
-5.95338e-09
4.99986e-06
4.95905e-10
4.99955e-06
1.54161e-09
4.99911e-06
2.8785e-09
4.99883e-06
4.57921e-09
4.99927e-06
6.88964e-09
5.00026e-06
9.89481e-09
5.00347e-06
1.4104e-08
5.00961e-06
1.87662e-08
5.0246e-06
2.09098e-08
5.05564e-06
1.54352e-08
5.04971e-06
-1.74748e-09
5.02282e-06
-2.21551e-08
4.99787e-06
-3.02947e-08
4.99315e-06
-2.33317e-08
4.99863e-06
-1.03475e-08
5.00345e-06
-4.02529e-09
5.00373e-06
-2.67464e-09
5.00235e-06
-4.16228e-09
5.00216e-06
-5.94556e-09
-6.53677e-09
4.99997e-06
5.17398e-10
4.99993e-06
1.59267e-09
5e-06
2.80247e-09
5.00031e-06
4.27397e-09
5.00113e-06
6.0617e-09
5.00279e-06
8.23209e-09
5.00667e-06
1.02229e-08
5.01378e-06
1.16694e-08
5.02359e-06
1.11228e-08
5.03068e-06
8.26285e-09
5.02841e-06
6.4751e-10
5.01625e-06
-1.00279e-08
5.00349e-06
-1.75604e-08
4.99776e-06
-1.76111e-08
4.99941e-06
-1.19887e-08
5.00161e-06
-6.22086e-09
5.0024e-06
-3.46575e-09
5.00213e-06
-3.88602e-09
5.00119e-06
-5.00458e-09
-5.97652e-09
5.00003e-06
4.78139e-10
5.00018e-06
1.44877e-09
5.0005e-06
2.48294e-09
5.00115e-06
3.62682e-09
5.00232e-06
4.88858e-09
5.00439e-06
6.15474e-09
5.00741e-06
7.20222e-09
5.01139e-06
7.69788e-09
5.01513e-06
7.39237e-09
5.01853e-06
4.8778e-09
5.01956e-06
-3.89388e-10
5.01522e-06
-5.70792e-09
5.00853e-06
-1.08707e-08
5.0031e-06
-1.21783e-08
5.00087e-06
-9.75348e-09
5.00101e-06
-6.34825e-09
5.00155e-06
-4.0072e-09
5.00131e-06
-3.6461e-09
5.00035e-06
-4.04004e-09
-4.97541e-09
5.00008e-06
3.97989e-10
5.00032e-06
1.20186e-09
5.00079e-06
2.01357e-09
5.00157e-06
2.85732e-09
5.00275e-06
3.70736e-09
5.00441e-06
4.49366e-09
5.00655e-06
5.05102e-09
5.00909e-06
5.16098e-09
5.01203e-06
4.46098e-09
5.0144e-06
2.51399e-09
5.01414e-06
-1.39682e-10
5.01208e-06
-3.63768e-09
5.00775e-06
-6.53481e-09
5.00348e-06
-7.90859e-09
5.00093e-06
-7.18722e-09
5.00014e-06
-5.54824e-09
5.00011e-06
-3.98238e-09
4.99987e-06
-3.41973e-09
4.99917e-06
-3.33947e-09
-4.17207e-09
5.0001e-06
2.97341e-10
5.00039e-06
9.02266e-10
5.0009e-06
1.50275e-09
5.00167e-06
2.09452e-09
5.00274e-06
2.65078e-09
5.00412e-06
3.11108e-09
5.00579e-06
3.38049e-09
5.00763e-06
3.31197e-09
5.00933e-06
2.75784e-09
5.01026e-06
1.57512e-09
5.01043e-06
-3.01634e-10
5.00903e-06
-2.23153e-09
5.0065e-06
-4.00521e-09
5.00367e-06
-5.07623e-09
5.00155e-06
-5.05554e-09
5.00035e-06
-4.35124e-09
4.99971e-06
-3.34486e-09
4.99917e-06
-2.89109e-09
4.99844e-06
-2.6297e-09
-3.21809e-09
5.0001e-06
1.93749e-10
5.00041e-06
5.92648e-10
5.00092e-06
9.86403e-10
5.00166e-06
1.36231e-09
5.00262e-06
1.69966e-09
5.00378e-06
1.95327e-09
5.00509e-06
2.06544e-09
5.00645e-06
1.95269e-09
5.00764e-06
1.55321e-09
5.00839e-06
8.27277e-10
5.00821e-06
-1.29706e-10
5.00733e-06
-1.35793e-09
5.0057e-06
-2.37456e-09
5.00369e-06
-3.06251e-09
5.00179e-06
-3.16747e-09
5.00034e-06
-2.89786e-09
4.99931e-06
-2.32999e-09
4.99852e-06
-2.10275e-09
4.99772e-06
-1.84111e-09
-2.28218e-09
5.00009e-06
1.10867e-10
5.00038e-06
3.0287e-10
5.00086e-06
4.94297e-10
5.00155e-06
6.77305e-10
5.00241e-06
8.37467e-10
5.00341e-06
9.52175e-10
5.00448e-06
9.94705e-10
5.0055e-06
9.31314e-10
5.00633e-06
7.31119e-10
5.0068e-06
3.57037e-10
5.0068e-06
-1.44225e-10
5.00607e-06
-6.30691e-10
5.00479e-06
-1.09248e-09
5.00315e-06
-1.42869e-09
5.00148e-06
-1.50059e-09
5.00002e-06
-1.43854e-09
4.99888e-06
-1.19109e-09
4.99792e-06
-1.14178e-09
4.99706e-06
-9.82856e-10
-1.42782e-09
5.00012e-06
5.00042e-06
5.00091e-06
5.00158e-06
5.00242e-06
5.00336e-06
5.00436e-06
5.00529e-06
5.00603e-06
5.00639e-06
5.00625e-06
5.00562e-06
5.00453e-06
5.0031e-06
5.0016e-06
5.00016e-06
4.99897e-06
4.99785e-06
4.99687e-06
)
;

boundaryField
{
    sides
    {
        type            calculated;
        value           uniform 0;
    }
    inlet
    {
        type            calculated;
        value           nonuniform List<scalar> 
20
(
-5e-06
-5e-06
-5e-06
-5e-06
-5e-06
-5e-06
-5e-06
-5e-06
-5e-06
-5e-06
-5e-06
-5e-06
-5e-06
-5e-06
-5e-06
-5e-06
-5e-06
-5e-06
-5e-06
-5e-06
)
;
    }
    outlet
    {
        type            calculated;
        value           nonuniform List<scalar> 
20
(
5.0019e-06
5.00141e-06
5.00151e-06
5.00143e-06
5.00172e-06
5.002e-06
5.00279e-06
5.00422e-06
5.00344e-06
4.99514e-06
4.99475e-06
5.00265e-06
5.00275e-06
5.00064e-06
4.99935e-06
4.99836e-06
4.99748e-06
4.99678e-06
4.99621e-06
4.99545e-06
)
;
    }
    frontAndBack
    {
        type            empty;
        value           nonuniform List<scalar> 0();
    }
}


// ************************************************************************* //
