/*--------------------------------*- C++ -*----------------------------------*\
  =========                 |
  \\      /  F ield         | OpenFOAM: The Open Source CFD Toolbox
   \\    /   O peration     | Website:  https://openfoam.org
    \\  /    A nd           | Version:  9
     \\/     M anipulation  |
\*---------------------------------------------------------------------------*/
FoamFile
{
    format      ascii;
    class       surfaceScalarField;
    location    "86";
    object      phi_0;
}
// * * * * * * * * * * * * * * * * * * * * * * * * * * * * * * * * * * * * * //

dimensions      [0 4 -1 0 0 0 0];

internalField   nonuniform List<scalar> 
760
(
5.00009e-06
-9.44682e-11
5.0004e-06
-3.05437e-10
5.00091e-06
-5.11513e-10
5.00162e-06
-7.06904e-10
5.00249e-06
-8.76775e-10
5.00349e-06
-1.00416e-09
5.00455e-06
-1.06156e-09
5.00557e-06
-1.01335e-09
5.0064e-06
-8.31029e-10
5.00692e-06
-5.20385e-10
5.00705e-06
-1.21045e-10
5.00665e-06
3.98748e-10
5.0058e-06
8.57433e-10
5.00469e-06
1.10563e-09
5.00352e-06
1.17517e-09
5.00257e-06
9.54768e-10
5.00185e-06
7.16159e-10
5.00161e-06
2.47216e-10
5.00151e-06
1.11014e-10
-3.89174e-10
5.00012e-06
-2.14446e-10
5.00045e-06
-6.32644e-10
5.00098e-06
-1.04574e-09
5.00172e-06
-1.44659e-09
5.00265e-06
-1.80792e-09
5.00374e-06
-2.09597e-09
5.00493e-06
-2.24897e-09
5.0061e-06
-2.19239e-09
5.00713e-06
-1.85055e-09
5.00777e-06
-1.16626e-09
5.00774e-06
-8.9923e-11
5.00725e-06
8.88566e-10
5.00626e-06
1.84674e-09
5.00495e-06
2.41886e-09
5.00368e-06
2.44894e-09
5.00277e-06
1.86098e-09
5.00224e-06
1.24587e-09
5.00191e-06
5.81849e-10
5.00165e-06
3.7168e-10
-1.45263e-10
5.00011e-06
-3.20261e-10
5.00043e-06
-9.53114e-10
5.00096e-06
-1.57995e-09
5.00172e-06
-2.20814e-09
5.00272e-06
-2.80657e-09
5.00394e-06
-3.31877e-09
5.00532e-06
-3.62565e-09
5.00672e-06
-3.59433e-09
5.00793e-06
-3.05803e-09
5.00872e-06
-1.95831e-09
5.00893e-06
-3.05753e-10
5.00825e-06
1.57139e-09
5.00687e-06
3.22638e-09
5.00515e-06
4.13492e-09
5.0035e-06
4.09414e-09
5.0023e-06
3.05768e-09
5.00166e-06
1.89083e-09
5.00147e-06
7.69524e-10
5.00144e-06
3.96829e-10
-2.21233e-10
5.0001e-06
-4.17899e-10
5.00041e-06
-1.26347e-09
5.00094e-06
-2.11703e-09
5.00175e-06
-3.01054e-09
5.00285e-06
-3.91319e-09
5.00428e-06
-4.74873e-09
5.00601e-06
-5.35237e-09
5.00795e-06
-5.52881e-09
5.00984e-06
-4.95167e-09
5.01107e-06
-3.19128e-09
5.0112e-06
-4.29392e-10
5.00999e-06
2.77036e-09
5.00765e-06
5.56981e-09
5.00514e-06
6.63475e-09
5.00347e-06
5.75955e-09
5.0027e-06
3.82771e-09
5.00248e-06
2.11035e-09
5.00231e-06
9.35565e-10
5.00199e-06
7.07183e-10
3.38574e-10
5.00008e-06
-4.99565e-10
5.00034e-06
-1.52261e-09
5.00083e-06
-2.61025e-09
5.00164e-06
-3.81303e-09
5.00286e-06
-5.13364e-09
5.00457e-06
-6.46427e-09
5.0068e-06
-7.57379e-09
5.00941e-06
-8.15176e-09
5.01239e-06
-7.91684e-09
5.01478e-06
-5.6004e-09
5.01482e-06
-4.6121e-10
5.01285e-06
4.74493e-09
5.00866e-06
9.73884e-09
5.00459e-06
1.07113e-08
5.00223e-06
8.11386e-09
5.00174e-06
4.32034e-09
5.00204e-06
1.80363e-09
5.00225e-06
7.21347e-10
5.00201e-06
9.47713e-10
6.26124e-10
5.00004e-06
-5.43326e-10
5.00019e-06
-1.67877e-09
5.00054e-06
-2.94954e-09
5.00121e-06
-4.48424e-09
5.00241e-06
-6.33258e-09
5.00452e-06
-8.57548e-09
5.0076e-06
-1.06551e-08
5.01167e-06
-1.22188e-08
5.01552e-06
-1.17813e-08
5.01902e-06
-9.07124e-09
5.02019e-06
-1.67384e-09
5.01602e-06
8.96076e-09
5.00951e-06
1.62515e-08
5.00421e-06
1.59997e-08
5.00217e-06
1.01578e-08
5.00249e-06
3.99855e-09
5.00327e-06
1.02782e-09
5.00339e-06
5.93738e-10
5.00279e-06
1.54275e-09
1.4216e-09
4.99998e-06
-5.26152e-10
4.99993e-06
-1.63685e-09
5.00003e-06
-3.04039e-09
5.00036e-06
-4.81303e-09
5.00122e-06
-7.19205e-09
5.00292e-06
-1.02791e-08
5.0068e-06
-1.45371e-08
5.01392e-06
-1.93425e-08
5.02375e-06
-2.1607e-08
5.03093e-06
-1.62172e-08
5.02875e-06
3.95338e-10
5.01672e-06
2.09307e-08
5.00418e-06
2.88226e-08
4.99873e-06
2.14624e-08
5.00057e-06
8.31711e-09
5.00284e-06
1.72967e-09
5.00372e-06
1.60491e-10
5.00366e-06
6.4821e-10
5.00305e-06
2.15955e-09
1.68063e-09
4.99986e-06
-3.93117e-10
4.99955e-06
-1.3224e-09
4.99912e-06
-2.61211e-09
4.99885e-06
-4.54238e-09
4.99933e-06
-7.66853e-09
5.00036e-06
-1.13087e-08
5.00365e-06
-1.78305e-08
5.00982e-06
-2.55124e-08
5.02491e-06
-3.66622e-08
5.05607e-06
-4.75411e-08
5.05017e-06
7.75551e-09
5.02317e-06
4.77888e-08
4.99816e-06
5.3801e-08
4.99349e-06
2.61421e-08
4.99946e-06
2.34998e-09
5.00407e-06
-2.87348e-09
5.00491e-06
-6.69241e-10
5.00373e-06
1.83412e-09
5.00351e-06
2.37973e-09
9.69841e-10
4.99977e-06
-1.60413e-10
4.99915e-06
-7.05813e-10
4.99792e-06
-1.37872e-09
4.99611e-06
-2.73221e-09
4.99402e-06
-5.5797e-09
4.99374e-06
-1.10326e-08
4.99945e-06
-2.35347e-08
5.01714e-06
-4.31974e-08
5.05567e-06
-7.52278e-08
5.06687e-06
-5.85732e-08
5.0496e-06
2.35661e-08
4.9965e-06
1.01011e-07
4.98932e-06
6.1014e-08
4.9959e-06
1.95402e-08
5.00018e-06
-1.93132e-09
5.00292e-06
-5.61108e-09
5.00252e-06
-2.54268e-10
5.00184e-06
2.52107e-09
5.00255e-06
1.67998e-09
6.75701e-11
4.99986e-06
-1.62569e-11
4.9992e-06
-5.1366e-11
4.99791e-06
-8.56238e-11
4.9953e-06
-1.27966e-10
4.98989e-06
-1.71213e-10
4.97908e-06
-2.20691e-10
4.95582e-06
-2.69074e-10
4.91295e-06
-3.26698e-10
4.83814e-06
-4.11364e-10
4.77997e-06
-4.69854e-10
4.80427e-06
-5.88316e-10
4.90606e-06
-7.31953e-10
4.96778e-06
-7.61385e-10
4.98822e-06
-9.11681e-10
4.98745e-06
-1.16397e-09
4.98326e-06
-1.42622e-09
4.98455e-06
-1.55758e-09
4.9889e-06
-1.8255e-09
4.99248e-06
-1.89462e-09
-2.58491e-09
4.99986e-06
1.28187e-10
4.99921e-06
6.02213e-10
4.99791e-06
1.21113e-09
4.99529e-06
2.48251e-09
4.98987e-06
5.24991e-09
4.97905e-06
1.06022e-08
4.95578e-06
2.3012e-08
4.91289e-06
4.25397e-08
4.83803e-06
7.44565e-08
4.77974e-06
5.78259e-08
4.80424e-06
-2.51928e-08
4.906e-06
-1.02464e-07
4.96777e-06
-6.25269e-08
4.98807e-06
-2.12048e-08
4.98736e-06
-4.57066e-10
4.98293e-06
2.99407e-09
4.98442e-06
-3.05383e-09
4.98888e-06
-6.28631e-09
4.99235e-06
-5.35957e-09
-4.98517e-09
4.99977e-06
3.61e-10
4.99915e-06
1.22307e-09
4.99792e-06
2.44197e-09
4.9961e-06
4.29612e-09
4.99402e-06
7.33514e-09
4.99373e-06
1.08896e-08
4.99943e-06
1.73147e-08
5.01708e-06
2.48862e-08
5.05559e-06
3.59157e-08
5.06711e-06
4.64187e-08
5.04954e-06
-7.30952e-09
4.9961e-06
-4.90907e-08
4.98886e-06
-5.5235e-08
4.9957e-06
-2.80391e-08
5.00011e-06
-4.87071e-09
5.00231e-06
7.84828e-10
5.00165e-06
-2.39719e-09
5.0009e-06
-5.53758e-09
5.00168e-06
-6.14036e-09
-5.9533e-09
4.99986e-06
4.94974e-10
4.99954e-06
1.54193e-09
4.99911e-06
2.87836e-09
4.99883e-06
4.57797e-09
4.99927e-06
6.88901e-09
5.00026e-06
9.89556e-09
5.00347e-06
1.41067e-08
5.0096e-06
1.8767e-08
5.02462e-06
2.09104e-08
5.05553e-06
1.54035e-08
5.04969e-06
-1.71871e-09
5.02283e-06
-2.21482e-08
4.99786e-06
-3.03093e-08
4.99315e-06
-2.33366e-08
4.99863e-06
-1.03494e-08
5.00345e-06
-4.02522e-09
5.00373e-06
-2.67463e-09
5.00235e-06
-4.16212e-09
5.00216e-06
-5.94476e-09
-6.53618e-09
4.99997e-06
5.15048e-10
4.99992e-06
1.59243e-09
5e-06
2.80402e-09
5.00031e-06
4.27457e-09
5.00113e-06
6.06164e-09
5.00279e-06
8.23108e-09
5.00667e-06
1.02227e-08
5.01378e-06
1.16725e-08
5.02358e-06
1.11262e-08
5.0307e-06
8.25865e-09
5.02841e-06
6.32141e-10
5.01623e-06
-1.00483e-08
5.00349e-06
-1.75623e-08
4.99776e-06
-1.7611e-08
4.99941e-06
-1.19862e-08
5.00161e-06
-6.21778e-09
5.0024e-06
-3.46444e-09
5.00213e-06
-3.88577e-09
5.00119e-06
-5.00349e-09
-5.97568e-09
5.00004e-06
4.75653e-10
5.00018e-06
1.44803e-09
5.0005e-06
2.48494e-09
5.00115e-06
3.6296e-09
5.00232e-06
4.88921e-09
5.00439e-06
6.15317e-09
5.00741e-06
7.19798e-09
5.01139e-06
7.69774e-09
5.01513e-06
7.39551e-09
5.01853e-06
4.88538e-09
5.01955e-06
-4.09186e-10
5.01522e-06
-5.70214e-09
5.00853e-06
-1.08662e-08
5.0031e-06
-1.2173e-08
5.00088e-06
-9.74744e-09
5.00101e-06
-6.34416e-09
5.00156e-06
-4.00587e-09
5.00131e-06
-3.6462e-09
5.00035e-06
-4.03993e-09
-4.97517e-09
5.00008e-06
3.97301e-10
5.00032e-06
1.20131e-09
5.00079e-06
2.01385e-09
5.00157e-06
2.85906e-09
5.00275e-06
3.70887e-09
5.00441e-06
4.4927e-09
5.00655e-06
5.04768e-09
5.00909e-06
5.15669e-09
5.01203e-06
4.46105e-09
5.0144e-06
2.51627e-09
5.01414e-06
-1.36342e-10
5.01208e-06
-3.6327e-09
5.00775e-06
-6.52937e-09
5.00349e-06
-7.90279e-09
5.00093e-06
-7.18388e-09
5.00013e-06
-5.5473e-09
5.00011e-06
-3.98225e-09
4.99987e-06
-3.42044e-09
4.99916e-06
-3.34105e-09
-4.17297e-09
5.0001e-06
2.99218e-10
5.0004e-06
9.02259e-10
5.0009e-06
1.50082e-09
5.00167e-06
2.09282e-09
5.00274e-06
2.65143e-09
5.00412e-06
3.11249e-09
5.00579e-06
3.38065e-09
5.00763e-06
3.31036e-09
5.00933e-06
2.75567e-09
5.01026e-06
1.5735e-09
5.01043e-06
-3.00766e-10
5.00903e-06
-2.23173e-09
5.0065e-06
-4.00469e-09
5.00368e-06
-5.0771e-09
5.00154e-06
-5.05846e-09
5.00034e-06
-4.35377e-09
4.9997e-06
-3.34581e-09
4.99916e-06
-2.89215e-09
4.99844e-06
-2.63202e-09
-3.21948e-09
5.00011e-06
1.97282e-10
5.00041e-06
5.92773e-10
5.00093e-06
9.83589e-10
5.00166e-06
1.35888e-09
5.00261e-06
1.69813e-09
5.00378e-06
1.95522e-09
5.00509e-06
2.06875e-09
5.00645e-06
1.95558e-09
5.00764e-06
1.5537e-09
5.00839e-06
8.26401e-10
5.00821e-06
-1.30984e-10
5.00733e-06
-1.36003e-09
5.0057e-06
-2.37782e-09
5.00368e-06
-3.06772e-09
5.00179e-06
-3.17319e-09
5.00033e-06
-2.90191e-09
4.99931e-06
-2.33116e-09
4.99852e-06
-2.10285e-09
4.99772e-06
-1.84224e-09
-2.28303e-09
5.00008e-06
1.13875e-10
5.00037e-06
3.02971e-10
5.00086e-06
4.9222e-10
5.00155e-06
6.7482e-10
5.00241e-06
8.35726e-10
5.00341e-06
9.529e-10
5.00448e-06
9.97769e-10
5.0055e-06
9.34679e-10
5.00632e-06
7.33427e-10
5.00679e-06
3.58051e-10
5.0068e-06
-1.44629e-10
5.00607e-06
-6.31607e-10
5.00479e-06
-1.09492e-09
5.00315e-06
-1.43228e-09
5.00148e-06
-1.50445e-09
5.00002e-06
-1.44113e-09
4.99888e-06
-1.19131e-09
4.99792e-06
-1.14098e-09
4.99707e-06
-9.82875e-10
-1.42801e-09
5.00011e-06
5.00042e-06
5.00091e-06
5.00158e-06
5.00242e-06
5.00337e-06
5.00436e-06
5.00529e-06
5.00603e-06
5.00639e-06
5.00625e-06
5.00562e-06
5.00453e-06
5.0031e-06
5.0016e-06
5.00016e-06
4.99898e-06
4.99785e-06
4.99688e-06
)
;

boundaryField
{
    sides
    {
        type            calculated;
        value           uniform 0;
    }
    inlet
    {
        type            calculated;
        value           nonuniform List<scalar> 
20
(
-5e-06
-5e-06
-5e-06
-5e-06
-5e-06
-5e-06
-5e-06
-5e-06
-5e-06
-5e-06
-5e-06
-5e-06
-5e-06
-5e-06
-5e-06
-5e-06
-5e-06
-5e-06
-5e-06
-5e-06
)
;
    }
    outlet
    {
        type            calculated;
        value           nonuniform List<scalar> 
20
(
5.0019e-06
5.00141e-06
5.00151e-06
5.00142e-06
5.00171e-06
5.002e-06
5.00279e-06
5.00422e-06
5.00344e-06
4.99514e-06
4.99475e-06
5.00265e-06
5.00275e-06
5.00064e-06
4.99935e-06
4.99836e-06
4.99748e-06
4.99678e-06
4.99621e-06
4.99545e-06
)
;
    }
    frontAndBack
    {
        type            empty;
        value           nonuniform List<scalar> 0();
    }
}


// ************************************************************************* //
