/*--------------------------------*- C++ -*----------------------------------*\
  =========                 |
  \\      /  F ield         | OpenFOAM: The Open Source CFD Toolbox
   \\    /   O peration     | Website:  https://openfoam.org
    \\  /    A nd           | Version:  9
     \\/     M anipulation  |
\*---------------------------------------------------------------------------*/
FoamFile
{
    format      ascii;
    class       volVectorField;
    location    "86";
    object      U;
}
// * * * * * * * * * * * * * * * * * * * * * * * * * * * * * * * * * * * * * //

dimensions      [0 1 -1 0 0 0 0];

internalField   nonuniform List<vector> 
400
(
(0.0999964 -2.42862e-06 0)
(0.100001 -7.05035e-06 0)
(0.10001 -1.13307e-05 0)
(0.100023 -1.52637e-05 0)
(0.10004 -1.87409e-05 0)
(0.100061 -2.16866e-05 0)
(0.100083 -2.37095e-05 0)
(0.100107 -2.45363e-05 0)
(0.100128 -2.36122e-05 0)
(0.100144 -2.10884e-05 0)
(0.100152 -1.67921e-05 0)
(0.100152 -1.28216e-05 0)
(0.10014 -9.86062e-06 0)
(0.10012 -9.27376e-06 0)
(0.100093 -9.94398e-06 0)
(0.100068 -1.35332e-05 0)
(0.100045 -1.56125e-05 0)
(0.100034 -2.00491e-05 0)
(0.100025 -1.88078e-05 0)
(0.100033 -2.68115e-05 0)
(0.099997 -2.64381e-06 0)
(0.100002 -7.86942e-06 0)
(0.100011 -1.28649e-05 0)
(0.100025 -1.74715e-05 0)
(0.100044 -2.13615e-05 0)
(0.100066 -2.40739e-05 0)
(0.100091 -2.46204e-05 0)
(0.100117 -2.20384e-05 0)
(0.100141 -1.53969e-05 0)
(0.100161 -4.68858e-06 0)
(0.100171 9.47384e-06 0)
(0.100168 2.48435e-05 0)
(0.100154 3.90505e-05 0)
(0.100129 4.77654e-05 0)
(0.1001 5.05782e-05 0)
(0.100071 4.52591e-05 0)
(0.10005 3.79342e-05 0)
(0.100037 2.58248e-05 0)
(0.100033 2.06345e-05 0)
(0.100029 8.15566e-06 0)
(0.0999969 -5.18644e-06 0)
(0.100002 -1.59038e-05 0)
(0.100011 -2.6756e-05 0)
(0.100025 -3.74337e-05 0)
(0.100044 -4.74022e-05 0)
(0.100068 -5.56142e-05 0)
(0.100096 -6.04008e-05 0)
(0.100127 -5.97733e-05 0)
(0.100156 -5.17538e-05 0)
(0.10018 -3.50795e-05 0)
(0.100193 -1.09193e-05 0)
(0.100192 1.63536e-05 0)
(0.100174 4.02816e-05 0)
(0.100142 5.21061e-05 0)
(0.100102 5.00411e-05 0)
(0.100066 3.54753e-05 0)
(0.100037 2.04294e-05 0)
(0.100026 4.7333e-06 0)
(0.100021 -2.30125e-07 0)
(0.100029 -1.16814e-05 0)
(0.0999963 -7.28139e-06 0)
(0.100001 -2.2257e-05 0)
(0.10001 -3.75591e-05 0)
(0.100025 -5.3089e-05 0)
(0.100046 -6.81095e-05 0)
(0.100073 -8.1045e-05 0)
(0.100107 -8.89632e-05 0)
(0.100146 -8.861e-05 0)
(0.100186 -7.55607e-05 0)
(0.100222 -4.74747e-05 0)
(0.100243 -2.1924e-06 0)
(0.10024 4.93118e-05 0)
(0.10021 9.37496e-05 0)
(0.100159 0.000114023 0)
(0.100104 0.000105512 0)
(0.100061 7.43656e-05 0)
(0.100041 4.24665e-05 0)
(0.100035 1.70689e-05 0)
(0.10004 1.02087e-05 0)
(0.100035 4.08115e-08 0)
(0.0999953 -9.045e-06 0)
(0.0999994 -2.78313e-05 0)
(0.100008 -4.77583e-05 0)
(0.100023 -6.94273e-05 0)
(0.100044 -9.20892e-05 0)
(0.100076 -0.000113936 0)
(0.100117 -0.000129946 0)
(0.100168 -0.000133818 0)
(0.100225 -0.000117568 0)
(0.100281 -7.79445e-05 0)
(0.100318 -1.70013e-05 0)
(0.100316 5.79407e-05 0)
(0.100267 0.000123037 0)
(0.100181 0.000151136 0)
(0.100091 0.000137495 0)
(0.100029 9.64428e-05 0)
(0.10001 5.81182e-05 0)
(0.100019 3.13671e-05 0)
(0.100036 2.61154e-05 0)
(0.100043 1.67534e-05 0)
(0.0999939 -1.03182e-05 0)
(0.0999967 -3.1881e-05 0)
(0.100003 -5.62551e-05 0)
(0.100015 -8.44823e-05 0)
(0.100036 -0.000117261 0)
(0.10007 -0.000152509 0)
(0.100122 -0.000186004 0)
(0.100193 -0.000205508 0)
(0.100277 -0.000191346 0)
(0.100357 -0.000119937 0)
(0.100414 7.97262e-06 0)
(0.100415 0.000154308 0)
(0.100339 0.000243402 0)
(0.100208 0.000230431 0)
(0.100084 0.000142973 0)
(0.100015 4.9201e-05 0)
(0.100012 1.23443e-06 0)
(0.100035 -8.69665e-06 0)
(0.100064 5.86164e-06 0)
(0.100055 4.94232e-06 0)
(0.0999923 -1.02896e-05 0)
(0.0999927 -3.33785e-05 0)
(0.0999948 -6.02129e-05 0)
(0.100001 -9.61981e-05 0)
(0.100016 -0.000139226 0)
(0.100046 -0.000194664 0)
(0.100103 -0.000249027 0)
(0.100202 -0.000308542 0)
(0.10035 -0.000323494 0)
(0.100519 -0.000287982 0)
(0.100632 -6.78359e-05 0)
(0.100591 0.000255516 0)
(0.100383 0.00048308 0)
(0.100117 0.000473719 0)
(0.0999478 0.000302807 0)
(0.0999218 0.000126357 0)
(0.0999926 4.30065e-05 0)
(0.100056 3.24797e-05 0)
(0.100095 5.60372e-05 0)
(0.100067 5.33401e-05 0)
(0.0999904 -9.31498e-06 0)
(0.0999873 -2.89019e-05 0)
(0.0999806 -5.77021e-05 0)
(0.0999769 -9.56734e-05 0)
(0.0999774 -0.000157758 0)
(0.100001 -0.000234551 0)
(0.100047 -0.000340327 0)
(0.10016 -0.000412562 0)
(0.100335 -0.000437408 0)
(0.100658 -0.000255391 0)
(0.101006 7.65123e-05 0)
(0.101014 0.000427171 0)
(0.100606 0.000472022 0)
(0.100072 0.000278252 0)
(0.0997818 7.35704e-05 0)
(0.0997967 -2.74051e-05 0)
(0.0999671 -2.86216e-05 0)
(0.100089 -1.06776e-06 0)
(0.100138 2.11107e-05 0)
(0.100087 1.02496e-05 0)
(0.0999894 -4.97628e-06 0)
(0.0999805 -2.03942e-05 0)
(0.0999628 -3.86433e-05 0)
(0.0999377 -7.35009e-05 0)
(0.0999105 -0.000133883 0)
(0.0999018 -0.000248176 0)
(0.0999567 -0.000468731 0)
(0.100144 -0.00080686 0)
(0.100536 -0.00132913 0)
(0.101062 -0.00149312 0)
(0.101323 0.000385681 0)
(0.100996 0.00187477 0)
(0.100241 0.00157824 0)
(0.0997201 0.000573929 0)
(0.0996445 -3.15731e-05 0)
(0.0998218 -0.000126231 0)
(0.100024 -9.35273e-06 0)
(0.100107 6.34936e-05 0)
(0.100113 6.51897e-05 0)
(0.100055 2.43875e-05 0)
(0.0999703 -1.99925e-06 0)
(0.100006 -6.66022e-06 0)
(0.0999077 -1.51276e-05 0)
(0.0999716 -2.48863e-05 0)
(0.0997257 -5.92652e-05 0)
(0.099844 -0.000113141 0)
(0.0992765 -0.000288182 0)
(0.0996752 -0.000558783 0)
(0.099118 -0.00115364 0)
(0.102003 -0.00141518 0)
(0.106281 2.96899e-05 0)
(0.101267 0.00146715 0)
(0.0990078 0.00130725 0)
(0.0982225 0.000513114 0)
(0.0988553 1.93524e-05 0)
(0.0996051 -7.81094e-05 0)
(0.099935 -1.107e-05 0)
(0.0999521 2.48954e-05 0)
(0.0998669 1.74646e-05 0)
(0.099849 -1.84645e-05 0)
(0.099971 1.3301e-06 0)
(0.100006 4.60958e-06 0)
(0.0999083 1.17531e-05 0)
(0.0999721 1.99775e-05 0)
(0.0997261 5.28975e-05 0)
(0.0998441 0.00010509 0)
(0.0992764 0.000278472 0)
(0.0996744 0.000546939 0)
(0.0991168 0.001139 0)
(0.102001 0.00139769 0)
(0.106276 -5.38089e-05 0)
(0.101265 -0.00149445 0)
(0.099008 -0.00133979 0)
(0.0982223 -0.000552727 0)
(0.0988539 -6.48312e-05 0)
(0.0996016 2.47801e-05 0)
(0.099931 -4.72627e-05 0)
(0.0999478 -0.000100227 0)
(0.0998658 -9.88529e-05 0)
(0.0998442 -8.88691e-05 0)
(0.0999915 4.32211e-06 0)
(0.0999825 1.84056e-05 0)
(0.0999647 3.5336e-05 0)
(0.0999396 6.8726e-05 0)
(0.0999124 0.000127647 0)
(0.0999038 0.000240132 0)
(0.0999583 0.000458795 0)
(0.100146 0.0007942 0)
(0.100537 0.00131384 0)
(0.101063 0.00147347 0)
(0.101325 -0.000406472 0)
(0.100996 -0.00190225 0)
(0.100235 -0.00160977 0)
(0.0997122 -0.000611991 0)
(0.0996387 -8.45177e-06 0)
(0.0998173 7.74185e-05 0)
(0.100015 -4.28062e-05 0)
(0.100092 -0.000130544 0)
(0.100093 -0.000137957 0)
(0.100038 -0.000125092 0)
(0.0999938 8.69261e-06 0)
(0.0999906 2.70171e-05 0)
(0.0999838 5.44685e-05 0)
(0.0999798 9.1027e-05 0)
(0.0999799 0.000151383 0)
(0.100003 0.000226165 0)
(0.100048 0.000329336 0)
(0.100159 0.000399022 0)
(0.100332 0.000421292 0)
(0.100655 0.000236825 0)
(0.101 -9.74383e-05 0)
(0.101007 -0.000454077 0)
(0.100601 -0.000501969 0)
(0.100067 -0.000312814 0)
(0.099775 -0.000113125 0)
(0.0997846 -2.52495e-05 0)
(0.099951 -3.23507e-05 0)
(0.100066 -7.41543e-05 0)
(0.100111 -9.67199e-05 0)
(0.100057 -0.000107399 0)
(0.099997 9.71723e-06 0)
(0.0999973 3.15834e-05 0)
(0.0999992 5.71493e-05 0)
(0.100005 9.17408e-05 0)
(0.100019 0.000133349 0)
(0.100049 0.000187102 0)
(0.100105 0.000239936 0)
(0.100203 0.000297585 0)
(0.100351 0.000311205 0)
(0.100519 0.000273395 0)
(0.100631 5.03557e-05 0)
(0.100586 -0.000275387 0)
(0.100375 -0.000507839 0)
(0.100104 -0.000507082 0)
(0.0999303 -0.000344947 0)
(0.0998989 -0.000179449 0)
(0.0999682 -0.000102098 0)
(0.100026 -0.000105832 0)
(0.100065 -0.000130631 0)
(0.100025 -0.000151531 0)
(0.1 9.81799e-06 0)
(0.100003 3.02942e-05 0)
(0.100009 5.35513e-05 0)
(0.10002 8.05277e-05 0)
(0.10004 0.000112073 0)
(0.100073 0.00014589 0)
(0.100124 0.000177929 0)
(0.100193 0.000195278 0)
(0.100276 0.000178374 0)
(0.100354 0.000103406 0)
(0.100408 -2.78053e-05 0)
(0.100405 -0.000178259 0)
(0.100326 -0.000271126 0)
(0.10019 -0.000263194 0)
(0.100064 -0.000177898 0)
(0.0999891 -8.95241e-05 0)
(0.0999836 -4.26496e-05 0)
(0.0999983 -4.46461e-05 0)
(0.100024 -6.14931e-05 0)
(0.100002 -8.48034e-05 0)
(0.100003 8.60564e-06 0)
(0.100007 2.64552e-05 0)
(0.100015 4.54468e-05 0)
(0.100029 6.61136e-05 0)
(0.10005 8.76634e-05 0)
(0.10008 0.000108345 0)
(0.10012 0.000123053 0)
(0.100169 0.000125506 0)
(0.100225 0.000107547 0)
(0.100279 6.5769e-05 0)
(0.100315 1.79299e-06 0)
(0.100309 -7.70541e-05 0)
(0.100256 -0.000144982 0)
(0.100166 -0.000177398 0)
(0.100072 -0.000166745 0)
(0.100003 -0.00013474 0)
(0.0999794 -0.000102851 0)
(0.0999768 -9.35792e-05 0)
(0.0999894 -9.44218e-05 0)
(0.0999773 -0.000110805 0)
(0.100005 6.89422e-06 0)
(0.10001 2.09957e-05 0)
(0.100019 3.5451e-05 0)
(0.100033 5.0153e-05 0)
(0.100053 6.43504e-05 0)
(0.100079 7.64853e-05 0)
(0.100111 8.37414e-05 0)
(0.100148 8.27056e-05 0)
(0.100186 6.92813e-05 0)
(0.100218 4.07308e-05 0)
(0.100235 -4.63885e-06 0)
(0.100228 -5.75459e-05 0)
(0.100195 -0.000103476 0)
(0.100139 -0.000128045 0)
(0.100077 -0.000122861 0)
(0.100023 -9.93591e-05 0)
(0.0999952 -7.01815e-05 0)
(0.0999764 -5.56974e-05 0)
(0.0999768 -4.87455e-05 0)
(0.0999567 -5.98423e-05 0)
(0.100007 4.99091e-06 0)
(0.100012 1.49879e-05 0)
(0.100021 2.47209e-05 0)
(0.100034 3.39338e-05 0)
(0.100053 4.21832e-05 0)
(0.100076 4.83055e-05 0)
(0.100103 5.08315e-05 0)
(0.100131 4.73272e-05 0)
(0.100159 3.61649e-05 0)
(0.100182 1.55933e-05 0)
(0.100193 -1.16541e-05 0)
(0.100186 -4.20872e-05 0)
(0.100162 -6.81112e-05 0)
(0.100122 -8.41793e-05 0)
(0.100078 -8.49795e-05 0)
(0.100032 -7.70826e-05 0)
(0.100001 -6.38927e-05 0)
(0.0999727 -5.98467e-05 0)
(0.0999649 -5.63038e-05 0)
(0.0999395 -6.85336e-05 0)
(0.100009 3.41144e-06 0)
(0.100013 1.0459e-05 0)
(0.100021 1.74804e-05 0)
(0.100034 2.42258e-05 0)
(0.100051 3.0276e-05 0)
(0.100071 3.50066e-05 0)
(0.100094 3.7527e-05 0)
(0.100117 3.68481e-05 0)
(0.100138 3.19341e-05 0)
(0.100153 2.23457e-05 0)
(0.10016 8.53735e-06 0)
(0.100155 -7.10837e-06 0)
(0.100137 -2.0645e-05 0)
(0.100105 -2.97481e-05 0)
(0.100068 -3.12553e-05 0)
(0.100027 -2.82405e-05 0)
(0.0999971 -2.04191e-05 0)
(0.0999657 -1.7099e-05 0)
(0.0999542 -1.20521e-05 0)
(0.0999258 -1.99061e-05 0)
(0.10001 -4.3094e-07 0)
(0.100015 -1.00119e-06 0)
(0.100023 -1.28604e-06 0)
(0.100036 -1.4564e-06 0)
(0.100053 -1.6867e-06 0)
(0.100072 -2.26904e-06 0)
(0.100094 -3.37831e-06 0)
(0.100115 -5.36487e-06 0)
(0.100134 -8.21813e-06 0)
(0.100147 -1.22679e-05 0)
(0.100152 -1.70617e-05 0)
(0.100145 -2.31864e-05 0)
(0.100129 -2.90874e-05 0)
(0.1001 -3.41524e-05 0)
(0.100069 -3.59877e-05 0)
(0.10003 -3.68331e-05 0)
(0.100003 -3.43117e-05 0)
(0.0999669 -3.53899e-05 0)
(0.0999558 -3.28786e-05 0)
(0.0999146 -4.10908e-05 0)
)
;

boundaryField
{
    sides
    {
        type            calculated;
        value           nonuniform List<vector> 
40
(
(0.10001 0 0)
(0.100015 0 0)
(0.100023 0 0)
(0.100036 0 0)
(0.100053 0 0)
(0.100072 0 0)
(0.100094 0 0)
(0.100115 0 0)
(0.100134 0 0)
(0.100147 0 0)
(0.100152 0 0)
(0.100145 0 0)
(0.100129 0 0)
(0.1001 0 0)
(0.100069 0 0)
(0.10003 0 0)
(0.100003 0 0)
(0.0999669 0 0)
(0.0999558 0 0)
(0.0999146 0 0)
(0.0999964 0 0)
(0.100001 0 0)
(0.10001 0 0)
(0.100023 0 0)
(0.10004 0 0)
(0.100061 0 0)
(0.100083 0 0)
(0.100107 0 0)
(0.100128 0 0)
(0.100144 0 0)
(0.100152 0 0)
(0.100152 0 0)
(0.10014 0 0)
(0.10012 0 0)
(0.100093 0 0)
(0.100068 0 0)
(0.100045 0 0)
(0.100034 0 0)
(0.100025 0 0)
(0.100033 0 0)
)
;
    }
    inlet
    {
        type            calculated;
        value           nonuniform List<vector> 
20
(
(0.0999962 0 0)
(0.0999967 0 0)
(0.0999967 0 0)
(0.0999961 0 0)
(0.0999951 0 0)
(0.0999938 0 0)
(0.0999923 0 0)
(0.0999909 0 0)
(0.0999899 0 0)
(0.0999898 0 0)
(0.0999905 0 0)
(0.0999919 0 0)
(0.0999942 0 0)
(0.099997 0 0)
(0.0999999 0 0)
(0.100003 0 0)
(0.100005 0 0)
(0.100007 0 0)
(0.100008 0 0)
(0.10001 0 0)
)
;
    }
    outlet
    {
        type            calculated;
        value           nonuniform List<vector> 
20
(
(0.100033 -2.68116e-05 0)
(0.100029 8.15565e-06 0)
(0.10003 -1.16815e-05 0)
(0.100034 4.08114e-08 0)
(0.100043 1.67534e-05 0)
(0.100054 4.94228e-06 0)
(0.100066 5.33394e-05 0)
(0.100085 1.02494e-05 0)
(0.100054 2.43872e-05 0)
(0.0998505 -1.84648e-05 0)
(0.0998454 -8.88702e-05 0)
(0.100037 -0.000125091 0)
(0.100055 -0.000107397 0)
(0.100024 -0.000151529 0)
(0.100001 -8.48024e-05 0)
(0.0999766 -0.000110804 0)
(0.0999559 -5.98418e-05 0)
(0.0999386 -6.8533e-05 0)
(0.099925 -1.9906e-05 0)
(0.0999132 -4.10902e-05 0)
)
;
    }
    frontAndBack
    {
        type            empty;
    }
}


// ************************************************************************* //
