/*--------------------------------*- C++ -*----------------------------------*\
  =========                 |
  \\      /  F ield         | OpenFOAM: The Open Source CFD Toolbox
   \\    /   O peration     | Website:  https://openfoam.org
    \\  /    A nd           | Version:  9
     \\/     M anipulation  |
\*---------------------------------------------------------------------------*/
FoamFile
{
    format      ascii;
    class       volVectorField;
    location    "56";
    object      ddtCorrDdt0(hU);
}
// * * * * * * * * * * * * * * * * * * * * * * * * * * * * * * * * * * * * * //

dimensions      [0 2 -2 0 0 0 0];

internalField   nonuniform List<vector> 
400
(
(-1.0505e-09 -1.42757e-09 0)
(1.79512e-13 -1.2052e-09 0)
(3.30927e-09 -1.84499e-09 0)
(2.52543e-09 -6.77336e-10 0)
(-9.80684e-10 5.31566e-10 0)
(-4.14463e-09 -2.57307e-10 0)
(-7.5983e-09 -3.30657e-09 0)
(-7.79519e-09 -2.88484e-09 0)
(-6.58067e-09 -1.60908e-09 0)
(-7.47529e-09 3.00076e-09 0)
(-6.32145e-09 5.11429e-09 0)
(-5.73514e-09 1.70144e-09 0)
(-2.67276e-09 8.54423e-10 0)
(2.11211e-09 -1.15944e-10 0)
(5.50454e-09 2.50952e-09 0)
(6.33423e-09 3.32753e-09 0)
(3.58684e-09 1.13243e-09 0)
(2.36366e-09 -7.95454e-10 0)
(5.04085e-09 -6.95448e-10 0)
(7.92599e-09 2.03367e-10 0)
(4.65497e-10 -3.6774e-09 0)
(8.96413e-10 -4.65222e-09 0)
(2.66153e-09 -5.69579e-09 0)
(1.27219e-09 -1.79677e-09 0)
(-1.82302e-09 1.57204e-09 0)
(-6.0975e-09 -2.22084e-09 0)
(-7.4517e-09 -7.96416e-09 0)
(-7.11328e-09 -7.57133e-09 0)
(-5.00709e-09 -1.38313e-09 0)
(-2.85512e-09 4.5314e-09 0)
(-8.40076e-09 1.02977e-08 0)
(-4.75342e-09 4.41867e-09 0)
(-3.21341e-09 1.0433e-09 0)
(6.99596e-10 1.6512e-09 0)
(4.02248e-09 6.78944e-09 0)
(2.49087e-09 1.00991e-08 0)
(2.05372e-09 5.72615e-09 0)
(4.02086e-09 -3.64803e-09 0)
(7.39308e-09 -6.39908e-09 0)
(8.06044e-09 -1.23734e-09 0)
(4.60098e-10 -4.62644e-09 0)
(1.9382e-09 -9.26319e-09 0)
(2.54264e-09 -8.51822e-09 0)
(1.02457e-09 -1.83011e-09 0)
(-3.56301e-09 4.59189e-10 0)
(-7.35229e-09 -6.45487e-09 0)
(-8.14599e-09 -9.69128e-09 0)
(-3.49126e-09 -9.38899e-09 0)
(-5.57751e-09 -1.65181e-10 0)
(-1.60243e-09 4.77629e-09 0)
(-4.79166e-09 7.56805e-09 0)
(-6.35585e-09 9.19092e-09 0)
(1.83175e-09 -3.86166e-09 0)
(1.28414e-09 3.449e-10 0)
(2.17733e-09 8.6642e-09 0)
(-4.58844e-10 1.43248e-08 0)
(-4.38417e-09 1.191e-08 0)
(-1.02506e-09 1.10535e-09 0)
(8.17155e-09 -4.72506e-09 0)
(1.06419e-08 -1.25786e-09 0)
(-2.94374e-10 -4.4777e-09 0)
(1.78722e-09 -1.26861e-08 0)
(2.43942e-09 -9.72115e-09 0)
(-1.77099e-10 -2.58418e-09 0)
(-4.89132e-09 -3.86566e-09 0)
(-7.84825e-09 -7.68431e-09 0)
(-4.87414e-09 -9.64534e-09 0)
(-3.56775e-09 -6.11296e-09 0)
(6.36944e-10 -9.61346e-09 0)
(-1.03272e-08 9.46526e-09 0)
(7.37425e-09 3.08038e-09 0)
(-6.85452e-09 3.10756e-09 0)
(-2.01573e-09 -3.3983e-09 0)
(1.15076e-08 -1.00769e-08 0)
(4.61022e-09 1.91467e-09 0)
(-9.31874e-10 1.38017e-08 0)
(-3.09477e-09 1.45177e-08 0)
(-8.12158e-10 3.01956e-09 0)
(3.45509e-09 -5.35838e-09 0)
(4.92252e-09 -1.4038e-09 0)
(-1.33618e-09 -4.6643e-09 0)
(7.762e-10 -1.38467e-08 0)
(5.61547e-10 -1.04287e-08 0)
(-1.95662e-09 -5.55944e-09 0)
(-4.60623e-09 -5.41275e-09 0)
(-4.42804e-09 -5.22636e-09 0)
(-4.41402e-10 -4.85329e-09 0)
(-5.35568e-09 -1.29375e-08 0)
(6.28093e-10 -9.51119e-09 0)
(1.99043e-10 -6.86581e-09 0)
(-1.89357e-08 1.16416e-08 0)
(1.42825e-08 -1.23944e-08 0)
(-6.33919e-09 -6.18419e-09 0)
(2.09721e-09 -9.96481e-09 0)
(1.65668e-08 -8.50631e-09 0)
(7.15345e-09 4.43823e-09 0)
(-4.00141e-09 1.09074e-08 0)
(-6.30237e-09 1.70394e-09 0)
(-5.93915e-10 -6.57524e-09 0)
(3.43435e-09 -1.47732e-09 0)
(-1.84071e-09 -6.38393e-09 0)
(-5.86591e-10 -1.40689e-08 0)
(-2.13486e-09 -1.13054e-08 0)
(-3.12663e-09 -6.83365e-09 0)
(-2.42592e-09 -2.59152e-09 0)
(1.67821e-09 1.95628e-10 0)
(-3.17918e-09 -5.49654e-09 0)
(1.7939e-09 -1.79776e-08 0)
(-1.71456e-08 -8.41237e-09 0)
(1.55132e-08 -1.49283e-08 0)
(-1.13359e-08 4.61978e-09 0)
(-1.36228e-08 1.13187e-08 0)
(1.83471e-08 -2.01543e-08 0)
(-3.68826e-09 -1.16348e-08 0)
(2.71448e-09 -7.5891e-09 0)
(1.41358e-08 -1.73077e-09 0)
(9.46907e-09 4.2918e-09 0)
(1.18318e-09 -8.28123e-10 0)
(-4.14404e-09 -5.87298e-09 0)
(-3.73328e-09 -1.25676e-09 0)
(-1.352e-09 -8.57458e-09 0)
(-1.34328e-09 -1.42138e-08 0)
(-4.20719e-09 -1.14986e-08 0)
(-3.03802e-09 -5.01923e-09 0)
(1.77543e-09 2.52943e-09 0)
(2.6486e-09 2.26316e-09 0)
(6.07195e-10 -9.41776e-09 0)
(-8.42374e-09 -1.33854e-08 0)
(1.44665e-09 -1.72288e-08 0)
(-3.11811e-08 2.72318e-08 0)
(6.82328e-08 -1.50034e-07 0)
(-2.85128e-08 2.90208e-08 0)
(-2.79319e-08 5.36418e-09 0)
(9.05808e-09 -1.01885e-08 0)
(4.72682e-09 -2.86459e-09 0)
(9.74372e-09 1.51111e-09 0)
(1.31759e-08 4.24261e-10 0)
(6.99497e-09 -8.40933e-09 0)
(-1.22205e-09 -1.20101e-08 0)
(-3.73113e-09 -3.22057e-09 0)
(1.71057e-10 -9.22602e-09 0)
(-1.40891e-09 -1.3133e-08 0)
(-4.57146e-09 -9.89144e-09 0)
(-1.28022e-09 -1.97577e-09 0)
(3.02508e-09 5.79989e-09 0)
(3.6156e-09 1.67478e-10 0)
(-2.22505e-09 -1.25392e-08 0)
(-5.53663e-09 -1.18152e-08 0)
(1.21247e-08 -2.80087e-09 0)
(-1.63245e-07 -1.79549e-08 0)
(5.60414e-07 1.53789e-07 0)
(2.0329e-07 -2.84021e-08 0)
(-3.80419e-08 -3.08937e-10 0)
(-2.51993e-08 6.5968e-09 0)
(-3.96428e-09 6.18279e-09 0)
(5.54063e-09 6.81693e-09 0)
(1.29841e-08 1.53582e-10 0)
(1.12985e-08 -1.06461e-08 0)
(2.45957e-09 -1.30788e-08 0)
(-1.867e-09 -3.76798e-09 0)
(1.94965e-09 -7.53892e-09 0)
(-7.05205e-10 -9.31881e-09 0)
(-3.92455e-09 -5.9138e-09 0)
(4.23162e-10 7.56347e-10 0)
(3.20863e-09 5.32662e-09 0)
(-2.99435e-10 -1.70957e-09 0)
(-1.44314e-09 -1.21233e-08 0)
(-5.73536e-10 -7.3934e-09 0)
(-2.07513e-08 6.40315e-09 0)
(1.56566e-07 -1.3595e-08 0)
(-5.66011e-07 1.55324e-07 0)
(-2.03686e-07 -2.85965e-08 0)
(3.11485e-08 5.04869e-09 0)
(6.39479e-09 1.63417e-08 0)
(-1.21782e-08 1.51555e-08 0)
(-7.91539e-09 1.04809e-08 0)
(8.98707e-09 4.39469e-10 0)
(1.03873e-08 -9.7117e-09 0)
(6.4807e-09 -1.08318e-08 0)
(4.57016e-09 -5.31516e-09 0)
(3.64574e-09 -3.70577e-09 0)
(2.25888e-10 -3.06286e-09 0)
(-2.89448e-09 -6.66302e-11 0)
(1.13885e-09 1.87825e-09 0)
(1.84148e-09 2.58829e-09 0)
(-1.61089e-09 -1.69028e-09 0)
(-1.8367e-09 -6.13593e-09 0)
(4.37887e-09 1.90026e-10 0)
(-8.32486e-09 -1.31528e-10 0)
(2.89187e-08 3.08956e-08 0)
(-6.84894e-08 -1.52749e-07 0)
(3.19931e-08 3.459e-08 0)
(3.52181e-08 1.14662e-08 0)
(-1.54751e-08 6.76258e-09 0)
(-1.86049e-08 1.19667e-08 0)
(-1.62085e-08 8.71938e-09 0)
(-9.88879e-09 1.77822e-09 0)
(8.13867e-09 -2.25863e-09 0)
(8.30139e-09 -3.28561e-09 0)
(2.76515e-09 -3.22303e-09 0)
(4.32475e-09 1.53504e-09 0)
(1.21914e-09 3.97243e-09 0)
(-2.71336e-09 5.20809e-09 0)
(8.28807e-10 2.42168e-09 0)
(1.1492e-09 -1.61698e-09 0)
(-2.76875e-09 1.10691e-09 0)
(1.71531e-09 2.6063e-09 0)
(-1.48778e-09 -2.9292e-10 0)
(1.54245e-08 3.93979e-10 0)
(-4.77708e-08 -3.02342e-09 0)
(4.19368e-08 -1.34383e-07 0)
(3.88049e-08 -7.36619e-09 0)
(-1.38153e-08 -8.62136e-09 0)
(7.85572e-09 -3.64334e-09 0)
(-1.24875e-08 -6.02465e-10 0)
(-1.96861e-08 1.23542e-09 0)
(-5.34268e-09 3.64206e-09 0)
(9.10344e-09 7.18815e-09 0)
(7.27332e-09 4.70088e-09 0)
(3.02164e-09 2.43194e-10 0)
(3.8374e-09 6.61373e-09 0)
(1.26404e-09 9.82106e-09 0)
(-2.86022e-09 8.793e-09 0)
(-6.44826e-10 2.90777e-09 0)
(1.58818e-09 -2.98312e-09 0)
(-1.09628e-09 2.561e-09 0)
(-1.30567e-09 1.23507e-08 0)
(2.7812e-09 1.0288e-10 0)
(-1.42296e-10 -5.04358e-09 0)
(-1.231e-07 -2.36709e-08 0)
(2.64715e-08 1.69687e-07 0)
(1.92039e-07 1.95537e-09 0)
(3.33612e-08 -4.88394e-09 0)
(-3.30157e-09 -8.17799e-09 0)
(-1.21372e-08 -1.46493e-08 0)
(-9.64471e-09 -8.00232e-09 0)
(3.15217e-09 2.50859e-09 0)
(9.86391e-09 9.9764e-09 0)
(2.98847e-09 7.40536e-09 0)
(-1.22491e-09 -1.75151e-10 0)
(2.27973e-09 9.70538e-09 0)
(4.97742e-10 1.37456e-08 0)
(-3.21832e-09 1.0563e-08 0)
(-1.86377e-09 4.12023e-09 0)
(1.10224e-09 -2.18328e-09 0)
(2.039e-09 2.93667e-09 0)
(-2.88442e-09 1.3509e-08 0)
(-2.95734e-09 1.01859e-08 0)
(-1.05103e-08 -9.08037e-09 0)
(1.20386e-07 -1.053e-08 0)
(1.02727e-10 1.48636e-07 0)
(-2.10795e-07 7.00337e-09 0)
(-2.74796e-08 -3.52164e-09 0)
(-6.22263e-09 -1.07754e-08 0)
(-4.99876e-09 -1.21309e-08 0)
(7.57123e-09 -7.42062e-09 0)
(1.29201e-08 -8.6857e-11 0)
(8.92224e-09 8.8956e-09 0)
(-2.37398e-10 7.46722e-09 0)
(-2.58928e-09 -1.03257e-09 0)
(5.488e-10 9.7335e-09 0)
(-2.20904e-10 1.59725e-08 0)
(-2.78266e-09 1.19673e-08 0)
(-3.03591e-09 6.04277e-09 0)
(-1.1064e-11 9.456e-11 0)
(1.59916e-09 1.34168e-09 0)
(-2.30867e-09 1.12294e-08 0)
(-7.04221e-09 1.70683e-08 0)
(-1.04315e-08 4.61938e-09 0)
(3.07242e-08 8.10142e-09 0)
(-6.35955e-08 -1.65369e-07 0)
(-1.39239e-08 -2.22453e-08 0)
(-4.61445e-09 1.69544e-09 0)
(-1.30801e-08 1.66567e-09 0)
(7.0906e-09 3.46612e-09 0)
(1.64195e-08 4.65975e-11 0)
(1.4537e-08 -1.53967e-09 0)
(5.64041e-09 6.47165e-09 0)
(-2.74699e-09 7.11496e-09 0)
(-1.75509e-09 -1.28305e-09 0)
(-2.74754e-10 7.75595e-09 0)
(3.32833e-10 1.67213e-08 0)
(-1.11854e-09 1.35769e-08 0)
(-3.13744e-09 7.70657e-09 0)
(-2.88918e-09 2.82907e-09 0)
(-1.28101e-10 3.33873e-10 0)
(-7.66239e-10 7.08415e-09 0)
(-7.33011e-09 1.74443e-08 0)
(-1.21079e-09 1.85995e-08 0)
(-1.5012e-08 4.0695e-10 0)
(3.05622e-09 -1.65338e-08 0)
(-1.86249e-09 8.50407e-09 0)
(-1.19112e-08 7.09924e-09 0)
(7.24849e-09 1.73512e-08 0)
(1.61343e-08 1.41744e-08 0)
(1.63925e-08 3.53358e-09 0)
(9.09459e-09 -3.91532e-09 0)
(-3.66565e-10 3.05546e-09 0)
(-3.73544e-09 6.88862e-09 0)
(1.76328e-10 -5.9794e-10 0)
(4.78384e-12 6.2835e-09 0)
(2.02016e-09 1.57744e-08 0)
(1.18352e-09 1.33905e-08 0)
(-2.53531e-09 7.68291e-09 0)
(-5.40626e-09 4.42336e-09 0)
(-3.60499e-09 2.2e-09 0)
(-1.31327e-09 3.41473e-09 0)
(-2.03388e-09 1.1049e-08 0)
(-5.04256e-09 1.54967e-08 0)
(-4.00303e-09 4.96876e-09 0)
(-1.59772e-10 1.05299e-08 0)
(-6.93266e-09 6.31137e-09 0)
(1.41175e-09 2.12469e-08 0)
(1.18042e-08 2.44538e-08 0)
(1.53611e-08 1.45293e-08 0)
(9.38928e-09 -2.34643e-10 0)
(-5.66262e-10 -8.36701e-09 0)
(-5.45716e-09 3.68122e-10 0)
(-2.3573e-09 6.44993e-09 0)
(2.14273e-09 -2.45299e-10 0)
(4.25603e-10 6.59515e-09 0)
(2.6757e-09 1.28146e-08 0)
(2.78174e-09 1.02247e-08 0)
(-1.26888e-09 5.24254e-09 0)
(-5.96758e-09 4.94345e-09 0)
(-6.72516e-09 5.65404e-09 0)
(-2.98788e-09 5.44717e-09 0)
(-2.09664e-09 5.6591e-09 0)
(-2.81371e-09 4.77517e-09 0)
(-1.61074e-09 6.83755e-10 0)
(-4.34688e-09 -4.89835e-09 0)
(-5.00961e-09 4.63903e-09 0)
(3.06976e-09 1.74504e-08 0)
(9.6394e-09 1.67885e-08 0)
(7.46918e-09 3.94966e-09 0)
(-2.22867e-10 -9.13438e-09 0)
(-6.52884e-09 -1.22587e-08 0)
(-6.62573e-09 -1.75027e-09 0)
(2.03825e-10 4.56676e-09 0)
(4.56751e-09 -5.88869e-10 0)
(-1.87923e-10 7.44853e-09 0)
(8.32035e-10 9.31959e-09 0)
(2.83832e-09 5.49107e-09 0)
(5.8649e-10 1.1248e-09 0)
(-4.22148e-09 2.96599e-09 0)
(-6.98923e-09 8.33703e-09 0)
(-5.37791e-09 1.08608e-08 0)
(-3.57199e-09 7.31623e-09 0)
(-3.46586e-09 6.53457e-10 0)
(-6.32624e-09 -8.01521e-09 0)
(-5.11493e-09 -1.22725e-08 0)
(-1.94097e-09 -4.63077e-09 0)
(-6.43822e-10 4.3621e-09 0)
(1.55433e-09 2.23206e-09 0)
(5.80201e-10 -8.59098e-09 0)
(-3.00248e-09 -1.51648e-08 0)
(-6.47532e-09 -1.25501e-08 0)
(-4.15359e-09 -2.12749e-09 0)
(4.72033e-09 3.0027e-09 0)
(8.34504e-09 -7.02427e-10 0)
(-1.61607e-09 6.39301e-09 0)
(-2.6281e-09 5.76876e-09 0)
(1.28848e-09 2.22938e-09 0)
(1.93993e-09 -1.33572e-09 0)
(-8.37783e-10 5.60074e-10 0)
(-4.13599e-09 7.14089e-09 0)
(-5.62809e-09 1.14991e-08 0)
(-5.56098e-09 9.47846e-09 0)
(-6.02961e-09 1.84932e-09 0)
(-6.39389e-09 -5.66382e-09 0)
(-7.51593e-09 -8.12428e-09 0)
(-6.55619e-09 -7.00517e-09 0)
(-2.74514e-09 -2.74259e-09 0)
(-4.3858e-10 -4.70594e-09 0)
(9.30678e-10 -1.0942e-08 0)
(4.72002e-10 -1.30862e-08 0)
(-1.53344e-09 -8.57074e-09 0)
(9.22554e-10 -1.30751e-10 0)
(9.2653e-09 2.87483e-09 0)
(1.17323e-08 -2.94255e-10 0)
(-2.70692e-09 2.53926e-09 0)
(-5.32021e-09 1.89141e-09 0)
(-2.51592e-10 6.62045e-10 0)
(2.47241e-09 -6.51808e-10 0)
(1.38122e-09 -5.13836e-11 0)
(-1.59918e-09 2.65559e-09 0)
(-5.13276e-09 4.59423e-09 0)
(-6.26168e-09 4.20733e-09 0)
(-7.01477e-09 1.50607e-09 0)
(-6.65225e-09 -1.15864e-09 0)
(-5.85778e-09 -3.122e-09 0)
(-4.73305e-09 -1.77477e-09 0)
(-3.82412e-09 -6.23241e-10 0)
(-1.95056e-09 -2.21831e-09 0)
(2.59298e-09 -4.53884e-09 0)
(4.92635e-09 -4.85959e-09 0)
(3.97913e-09 -2.76518e-09 0)
(5.10676e-09 4.98765e-10 0)
(1.10948e-08 1.45669e-09 0)
(1.27094e-08 5.71238e-11 0)
)
;

boundaryField
{
    sides
    {
        type            calculated;
        value           nonuniform List<vector> 
40
(
(-2.70692e-09 0 0)
(-5.32021e-09 0 0)
(-2.51592e-10 0 0)
(2.47241e-09 0 0)
(1.38122e-09 0 0)
(-1.59918e-09 0 0)
(-5.13276e-09 0 0)
(-6.26168e-09 0 0)
(-7.01477e-09 0 0)
(-6.65225e-09 0 0)
(-5.85778e-09 0 0)
(-4.73305e-09 0 0)
(-3.82412e-09 0 0)
(-1.95056e-09 0 0)
(2.59298e-09 0 0)
(4.92635e-09 0 0)
(3.97913e-09 0 0)
(5.10676e-09 0 0)
(1.10948e-08 0 0)
(1.27094e-08 0 0)
(-1.0505e-09 0 0)
(1.79512e-13 0 0)
(3.30927e-09 0 0)
(2.52543e-09 0 0)
(-9.80684e-10 0 0)
(-4.14463e-09 0 0)
(-7.5983e-09 0 0)
(-7.79519e-09 0 0)
(-6.58067e-09 0 0)
(-7.47529e-09 0 0)
(-6.32145e-09 0 0)
(-5.73514e-09 0 0)
(-2.67276e-09 0 0)
(2.11211e-09 0 0)
(5.50454e-09 0 0)
(6.33423e-09 0 0)
(3.58684e-09 0 0)
(2.36366e-09 0 0)
(5.04085e-09 0 0)
(7.92599e-09 0 0)
)
;
    }
    inlet
    {
        type            calculated;
        value           uniform (0 0 0);
    }
    outlet
    {
        type            calculated;
        value           nonuniform List<vector> 
20
(
(7.92599e-09 2.03367e-10 0)
(8.06044e-09 -1.23734e-09 0)
(1.06419e-08 -1.25786e-09 0)
(4.92252e-09 -1.4038e-09 0)
(3.43435e-09 -1.47732e-09 0)
(-3.73328e-09 -1.25676e-09 0)
(-3.73113e-09 -3.22057e-09 0)
(-1.867e-09 -3.76798e-09 0)
(4.57016e-09 -5.31516e-09 0)
(2.76515e-09 -3.22303e-09 0)
(3.02164e-09 2.43194e-10 0)
(-1.22491e-09 -1.75151e-10 0)
(-2.58928e-09 -1.03257e-09 0)
(-1.75509e-09 -1.28305e-09 0)
(1.76328e-10 -5.9794e-10 0)
(2.14273e-09 -2.45299e-10 0)
(4.56751e-09 -5.88869e-10 0)
(8.34504e-09 -7.02427e-10 0)
(1.17323e-08 -2.94255e-10 0)
(1.27094e-08 5.71238e-11 0)
)
;
    }
    frontAndBack
    {
        type            empty;
    }
}


// ************************************************************************* //
