/*--------------------------------*- C++ -*----------------------------------*\
  =========                 |
  \\      /  F ield         | OpenFOAM: The Open Source CFD Toolbox
   \\    /   O peration     | Website:  https://openfoam.org
    \\  /    A nd           | Version:  9
     \\/     M anipulation  |
\*---------------------------------------------------------------------------*/
FoamFile
{
    format      ascii;
    class       surfaceScalarField;
    location    "56";
    object      ddtCorrDdt0(phi);
}
// * * * * * * * * * * * * * * * * * * * * * * * * * * * * * * * * * * * * * //

dimensions      [0 4 -2 0 0 0 0];

internalField   nonuniform List<scalar> 
760
(
2.46666e-13
-1.31505e-11
2.45778e-11
-1.30397e-11
6.20422e-12
-2.21618e-11
-1.2976e-12
-5.6799e-12
-9.42168e-12
9.9771e-12
-2.48903e-11
4.32469e-12
-4.35228e-11
-3.01976e-11
-3.95296e-11
-2.22599e-11
-4.11804e-11
-1.31941e-11
-3.9271e-11
2.46281e-11
-2.15696e-11
4.0737e-11
-1.8322e-11
1.15006e-11
1.80034e-12
9.42727e-12
1.13995e-11
-4.92434e-13
3.13517e-11
2.75845e-11
3.00064e-11
3.46455e-11
1.21103e-11
1.16195e-11
1.86643e-11
-1.63919e-11
3.46804e-11
-2.47151e-11
-5.85758e-12
1.50646e-11
-2.26209e-11
1.4485e-11
-3.54979e-11
1.77337e-12
-3.85377e-11
-8.66193e-13
-7.81245e-12
-1.36719e-11
1.52299e-11
-4.11745e-11
-1.95024e-11
-3.35558e-11
-4.85969e-11
-4.01035e-11
-4.85965e-11
-1.70603e-11
5.3635e-12
-2.65487e-11
1.25789e-11
-3.88971e-11
7.94506e-11
-1.06395e-11
2.03283e-11
-1.11983e-11
-5.25598e-14
1.55849e-11
1.7748e-11
1.68398e-11
4.38228e-11
9.79296e-12
6.62847e-11
1.35198e-11
4.51139e-11
3.05431e-11
-3.20524e-12
4.21728e-11
-2.50697e-11
-6.15328e-12
2.33845e-11
-2.39106e-11
4.33717e-12
-5.70525e-11
5.71367e-12
-4.66236e-11
5.18245e-12
-8.11508e-12
-3.40729e-11
-8.49485e-12
-4.73081e-11
-4.66451e-11
-2.76659e-11
-4.8154e-11
-1.35615e-11
-4.09747e-11
-3.27209e-11
-1.51081e-12
2.35891e-14
3.36252e-11
-4.84687e-11
1.51364e-11
-7.89776e-13
6.50332e-11
9.85026e-12
-3.98817e-11
1.17374e-11
-1.41248e-11
8.33514e-12
4.23853e-11
-2.0444e-11
7.81059e-11
-1.96746e-11
7.24875e-11
2.54728e-11
8.90353e-12
5.02549e-11
-3.21283e-11
-6.57304e-12
1.71611e-11
-2.10728e-11
2.42839e-14
-6.83524e-11
1.23575e-11
-4.97796e-11
-4.84309e-12
-1.9278e-11
-5.4184e-11
-3.54184e-11
-2.49955e-11
-3.23156e-11
-2.05301e-11
-4.45122e-11
7.34786e-12
-1.22345e-11
-3.96164e-11
-9.27917e-11
-1.6595e-11
5.81803e-11
3.18418e-11
1.28303e-11
-6.71641e-11
-3.06586e-11
5.0277e-11
5.64885e-12
4.78402e-11
-8.29294e-11
7.85025e-12
-3.12494e-11
-1.66126e-11
4.85548e-11
-1.25199e-11
6.70002e-11
1.10647e-11
1.90892e-11
2.05437e-11
-1.91667e-11
-3.66902e-12
2.23629e-12
-2.55236e-11
-2.24785e-12
-6.8344e-11
9.54243e-12
-5.30919e-11
-3.01379e-11
-3.8472e-11
-3.20331e-11
-2.3411e-11
-8.10254e-12
-1.99768e-11
2.764e-11
4.17724e-12
-8.5164e-11
-1.22485e-10
8.18703e-11
6.62153e-13
-1.16364e-10
-1.57748e-10
1.87174e-11
1.59458e-10
2.75614e-11
-9.96798e-11
-4.61696e-11
-7.89244e-11
7.72751e-11
-8.8669e-12
6.60318e-11
-4.78241e-11
-2.10508e-12
-9.40864e-12
-2.72377e-11
3.72857e-11
-1.51791e-11
1.48087e-12
5.85456e-12
-2.85791e-11
-4.58093e-12
-7.90532e-12
-3.81119e-11
-6.82656e-12
-6.97629e-11
-9.64799e-12
-5.93423e-11
-2.96447e-11
-3.27754e-11
-1.21294e-11
-5.1243e-12
5.0728e-11
2.45409e-11
-5.17768e-11
-5.63484e-11
-1.44121e-12
-5.6827e-11
-7.60016e-11
-1.01083e-10
1.26053e-10
1.55963e-11
-1.8842e-10
-8.74951e-12
8.58652e-11
3.1229e-10
2.74663e-11
-8.03666e-11
-2.18439e-11
-9.27237e-11
5.55544e-11
-1.62693e-11
6.56069e-11
-1.22484e-12
3.00336e-11
4.92522e-12
-1.04246e-11
-2.89226e-11
-2.4259e-11
-4.81574e-11
-1.2443e-11
-9.23759e-12
-4.83309e-11
-1.63122e-11
-7.10326e-11
-1.95069e-11
-5.57066e-11
-2.19874e-11
-1.95436e-11
3.47215e-11
3.10818e-11
2.4117e-11
-8.43531e-13
-4.03433e-11
-3.81523e-11
-1.34323e-11
-8.16974e-11
-1.03062e-10
-9.01054e-11
1.02042e-10
3.6286e-10
1.84891e-10
-2.8784e-09
-2.64461e-10
-1.07614e-10
9.28122e-12
1.52442e-10
2.97869e-11
7.92685e-12
2.88493e-11
-4.67611e-12
7.01974e-11
1.60285e-11
5.89727e-11
6.38697e-12
9.64402e-12
-4.90382e-11
-1.68363e-11
-6.77591e-11
-1.93688e-11
-8.12724e-12
-4.58072e-11
-2.05654e-11
-6.10114e-11
-1.98635e-11
-4.17565e-11
7.7413e-12
2.27024e-12
2.57941e-11
2.88668e-11
2.04782e-11
1.09312e-12
-3.85752e-11
-8.71914e-11
-8.75273e-11
5.19422e-12
2.37431e-10
5.4276e-11
-3.45371e-10
-5.72452e-10
3.13129e-09
2.12869e-08
1.8197e-11
-5.84062e-11
-1.84852e-10
-1.22141e-10
-6.1395e-11
4.1018e-11
2.42311e-12
6.87518e-11
5.57769e-11
5.24548e-11
6.8167e-11
-1.59013e-11
3.19362e-11
-5.309e-11
-4.55236e-13
-6.42521e-11
-1.56234e-11
-7.04694e-12
-3.08091e-11
-2.03075e-11
-3.34321e-11
-6.54957e-12
-1.61477e-11
2.27757e-11
1.03172e-11
1.71173e-11
2.38682e-11
-3.21895e-11
-2.34877e-11
-5.28652e-12
-2.58883e-11
5.17749e-11
-5.60637e-11
-2.77625e-10
2.94117e-11
3.23879e-10
3.75109e-10
-3.15112e-09
-2.52499e-09
-2.00275e-11
-1.23333e-10
1.1278e-10
2.02211e-10
-3.5926e-11
1.01234e-10
-5.58316e-11
9.92934e-11
4.80614e-12
4.47225e-11
5.38948e-11
1.83101e-09
4.26343e-11
-3.67418e-11
3.36953e-11
-3.58999e-11
-3.85447e-10
-3.76312e-12
-6.3273e-12
-1.44076e-11
2.82221e-12
9.67613e-13
1.5591e-11
3.45006e-11
9.48019e-12
-1.28205e-11
-2.07713e-13
-3.51082e-11
1.52208e-12
1.00179e-11
-2.62394e-11
2.30951e-11
4.80282e-11
3.85429e-11
-4.26074e-11
-6.2963e-11
5.35668e-11
-2.29061e-10
-2.27034e-10
3.32702e-10
3.11551e-10
-4.63762e-12
-1.05621e-10
-8.91857e-11
-3.92068e-11
-9.7279e-11
3.54995e-11
-6.92847e-11
3.51403e-11
-7.97308e-13
1.36569e-11
5.34267e-11
1.77317e-11
1.84333e-11
1.07979e-11
3.54211e-12
5.51287e-13
2.15671e-11
-5.21406e-12
3.80523e-11
-2.83581e-12
3.76987e-11
2.73441e-11
1.24609e-11
-7.57658e-12
-1.82323e-11
-5.83408e-11
1.4668e-11
5.70627e-11
4.89357e-11
1.21099e-11
-4.53896e-11
1.912e-11
5.7413e-11
-2.74424e-10
-2.18005e-10
4.92405e-10
-1.01848e-09
-1.11386e-10
-4.47981e-10
4.64693e-11
-1.01124e-11
-5.8138e-12
4.731e-12
-1.01337e-10
-3.78407e-11
-7.43815e-11
-1.86312e-11
1.64013e-11
2.38064e-11
5.37183e-11
5.17007e-11
2.23206e-11
3.52036e-11
1.34113e-12
1.63816e-12
4.52979e-11
1.14668e-13
6.08108e-11
-9.95612e-12
4.97802e-11
6.90922e-12
1.29881e-11
1.14087e-11
-1.27794e-11
-2.7736e-11
1.71498e-11
-1.22024e-11
6.62431e-11
6.00159e-11
7.42849e-12
2.35891e-11
-6.34025e-11
-1.285e-09
-8.64935e-11
1.49834e-09
5.23729e-08
3.30211e-10
5.70356e-10
4.82914e-11
-3.6212e-11
-4.62272e-11
-4.36505e-11
-6.11976e-11
-6.9951e-11
-1.74644e-11
-3.08801e-11
3.68138e-11
3.88115e-12
3.81737e-11
4.853e-11
1.97708e-12
3.74037e-11
-3.64207e-12
-4.6301e-12
5.29243e-11
3.07021e-12
7.50336e-11
-1.95293e-11
5.36662e-11
-9.83983e-12
2.64264e-11
2.56364e-11
-7.75738e-12
1.01245e-11
1.55441e-11
-4.85163e-11
6.2284e-11
-1.12525e-11
7.11882e-11
-1.43876e-10
-1.7903e-11
1.44871e-09
-2.31488e-11
-1.55686e-09
-1.27289e-09
-3.41015e-10
-3.88217e-10
-4.07982e-11
3.35145e-11
-3.96548e-11
-2.61251e-11
1.14059e-11
-2.47547e-11
6.2592e-11
-1.78792e-11
5.61064e-11
-4.01616e-12
1.81041e-11
3.48896e-11
-1.02908e-11
3.29264e-11
-7.88152e-12
-1.00414e-11
4.49241e-11
4.78983e-13
8.21676e-11
-1.55054e-11
6.43786e-11
-3.02597e-11
3.51619e-11
2.71678e-11
1.06098e-11
2.35263e-11
-5.75227e-13
-4.68878e-11
5.25282e-11
-8.59456e-11
1.04443e-10
6.35734e-11
5.24256e-11
2.70058e-11
1.62569e-11
-3.44363e-10
-2.37006e-10
4.95782e-11
8.82383e-11
-9.48831e-11
-5.24321e-11
-5.22536e-12
2.41861e-11
7.00965e-11
4.31875e-11
8.7903e-11
1.16307e-11
5.04434e-11
-1.17101e-11
-2.57389e-12
2.41904e-11
-1.43207e-11
3.45021e-11
-5.22546e-12
-5.9953e-12
3.29569e-11
3.68377e-12
8.394e-11
-7.83649e-12
7.11447e-11
-3.70051e-11
4.32772e-11
-2.36398e-12
1.8451e-11
3.21855e-11
1.57847e-12
-2.54934e-11
1.74819e-11
-7.02258e-11
7.78123e-11
1.15237e-11
1.16948e-10
-8.9582e-11
-1.01959e-11
7.33093e-11
-2.37062e-10
-8.82507e-11
-1.70118e-11
-5.59113e-12
9.00194e-11
7.25159e-11
1.20942e-10
8.86068e-11
8.28024e-11
6.69096e-11
1.56563e-11
2.04427e-11
-2.74715e-11
-1.948e-11
1.1198e-11
-1.1253e-11
3.67096e-11
-4.74048e-13
8.99372e-12
2.99682e-11
1.03703e-11
7.33667e-11
3.37573e-12
6.32803e-11
-3.87158e-11
3.59503e-11
-2.99488e-11
2.70786e-11
8.98213e-12
1.62551e-11
1.21309e-12
1.07413e-11
-3.155e-11
3.20309e-11
-3.73339e-11
4.57418e-11
1.14774e-11
5.22989e-11
-3.05156e-11
2.41089e-11
-2.79089e-11
6.21837e-11
4.14179e-11
1.28461e-10
8.24717e-11
1.22169e-10
6.64948e-11
5.66953e-11
1.60527e-11
-1.80179e-11
-1.65389e-11
-5.05589e-11
-2.25247e-11
-5.32882e-12
-1.97807e-12
2.75087e-11
-1.14726e-12
1.84099e-11
3.60653e-11
1.53613e-11
5.41898e-11
9.78525e-12
3.90888e-11
-2.70321e-11
1.82834e-11
-4.65248e-11
2.44057e-11
-1.93624e-11
3.94995e-11
2.15747e-12
3.9044e-11
-1.50054e-11
1.78248e-11
-2.06391e-11
-2.07915e-12
-5.3609e-12
-3.22429e-11
-3.4631e-11
-3.97733e-11
-7.69241e-12
5.56864e-12
3.46006e-11
5.37377e-11
5.55516e-11
4.84222e-11
1.98631e-11
-1.43916e-11
-2.58637e-11
-6.55889e-11
-3.51991e-11
-6.58921e-11
-1.40974e-11
-1.28303e-11
1.29554e-11
1.63235e-11
-4.23688e-12
9.57275e-12
3.74174e-11
1.14692e-11
3.67501e-11
1.3591e-11
1.70576e-11
-9.31578e-12
-2.02822e-12
-4.09875e-11
1.15588e-11
-3.40974e-11
4.72668e-11
-1.66482e-11
6.54161e-11
-1.22677e-11
4.19938e-11
-2.73434e-11
-5.69353e-12
-3.90761e-11
-4.57517e-11
-1.07051e-11
-6.21618e-11
-6.5325e-12
-3.49122e-11
5.02105e-12
-4.85159e-12
7.00294e-12
-2.08313e-11
-4.53335e-12
-6.61582e-11
-2.78969e-11
-8.32032e-11
-3.03039e-11
-5.85535e-11
2.92954e-12
-8.69263e-12
3.55513e-11
1.0987e-11
-4.38792e-12
-9.44643e-12
2.59733e-11
-7.48223e-13
1.98267e-11
1.0086e-11
6.46732e-12
7.81652e-12
-8.6769e-12
-1.78025e-11
-6.14664e-13
-2.75094e-11
2.99165e-11
-2.87771e-11
4.97548e-11
-2.70561e-11
4.2148e-11
-4.04637e-11
7.56227e-12
-3.51782e-11
-2.35373e-11
-3.2002e-11
-2.96509e-11
-1.3877e-11
-3.39743e-11
-1.08071e-11
-2.09449e-11
-6.57701e-12
-3.0956e-11
8.52642e-12
-5.03608e-11
1.73835e-12
-5.13579e-11
-6.82465e-12
-3.12782e-11
2.23092e-11
-2.77781e-12
5.6329e-11
7.50832e-12
-1.07292e-12
-2.47453e-11
-1.03882e-11
4.48657e-12
1.57791e-11
1.0883e-12
-1.83781e-11
-3.11618e-11
-3.84363e-11
-3.99752e-11
-3.46282e-11
-2.15904e-11
-8.07685e-12
-1.99967e-11
-1.13147e-11
2.54744e-11
3.27045e-11
1.78575e-11
3.34281e-11
6.29942e-11
)
;

boundaryField
{
    sides
    {
        type            calculated;
        value           uniform 0;
    }
    inlet
    {
        type            calculated;
        value           uniform 0;
    }
    outlet
    {
        type            calculated;
        value           nonuniform List<scalar> 
20
(
3.50243e-11
3.42265e-11
4.76307e-11
2.42003e-11
1.66772e-11
-2.14041e-11
-2.42779e-11
-1.75028e-11
6.73754e-12
2.15006e-11
9.99029e-12
-1.2592e-11
-1.49096e-11
-4.36671e-12
7.95207e-12
1.51973e-11
2.32332e-11
4.20545e-11
6.19815e-11
6.94201e-11
)
;
    }
    frontAndBack
    {
        type            empty;
        value           nonuniform List<scalar> 0();
    }
}


// ************************************************************************* //
