/*--------------------------------*- C++ -*----------------------------------*\
  =========                 |
  \\      /  F ield         | OpenFOAM: The Open Source CFD Toolbox
   \\    /   O peration     | Website:  https://openfoam.org
    \\  /    A nd           | Version:  9
     \\/     M anipulation  |
\*---------------------------------------------------------------------------*/
FoamFile
{
    format      ascii;
    class       volScalarField;
    location    "56";
    object      h;
}
// * * * * * * * * * * * * * * * * * * * * * * * * * * * * * * * * * * * * * //

dimensions      [0 1 0 0 0 0 0];

internalField   nonuniform List<scalar> 
400
(
0.0100004
0.0100003
0.0100002
0.0100001
0.00999991
0.0099997
0.00999947
0.00999924
0.00999904
0.00999888
0.00999879
0.0099988
0.00999892
0.00999913
0.0099994
0.00999967
0.00999989
0.01
0.0100001
0.01
0.0100003
0.0100002
0.0100001
0.01
0.00999982
0.0099996
0.00999936
0.0099991
0.00999885
0.00999866
0.00999855
0.00999858
0.00999873
0.00999898
0.00999929
0.00999958
0.0099998
0.00999992
0.00999997
0.00999999
0.0100003
0.0100003
0.0100002
0.01
0.00999983
0.00999959
0.00999931
0.009999
0.00999871
0.00999847
0.00999833
0.00999834
0.00999853
0.00999886
0.00999927
0.00999965
0.00999993
0.0100001
0.0100001
0.01
0.0100004
0.0100003
0.0100002
0.0100001
0.00999987
0.0099996
0.00999926
0.00999886
0.00999845
0.00999808
0.00999787
0.0099979
0.00999821
0.00999873
0.00999931
0.00999974
0.00999996
0.00999999
0.00999996
0.00999996
0.0100005
0.0100004
0.0100003
0.0100002
0.00999998
0.00999967
0.00999924
0.00999872
0.00999815
0.00999757
0.00999718
0.0099972
0.0099977
0.00999859
0.00999953
0.0100002
0.0100004
0.0100003
0.0100001
0.00999999
0.0100006
0.0100006
0.0100005
0.0100004
0.0100002
0.00999985
0.00999932
0.00999861
0.00999774
0.00999692
0.00999632
0.00999628
0.00999707
0.00999843
0.00999974
0.0100004
0.0100005
0.0100002
0.00999993
0.00999991
0.0100008
0.0100008
0.0100007
0.0100007
0.0100005
0.0100002
0.00999966
0.00999866
0.00999716
0.00999537
0.00999422
0.00999454
0.0099967
0.00999949
0.0100013
0.0100015
0.0100008
0.01
0.00999973
0.00999987
0.0100009
0.0100009
0.010001
0.0100011
0.010001
0.0100008
0.0100003
0.00999928
0.00999739
0.0099943
0.0099906
0.00999027
0.00999449
0.0100002
0.0100033
0.0100031
0.0100013
0.00999985
0.00999949
0.00999983
0.010001
0.0100011
0.0100013
0.0100015
0.0100018
0.0100019
0.0100014
0.0099995
0.00999552
0.00998975
0.0099867
0.00998972
0.00999805
0.0100037
0.0100044
0.0100024
0.0100003
0.00999935
0.00999944
0.00999987
0.010001
0.0100012
0.0100014
0.0100019
0.0100026
0.010004
0.0100059
0.0100078
0.0100049
0.0089785
0.00895238
0.00997587
0.0100088
0.0100178
0.0100104
0.0100023
0.00999886
0.00999891
0.00999978
0.0100002
0.0100009
0.0100011
0.0100013
0.0100018
0.0100026
0.010004
0.0100058
0.0100078
0.0100049
0.00897844
0.00895243
0.00997582
0.0100088
0.0100178
0.0100104
0.0100023
0.00999885
0.00999889
0.00999975
0.0100001
0.0100008
0.0100009
0.0100011
0.0100013
0.0100016
0.0100017
0.0100012
0.0099993
0.00999532
0.00998958
0.00998652
0.00998961
0.00999793
0.0100036
0.0100043
0.0100023
0.0100002
0.00999932
0.00999946
0.00999989
0.0100006
0.0100006
0.0100007
0.0100007
0.0100007
0.0100005
0.01
0.00999899
0.00999712
0.00999403
0.00999038
0.00998997
0.00999424
0.00999995
0.0100031
0.0100029
0.0100011
0.00999977
0.00999947
0.00999982
0.0100003
0.0100003
0.0100003
0.0100002
0.0100001
0.00999977
0.00999921
0.00999823
0.00999672
0.00999497
0.00999374
0.00999416
0.00999635
0.00999919
0.0100011
0.0100013
0.0100006
0.0099999
0.00999963
0.00999983
0.00999999
0.00999997
0.00999991
0.00999979
0.00999959
0.00999926
0.00999874
0.00999804
0.00999721
0.0099964
0.00999585
0.00999584
0.00999666
0.00999806
0.0099994
0.0100002
0.0100002
0.00999999
0.00999982
0.00999988
0.00999972
0.00999968
0.0099996
0.00999946
0.00999925
0.00999894
0.00999853
0.00999803
0.00999747
0.00999692
0.00999655
0.0099966
0.00999715
0.00999807
0.00999906
0.00999975
0.01
0.00999998
0.00999991
0.00999993
0.00999948
0.00999943
0.00999934
0.0099992
0.009999
0.00999874
0.00999841
0.00999803
0.00999765
0.00999732
0.00999716
0.00999722
0.00999756
0.00999814
0.00999878
0.00999932
0.00999964
0.00999977
0.00999984
0.00999992
0.00999928
0.00999923
0.00999914
0.009999
0.00999882
0.00999859
0.00999832
0.00999803
0.00999774
0.00999752
0.00999741
0.00999747
0.00999772
0.00999812
0.0099986
0.00999905
0.0099994
0.00999963
0.00999979
0.00999992
0.00999912
0.00999908
0.00999899
0.00999886
0.00999869
0.00999849
0.00999826
0.00999803
0.00999782
0.00999767
0.0099976
0.00999765
0.00999785
0.00999817
0.00999856
0.00999896
0.0099993
0.00999956
0.00999976
0.00999992
0.00999899
0.00999894
0.00999885
0.00999872
0.00999855
0.00999835
0.00999814
0.00999793
0.00999775
0.00999762
0.00999757
0.00999763
0.00999781
0.0099981
0.00999844
0.0099988
0.00999913
0.00999941
0.00999966
0.00999987
)
;

boundaryField
{
    sides
    {
        type            zeroGradient;
    }
    inlet
    {
        type            zeroGradient;
    }
    outlet
    {
        type            fixedValue;
        value           uniform 0.01;
    }
    frontAndBack
    {
        type            empty;
    }
}


// ************************************************************************* //
