/*--------------------------------*- C++ -*----------------------------------*\
  =========                 |
  \\      /  F ield         | OpenFOAM: The Open Source CFD Toolbox
   \\    /   O peration     | Website:  https://openfoam.org
    \\  /    A nd           | Version:  9
     \\/     M anipulation  |
\*---------------------------------------------------------------------------*/
FoamFile
{
    format      ascii;
    class       volVectorField;
    location    "56";
    object      hU;
}
// * * * * * * * * * * * * * * * * * * * * * * * * * * * * * * * * * * * * * //

dimensions      [0 2 -1 0 0 0 0];

internalField   nonuniform List<vector> 
400
(
(0.001 -2.43092e-08 0)
(0.00100004 -6.98562e-08 0)
(0.00100012 -1.12048e-07 0)
(0.00100024 -1.51516e-07 0)
(0.00100039 -1.87287e-07 0)
(0.00100058 -2.17651e-07 0)
(0.00100078 -2.38214e-07 0)
(0.00100099 -2.46096e-07 0)
(0.00100117 -2.36254e-07 0)
(0.00100132 -2.10767e-07 0)
(0.00100139 -1.68632e-07 0)
(0.00100139 -1.29122e-07 0)
(0.00100128 -9.93622e-08 0)
(0.0010011 -9.29024e-08 0)
(0.00100086 -9.90256e-08 0)
(0.00100064 -1.35254e-07 0)
(0.00100043 -1.56983e-07 0)
(0.00100033 -2.01623e-07 0)
(0.00100025 -1.88723e-07 0)
(0.00100033 -2.68273e-07 0)
(0.001 -2.70364e-08 0)
(0.00100005 -7.74982e-08 0)
(0.00100013 -1.25683e-07 0)
(0.00100026 -1.71956e-07 0)
(0.00100042 -2.13192e-07 0)
(0.00100062 -2.42708e-07 0)
(0.00100084 -2.49356e-07 0)
(0.00100107 -2.22537e-07 0)
(0.00100129 -1.54414e-07 0)
(0.00100146 -4.65479e-08 0)
(0.00100155 9.41813e-08 0)
(0.00100153 2.46277e-07 0)
(0.0010014 3.88557e-07 0)
(0.00100118 4.77463e-07 0)
(0.00100092 5.07022e-07 0)
(0.00100066 4.52892e-07 0)
(0.00100048 3.7631e-07 0)
(0.00100036 2.53395e-07 0)
(0.00100032 2.04653e-07 0)
(0.00100028 8.2266e-08 0)
(0.001 -5.32055e-08 0)
(0.00100005 -1.57621e-07 0)
(0.00100013 -2.63363e-07 0)
(0.00100026 -3.70464e-07 0)
(0.00100043 -4.73376e-07 0)
(0.00100064 -5.59315e-07 0)
(0.00100089 -6.08618e-07 0)
(0.00100116 -6.0041e-07 0)
(0.00100143 -5.17221e-07 0)
(0.00100164 -3.49907e-07 0)
(0.00100176 -1.09563e-07 0)
(0.00100175 1.6063e-07 0)
(0.00100158 3.999e-07 0)
(0.0010013 5.21239e-07 0)
(0.00100094 5.02591e-07 0)
(0.00100061 3.5555e-07 0)
(0.00100036 2.00676e-07 0)
(0.00100026 4.16079e-08 0)
(0.00100022 -4.23953e-09 0)
(0.00100029 -1.15808e-07 0)
(0.001 -7.42567e-08 0)
(0.00100004 -2.20634e-07 0)
(0.00100013 -3.70371e-07 0)
(0.00100026 -5.26211e-07 0)
(0.00100045 -6.80662e-07 0)
(0.00100069 -8.14743e-07 0)
(0.00100099 -8.94795e-07 0)
(0.00100134 -8.88032e-07 0)
(0.0010017 -7.54636e-07 0)
(0.00100202 -4.7255e-07 0)
(0.00100221 -2.42262e-08 0)
(0.00100218 4.89065e-07 0)
(0.00100192 9.33962e-07 0)
(0.00100146 1.1401e-06 0)
(0.00100096 1.05781e-06 0)
(0.00100057 7.44617e-07 0)
(0.0010004 4.2006e-07 0)
(0.00100034 1.63935e-07 0)
(0.00100039 1.00564e-07 0)
(0.00100034 2.26007e-09 0)
(0.001 -9.16582e-08 0)
(0.00100004 -2.76076e-07 0)
(0.00100012 -4.72069e-07 0)
(0.00100025 -6.8956e-07 0)
(0.00100044 -9.20976e-07 0)
(0.00100072 -1.14407e-06 0)
(0.00100109 -1.30417e-06 0)
(0.00100155 -1.33957e-06 0)
(0.00100206 -1.17426e-06 0)
(0.00100256 -7.77213e-07 0)
(0.00100289 -1.71543e-07 0)
(0.00100287 5.73201e-07 0)
(0.00100243 1.2263e-06 0)
(0.00100166 1.51076e-06 0)
(0.00100085 1.37694e-06 0)
(0.0010003 9.65087e-07 0)
(0.00100012 5.76568e-07 0)
(0.00100021 3.06939e-07 0)
(0.00100036 2.60336e-07 0)
(0.00100042 1.70069e-07 0)
(0.001 -1.04046e-07 0)
(0.00100003 -3.16483e-07 0)
(0.00100008 -5.57334e-07 0)
(0.00100019 -8.40691e-07 0)
(0.00100038 -1.17312e-06 0)
(0.00100068 -1.52941e-06 0)
(0.00100115 -1.8642e-06 0)
(0.00100178 -2.05672e-06 0)
(0.00100253 -1.91072e-06 0)
(0.00100325 -1.19919e-06 0)
(0.00100376 8.12148e-08 0)
(0.00100377 1.53654e-06 0)
(0.00100309 2.42759e-06 0)
(0.00100191 2.30343e-06 0)
(0.00100081 1.43114e-06 0)
(0.00100018 4.91786e-07 0)
(0.00100017 7.9675e-09 0)
(0.00100036 -9.23172e-08 0)
(0.00100063 5.81093e-08 0)
(0.00100054 5.16601e-08 0)
(0.001 -1.03321e-07 0)
(0.001 -3.31668e-07 0)
(0.00100002 -5.97886e-07 0)
(0.00100007 -9.58824e-07 0)
(0.00100021 -1.39281e-06 0)
(0.00100048 -1.95024e-06 0)
(0.00100099 -2.49443e-06 0)
(0.00100188 -3.08713e-06 0)
(0.0010032 -3.23395e-06 0)
(0.00100472 -2.87749e-06 0)
(0.00100573 -6.80131e-07 0)
(0.00100535 2.55221e-06 0)
(0.00100349 4.8236e-06 0)
(0.00100112 4.73488e-06 0)
(0.000999602 3.0291e-06 0)
(0.000999366 1.26268e-06 0)
(0.001 4.25004e-07 0)
(0.00100056 3.18688e-07 0)
(0.00100092 5.59404e-07 0)
(0.00100065 5.3567e-07 0)
(0.000999996 -9.31876e-08 0)
(0.000999966 -2.87405e-07 0)
(0.000999904 -5.74206e-07 0)
(0.000999873 -9.54667e-07 0)
(0.000999876 -1.57794e-06 0)
(0.00100009 -2.34858e-06 0)
(0.0010005 -3.40786e-06 0)
(0.00100152 -4.12826e-06 0)
(0.00100308 -4.37353e-06 0)
(0.001006 -2.55203e-06 0)
(0.00100911 7.58531e-07 0)
(0.00100915 4.2592e-06 0)
(0.00100549 4.71472e-06 0)
(0.00100073 2.78154e-06 0)
(0.000998144 7.35891e-07 0)
(0.00099827 -2.76018e-07 0)
(0.000999795 -2.91376e-07 0)
(0.00100087 -1.69405e-08 0)
(0.00100133 2.08882e-07 0)
(0.00100084 1.03614e-07 0)
(0.000999996 -4.96131e-08 0)
(0.000999912 -2.02964e-07 0)
(0.000999752 -3.84987e-07 0)
(0.000999529 -7.33956e-07 0)
(0.000999285 -1.33917e-06 0)
(0.000999207 -2.48455e-06 0)
(0.000999701 -4.6923e-06 0)
(0.00100139 -8.07177e-06 0)
(0.00100491 -1.3286e-05 0)
(0.00100958 -1.49146e-05 0)
(0.00101187 3.84813e-06 0)
(0.00100891 1.87235e-05 0)
(0.00100221 1.57794e-05 0)
(0.000997558 5.74249e-06 0)
(0.000996878 -3.14839e-07 0)
(0.000998456 -1.26403e-06 0)
(0.00100027 -9.90287e-08 0)
(0.001001 6.28927e-07 0)
(0.00100107 6.48839e-07 0)
(0.00100054 2.44185e-07 0)
(0.000999805 -1.98911e-08 0)
(0.00100017 -6.63398e-08 0)
(0.000999212 -1.51024e-07 0)
(0.000999902 -2.48831e-07 0)
(0.000997519 -5.93417e-07 0)
(0.000998839 -1.13386e-06 0)
(0.000993341 -2.88692e-06 0)
(0.000997524 -5.59483e-06 0)
(0.000991659 -1.15424e-05 0)
(0.000915829 -1.2703e-05 0)
(0.000951457 2.66946e-07 0)
(0.00101022 1.4643e-05 0)
(0.000990943 1.30859e-05 0)
(0.000983964 5.14187e-06 0)
(0.000989577 1.95088e-07 0)
(0.000996275 -7.81896e-07 0)
(0.000999233 -1.13938e-07 0)
(0.000999408 2.45371e-07 0)
(0.000998643 1.71888e-07 0)
(0.000998501 -1.84928e-07 0)
(0.000999805 1.33023e-08 0)
(0.00100017 4.56001e-08 0)
(0.000999212 1.16482e-07 0)
(0.000999901 1.98525e-07 0)
(0.000997516 5.2751e-07 0)
(0.000998834 1.04991e-06 0)
(0.000993333 2.78558e-06 0)
(0.000997512 5.47285e-06 0)
(0.000991645 1.13973e-05 0)
(0.000915801 1.25494e-05 0)
(0.000951427 -4.74729e-07 0)
(0.0010102 -1.49054e-05 0)
(0.000990937 -1.3407e-05 0)
(0.000983957 -5.53538e-06 0)
(0.000989558 -6.49171e-07 0)
(0.000996237 2.46948e-07 0)
(0.000999191 -4.7252e-07 0)
(0.000999363 -1.00224e-06 0)
(0.000998628 -9.9044e-07 0)
(0.000998451 -8.8952e-07 0)
(0.000999996 4.33542e-08 0)
(0.000999912 1.83029e-07 0)
(0.000999752 3.51061e-07 0)
(0.000999528 6.84479e-07 0)
(0.000999283 1.27414e-06 0)
(0.000999207 2.40083e-06 0)
(0.000999697 4.59021e-06 0)
(0.00100139 7.94294e-06 0)
(0.00100489 1.31301e-05 0)
(0.00100957 1.4716e-05 0)
(0.00101187 -4.0599e-06 0)
(0.0010089 -1.90028e-05 0)
(0.00100213 -1.60941e-05 0)
(0.000997468 -6.12414e-06 0)
(0.000996807 -8.71218e-08 0)
(0.000998396 7.73508e-07 0)
(0.00100016 -4.26362e-07 0)
(0.00100085 -1.30283e-06 0)
(0.00100087 -1.38048e-06 0)
(0.00100036 -1.25211e-06 0)
(0.000999996 8.73186e-08 0)
(0.000999965 2.68619e-07 0)
(0.000999903 5.41023e-07 0)
(0.000999869 9.06041e-07 0)
(0.000999868 1.51093e-06 0)
(0.00100008 2.2613e-06 0)
(0.00100047 3.29555e-06 0)
(0.00100148 3.99216e-06 0)
(0.00100302 4.20933e-06 0)
(0.00100594 2.36278e-06 0)
(0.00100902 -9.73683e-07 0)
(0.00100905 -4.53503e-06 0)
(0.00100542 -5.01663e-06 0)
(0.00100066 -3.13042e-06 0)
(0.000998052 -1.13415e-06 0)
(0.000998131 -2.53062e-07 0)
(0.000999619 -3.20532e-07 0)
(0.00100064 -7.37625e-07 0)
(0.00100106 -9.6824e-07 0)
(0.00100055 -1.07587e-06 0)
(0.001 9.76987e-08 0)
(0.001 3.13591e-07 0)
(0.00100002 5.66525e-07 0)
(0.00100007 9.12392e-07 0)
(0.0010002 1.33102e-06 0)
(0.00100046 1.87134e-06 0)
(0.00100097 2.40094e-06 0)
(0.00100185 2.97673e-06 0)
(0.00100317 3.11132e-06 0)
(0.00100468 2.73299e-06 0)
(0.00100567 5.08149e-07 0)
(0.00100526 -2.74587e-06 0)
(0.00100338 -5.07051e-06 0)
(0.00100096 -5.06854e-06 0)
(0.000999405 -3.45061e-06 0)
(0.000999119 -1.79499e-06 0)
(0.000999741 -1.01785e-06 0)
(0.00100025 -1.05433e-06 0)
(0.00100061 -1.30823e-06 0)
(0.00100023 -1.51799e-06 0)
(0.001 9.87231e-08 0)
(0.00100002 3.00118e-07 0)
(0.00100008 5.29706e-07 0)
(0.00100018 8.00167e-07 0)
(0.00100036 1.1193e-06 0)
(0.00100066 1.46041e-06 0)
(0.00100111 1.78035e-06 0)
(0.00100173 1.95195e-06 0)
(0.00100247 1.78251e-06 0)
(0.00100316 1.03558e-06 0)
(0.00100365 -2.74417e-07 0)
(0.00100363 -1.77111e-06 0)
(0.00100291 -2.70161e-06 0)
(0.0010017 -2.62813e-06 0)
(0.00100057 -1.7793e-06 0)
(0.0009999 -8.96033e-07 0)
(0.000999853 -4.24316e-07 0)
(0.000999975 -4.4322e-07 0)
(0.00100021 -6.17519e-07 0)
(0.001 -8.51161e-07 0)
(0.001 8.67247e-08 0)
(0.00100004 2.61544e-07 0)
(0.00100011 4.48188e-07 0)
(0.00100024 6.55806e-07 0)
(0.00100042 8.75898e-07 0)
(0.00100069 1.08629e-06 0)
(0.00100105 1.23236e-06 0)
(0.0010015 1.25329e-06 0)
(0.00100199 1.07252e-06 0)
(0.00100248 6.5669e-07 0)
(0.00100279 2.27705e-08 0)
(0.00100274 -7.6206e-07 0)
(0.00100227 -1.44179e-06 0)
(0.00100146 -1.77089e-06 0)
(0.00100062 -1.66891e-06 0)
(0.000999999 -1.34953e-06 0)
(0.000999787 -1.02684e-06 0)
(0.000999759 -9.32398e-07 0)
(0.000999879 -9.46588e-07 0)
(0.000999762 -1.1111e-06 0)
(0.001 6.99676e-08 0)
(0.00100004 2.07309e-07 0)
(0.00100012 3.48367e-07 0)
(0.00100025 4.95822e-07 0)
(0.00100043 6.42426e-07 0)
(0.00100066 7.6816e-07 0)
(0.00100095 8.40742e-07 0)
(0.00100128 8.26681e-07 0)
(0.00100162 6.89604e-07 0)
(0.0010019 4.04972e-07 0)
(0.00100205 -4.51992e-08 0)
(0.00100199 -5.70175e-07 0)
(0.0010017 -1.02981e-06 0)
(0.00100119 -1.28017e-06 0)
(0.00100064 -1.23221e-06 0)
(0.00100015 -9.96739e-07 0)
(0.000999907 -7.00079e-07 0)
(0.000999734 -5.52727e-07 0)
(0.000999747 -4.88322e-07 0)
(0.000999555 -6.00624e-07 0)
(0.001 5.1206e-08 0)
(0.00100004 1.47785e-07 0)
(0.00100013 2.41726e-07 0)
(0.00100025 3.33662e-07 0)
(0.00100041 4.19783e-07 0)
(0.00100062 4.85524e-07 0)
(0.00100086 5.122e-07 0)
(0.00100111 4.75012e-07 0)
(0.00100136 3.60552e-07 0)
(0.00100156 1.54432e-07 0)
(0.00100166 -1.15888e-07 0)
(0.0010016 -4.17523e-07 0)
(0.00100139 -6.78524e-07 0)
(0.00100103 -8.42781e-07 0)
(0.00100063 -8.53274e-07 0)
(0.00100021 -7.73246e-07 0)
(0.000999942 -6.36607e-07 0)
(0.000999684 -5.93332e-07 0)
(0.000999624 -5.6189e-07 0)
(0.000999382 -6.86339e-07 0)
(0.001 3.5353e-08 0)
(0.00100004 1.03604e-07 0)
(0.00100011 1.71358e-07 0)
(0.00100023 2.38238e-07 0)
(0.00100038 3.00634e-07 0)
(0.00100056 3.51055e-07 0)
(0.00100076 3.78135e-07 0)
(0.00100097 3.7092e-07 0)
(0.00100116 3.20228e-07 0)
(0.00100129 2.23872e-07 0)
(0.00100135 8.66793e-08 0)
(0.00100131 -6.86845e-08 0)
(0.00100115 -2.0436e-07 0)
(0.00100086 -2.97503e-07 0)
(0.00100053 -3.14244e-07 0)
(0.00100016 -2.83346e-07 0)
(0.000999893 -2.01607e-07 0)
(0.000999608 -1.66246e-07 0)
(0.000999514 -1.18677e-07 0)
(0.000999244 -1.99346e-07 0)
(0.001 -3.74045e-09 0)
(0.00100004 -1.00658e-08 0)
(0.00100012 -1.37461e-08 0)
(0.00100024 -1.5811e-08 0)
(0.00100038 -1.77041e-08 0)
(0.00100056 -2.25272e-08 0)
(0.00100075 -3.27548e-08 0)
(0.00100094 -5.24072e-08 0)
(0.00100111 -8.12209e-08 0)
(0.00100122 -1.21956e-07 0)
(0.00100127 -1.69031e-07 0)
(0.00100121 -2.30055e-07 0)
(0.00100106 -2.89772e-07 0)
(0.0010008 -3.41385e-07 0)
(0.00100053 -3.60258e-07 0)
(0.00100017 -3.6839e-07 0)
(0.000999939 -3.41899e-07 0)
(0.000999605 -3.51868e-07 0)
(0.000999519 -3.27819e-07 0)
(0.000999125 -4.10862e-07 0)
)
;

boundaryField
{
    sides
    {
        type            slip;
    }
    inlet
    {
        type            fixedValue;
        value           uniform (0.001 0 0);
    }
    outlet
    {
        type            zeroGradient;
    }
    frontAndBack
    {
        type            empty;
    }
}


// ************************************************************************* //
