/*--------------------------------*- C++ -*----------------------------------*\
  =========                 |
  \\      /  F ield         | OpenFOAM: The Open Source CFD Toolbox
   \\    /   O peration     | Website:  https://openfoam.org
    \\  /    A nd           | Version:  9
     \\/     M anipulation  |
\*---------------------------------------------------------------------------*/
FoamFile
{
    format      ascii;
    class       volVectorField;
    location    "56";
    object      U;
}
// * * * * * * * * * * * * * * * * * * * * * * * * * * * * * * * * * * * * * //

dimensions      [0 1 -1 0 0 0 0];

internalField   nonuniform List<vector> 
400
(
(0.0999966 -2.43084e-06 0)
(0.100001 -6.98541e-06 0)
(0.10001 -1.12045e-05 0)
(0.100023 -1.51515e-05 0)
(0.10004 -1.87289e-05 0)
(0.100061 -2.17658e-05 0)
(0.100083 -2.38226e-05 0)
(0.100106 -2.46115e-05 0)
(0.100127 -2.36276e-05 0)
(0.100143 -2.10791e-05 0)
(0.100151 -1.68652e-05 0)
(0.100151 -1.29137e-05 0)
(0.100139 -9.93729e-06 0)
(0.100119 -9.29104e-06 0)
(0.100092 -9.90315e-06 0)
(0.100067 -1.35258e-05 0)
(0.100044 -1.56985e-05 0)
(0.100033 -2.01623e-05 0)
(0.100025 -1.88722e-05 0)
(0.100032 -2.68272e-05 0)
(0.0999972 -2.70356e-06 0)
(0.100002 -7.74963e-06 0)
(0.100012 -1.25681e-05 0)
(0.100026 -1.71956e-05 0)
(0.100044 -2.13195e-05 0)
(0.100066 -2.42718e-05 0)
(0.100091 -2.49373e-05 0)
(0.100116 -2.22557e-05 0)
(0.100141 -1.54431e-05 0)
(0.10016 -4.65542e-06 0)
(0.10017 9.41949e-06 0)
(0.100168 2.46312e-05 0)
(0.100153 3.88607e-05 0)
(0.100128 4.77512e-05 0)
(0.100099 5.07058e-05 0)
(0.10007 4.52911e-05 0)
(0.10005 3.76317e-05 0)
(0.100037 2.53397e-05 0)
(0.100033 2.04654e-05 0)
(0.100028 8.22661e-06 0)
(0.0999971 -5.32038e-06 0)
(0.100002 -1.57617e-05 0)
(0.100011 -2.63359e-05 0)
(0.100025 -3.70463e-05 0)
(0.100044 -4.73384e-05 0)
(0.100068 -5.59338e-05 0)
(0.100096 -6.0866e-05 0)
(0.100126 -6.0047e-05 0)
(0.100155 -5.17288e-05 0)
(0.100179 -3.49961e-05 0)
(0.100192 -1.09582e-05 0)
(0.100191 1.60656e-05 0)
(0.100173 3.99959e-05 0)
(0.100141 5.21299e-05 0)
(0.100101 5.02627e-05 0)
(0.100065 3.55563e-05 0)
(0.100037 2.00677e-05 0)
(0.100025 4.16076e-06 0)
(0.100021 -4.23949e-07 0)
(0.100029 -1.15808e-05 0)
(0.0999965 -7.42539e-06 0)
(0.100001 -2.20627e-05 0)
(0.100011 -3.70363e-05 0)
(0.100025 -5.26207e-05 0)
(0.100046 -6.8067e-05 0)
(0.100073 -8.14776e-05 0)
(0.100107 -8.94861e-05 0)
(0.100145 -8.88133e-05 0)
(0.100186 -7.54753e-05 0)
(0.100221 -4.72641e-05 0)
(0.100242 -2.42314e-06 0)
(0.100239 4.89167e-05 0)
(0.10021 9.3413e-05 0)
(0.100158 0.000114024 0)
(0.100103 0.000105788 0)
(0.10006 7.44636e-05 0)
(0.100041 4.20062e-05 0)
(0.100034 1.63935e-05 0)
(0.10004 1.00565e-05 0)
(0.100034 2.26008e-07 0)
(0.0999955 -9.16539e-06 0)
(0.0999996 -2.76064e-05 0)
(0.100008 -4.72053e-05 0)
(0.100023 -6.89546e-05 0)
(0.100044 -9.20978e-05 0)
(0.100075 -0.000114411 0)
(0.100117 -0.000130427 0)
(0.100168 -0.000133974 0)
(0.100225 -0.000117448 0)
(0.10028 -7.77402e-05 0)
(0.100317 -1.71592e-05 0)
(0.100315 5.73361e-05 0)
(0.100266 0.000122658 0)
(0.100181 0.000151098 0)
(0.10009 0.000137701 0)
(0.100028 9.6507e-05 0)
(0.100009 5.76547e-05 0)
(0.100018 3.06931e-05 0)
(0.100035 2.60334e-05 0)
(0.100043 1.70069e-05 0)
(0.0999941 -1.0404e-05 0)
(0.0999969 -3.16464e-05 0)
(0.100003 -5.57305e-05 0)
(0.100015 -8.40657e-05 0)
(0.100036 -0.00011731 0)
(0.10007 -0.000152944 0)
(0.100121 -0.000186433 0)
(0.100192 -0.0002057 0)
(0.100276 -0.000191115 0)
(0.100356 -0.000119956 0)
(0.100413 8.12447e-06 0)
(0.100414 0.000153711 0)
(0.100338 0.00024283 0)
(0.100207 0.000230379 0)
(0.100084 0.000143118 0)
(0.100014 4.91763e-05 0)
(0.100012 7.96712e-07 0)
(0.100034 -9.23156e-06 0)
(0.100064 5.81097e-06 0)
(0.100055 5.16605e-06 0)
(0.0999925 -1.03313e-05 0)
(0.0999927 -3.31643e-05 0)
(0.0999947 -5.97842e-05 0)
(0.100001 -9.58758e-05 0)
(0.100015 -0.000139273 0)
(0.100046 -0.000195019 0)
(0.100103 -0.000249451 0)
(0.100201 -0.000308754 0)
(0.100349 -0.000323487 0)
(0.100519 -0.000287882 0)
(0.100632 -6.80524e-05 0)
(0.10059 0.000255361 0)
(0.100382 0.000482519 0)
(0.100117 0.000473511 0)
(0.099947 0.00030287 0)
(0.0999212 0.000126248 0)
(0.0999921 4.24969e-05 0)
(0.100055 3.18687e-05 0)
(0.100095 5.59419e-05 0)
(0.100066 5.35677e-05 0)
(0.0999906 -9.31792e-06 0)
(0.0999871 -2.87378e-05 0)
(0.0999803 -5.74148e-05 0)
(0.0999767 -9.54566e-05 0)
(0.0999771 -0.000157777 0)
(0.100001 -0.000234839 0)
(0.100047 -0.000340774 0)
(0.100159 -0.000412855 0)
(0.100334 -0.000437467 0)
(0.100657 -0.000255348 0)
(0.101006 7.59245e-05 0)
(0.101013 0.000426335 0)
(0.100605 0.000471732 0)
(0.100071 0.000278148 0)
(0.0997812 7.35647e-05 0)
(0.0997963 -2.75933e-05 0)
(0.0999668 -2.91339e-05 0)
(0.100089 -1.69408e-06 0)
(0.100138 2.08893e-05 0)
(0.100086 1.03616e-05 0)
(0.0999895 -4.96081e-06 0)
(0.0999802 -2.02942e-05 0)
(0.0999624 -3.84938e-05 0)
(0.0999375 -7.33843e-05 0)
(0.0999103 -0.000133893 0)
(0.0999014 -0.000248407 0)
(0.0999561 -0.000469164 0)
(0.100144 -0.000807218 0)
(0.100536 -0.00132919 0)
(0.101061 -0.00149299 0)
(0.101322 0.000385325 0)
(0.100995 0.00187428 0)
(0.10024 0.00157825 0)
(0.0997191 0.000574038 0)
(0.0996437 -3.147e-05 0)
(0.0998214 -0.000126372 0)
(0.100024 -9.90258e-06 0)
(0.100106 6.28968e-05 0)
(0.100112 6.48875e-05 0)
(0.100055 2.44188e-05 0)
(0.0999703 -1.98891e-06 0)
(0.100005 -6.63322e-06 0)
(0.0999073 -1.51003e-05 0)
(0.0999715 -2.48785e-05 0)
(0.0997256 -5.9326e-05 0)
(0.0998436 -0.00011334 0)
(0.0992758 -0.000288522 0)
(0.0996743 -0.000559045 0)
(0.0991175 -0.00115368 0)
(0.102002 -0.00141482 0)
(0.10628 2.98184e-05 0)
(0.101266 0.00146785 0)
(0.0990069 0.00130744 0)
(0.0982215 0.000513273 0)
(0.0988545 1.94884e-05 0)
(0.0996044 -7.81715e-05 0)
(0.0999347 -1.13951e-05 0)
(0.0999518 2.45398e-05 0)
(0.0998665 1.71892e-05 0)
(0.0998486 -1.84925e-05 0)
(0.099971 1.33011e-06 0)
(0.100006 4.55951e-06 0)
(0.0999079 1.16467e-05 0)
(0.099972 1.98489e-05 0)
(0.0997259 5.27374e-05 0)
(0.0998436 0.000104949 0)
(0.0992756 0.000278396 0)
(0.0996738 0.00054686 0)
(0.0991164 0.00113917 0)
(0.102 0.00139773 0)
(0.106276 -5.30279e-05 0)
(0.101265 -0.00149416 0)
(0.0990069 -0.00133953 0)
(0.0982213 -0.000552557 0)
(0.098853 -6.48497e-05 0)
(0.0996009 2.46892e-05 0)
(0.0999306 -4.72575e-05 0)
(0.0999473 -0.000100235 0)
(0.0998653 -9.90465e-05 0)
(0.0998438 -8.89509e-05 0)
(0.0999916 4.33507e-06 0)
(0.0999822 1.83012e-05 0)
(0.0999644 3.51023e-05 0)
(0.0999395 6.84387e-05 0)
(0.0999121 0.000127394 0)
(0.0999034 0.000240041 0)
(0.0999576 0.000458966 0)
(0.100146 0.00079435 0)
(0.100536 0.00131363 0)
(0.101063 0.00147314 0)
(0.101324 -0.000406538 0)
(0.100995 -0.00190226 0)
(0.100234 -0.00160975 0)
(0.0997111 -0.000612195 0)
(0.0996378 -8.70843e-06 0)
(0.0998168 7.73332e-05 0)
(0.100014 -4.26353e-05 0)
(0.100091 -0.000130292 0)
(0.100093 -0.000138055 0)
(0.100037 -0.000125212 0)
(0.099994 8.73137e-06 0)
(0.0999904 2.68603e-05 0)
(0.0999835 5.40987e-05 0)
(0.0999796 9.05975e-05 0)
(0.0999796 0.000151082 0)
(0.100003 0.000226118 0)
(0.100047 0.000329555 0)
(0.100158 0.000399256 0)
(0.100331 0.000421054 0)
(0.100654 0.000236419 0)
(0.100999 -9.74621e-05 0)
(0.101006 -0.000453958 0)
(0.1006 -0.000501953 0)
(0.100066 -0.000313044 0)
(0.0997744 -0.00011338 0)
(0.0997842 -2.52989e-05 0)
(0.0999506 -3.20496e-05 0)
(0.100066 -7.37642e-05 0)
(0.100111 -9.68291e-05 0)
(0.100056 -0.000107588 0)
(0.0999972 9.7696e-06 0)
(0.0999973 3.13582e-05 0)
(0.099999 5.6651e-05 0)
(0.100005 9.12372e-05 0)
(0.100019 0.000133101 0)
(0.100048 0.000187139 0)
(0.100105 0.000240113 0)
(0.100203 0.000297726 0)
(0.10035 0.000311234 0)
(0.100519 0.000273436 0)
(0.10063 5.08467e-05 0)
(0.100585 -0.000274748 0)
(0.100374 -0.000507236 0)
(0.100104 -0.000506896 0)
(0.0999298 -0.000345024 0)
(0.0998985 -0.000179475 0)
(0.0999677 -0.000101778 0)
(0.100026 -0.000105434 0)
(0.100064 -0.000130827 0)
(0.100025 -0.000151801 0)
(0.1 9.87232e-06 0)
(0.100003 3.00119e-05 0)
(0.100009 5.29711e-05 0)
(0.10002 8.00183e-05 0)
(0.10004 0.000111934 0)
(0.100073 0.000146052 0)
(0.100124 0.000178058 0)
(0.100193 0.000195233 0)
(0.100275 0.000178301 0)
(0.100353 0.000103595 0)
(0.100407 -2.74531e-05 0)
(0.100404 -0.000177184 0)
(0.100325 -0.000270251 0)
(0.10019 -0.000262864 0)
(0.100063 -0.00017794 0)
(0.0999885 -8.9602e-05 0)
(0.0999829 -4.24306e-05 0)
(0.0999976 -4.4322e-05 0)
(0.100023 -6.1753e-05 0)
(0.100001 -8.51171e-05 0)
(0.100003 8.67271e-06 0)
(0.100007 2.61553e-05 0)
(0.100015 4.48206e-05 0)
(0.100029 6.55842e-05 0)
(0.10005 8.75964e-05 0)
(0.10008 0.00010864 0)
(0.10012 0.000123254 0)
(0.100169 0.000125354 0)
(0.100224 0.000107279 0)
(0.100279 6.56892e-05 0)
(0.100314 2.27784e-06 0)
(0.100308 -7.62319e-05 0)
(0.100255 -0.00014422 0)
(0.100165 -0.000177123 0)
(0.100071 -0.000166907 0)
(0.100002 -0.000134957 0)
(0.0999785 -0.000102684 0)
(0.0999761 -9.32399e-05 0)
(0.0999889 -9.46597e-05 0)
(0.0999769 -0.000111111 0)
(0.100005 6.99712e-06 0)
(0.10001 2.07321e-05 0)
(0.100019 3.4839e-05 0)
(0.100033 4.95862e-05 0)
(0.100053 6.4249e-05 0)
(0.100079 7.68257e-05 0)
(0.100111 8.40876e-05 0)
(0.100148 8.26844e-05 0)
(0.100186 6.89767e-05 0)
(0.100217 4.0508e-05 0)
(0.100234 -4.5212e-06 0)
(0.100227 -5.70334e-05 0)
(0.100195 -0.000103006 0)
(0.100138 -0.000128041 0)
(0.100076 -0.000123236 0)
(0.100022 -9.96807e-05 0)
(0.0999943 -7.00105e-05 0)
(0.0999757 -5.5274e-05 0)
(0.0999764 -4.8833e-05 0)
(0.0999563 -6.00629e-05 0)
(0.100007 5.12097e-06 0)
(0.100012 1.47797e-05 0)
(0.100021 2.41747e-05 0)
(0.100035 3.33696e-05 0)
(0.100053 4.19833e-05 0)
(0.100076 4.85592e-05 0)
(0.100102 5.12286e-05 0)
(0.100131 4.75106e-05 0)
(0.100159 3.60633e-05 0)
(0.100181 1.5447e-05 0)
(0.100192 -1.15918e-05 0)
(0.100185 -4.17629e-05 0)
(0.100161 -6.78678e-05 0)
(0.100122 -8.42939e-05 0)
(0.100077 -8.53393e-05 0)
(0.100031 -7.73319e-05 0)
(0.1 -6.36645e-05 0)
(0.0999721 -5.93354e-05 0)
(0.0999645 -5.61902e-05 0)
(0.099939 -6.86345e-05 0)
(0.100009 3.53561e-06 0)
(0.100013 1.03614e-05 0)
(0.100022 1.71375e-05 0)
(0.100034 2.38265e-05 0)
(0.100051 3.00674e-05 0)
(0.100071 3.51108e-05 0)
(0.100094 3.78201e-05 0)
(0.100117 3.70993e-05 0)
(0.100138 3.20298e-05 0)
(0.100152 2.23924e-05 0)
(0.100159 8.67001e-06 0)
(0.100154 -6.87006e-06 0)
(0.100136 -2.04404e-05 0)
(0.100104 -2.97558e-05 0)
(0.100067 -3.1429e-05 0)
(0.100026 -2.83376e-05 0)
(0.0999963 -2.01621e-05 0)
(0.0999652 -1.66253e-05 0)
(0.0999537 -1.1868e-05 0)
(0.0999252 -1.99348e-05 0)
(0.10001 -3.74082e-07 0)
(0.100015 -1.00669e-06 0)
(0.100024 -1.37477e-06 0)
(0.100036 -1.5813e-06 0)
(0.100053 -1.77067e-06 0)
(0.100072 -2.25309e-06 0)
(0.100094 -3.27609e-06 0)
(0.100115 -5.24181e-06 0)
(0.100133 -8.12392e-06 0)
(0.100146 -1.21985e-05 0)
(0.100151 -1.69072e-05 0)
(0.100144 -2.30109e-05 0)
(0.100128 -2.89835e-05 0)
(0.100099 -3.4145e-05 0)
(0.100068 -3.60315e-05 0)
(0.100029 -3.68434e-05 0)
(0.100003 -3.41929e-05 0)
(0.0999664 -3.51889e-05 0)
(0.0999553 -3.2783e-05 0)
(0.0999139 -4.10867e-05 0)
)
;

boundaryField
{
    sides
    {
        type            calculated;
        value           nonuniform List<vector> 
40
(
(0.10001 0 0)
(0.100015 0 0)
(0.100024 0 0)
(0.100036 0 0)
(0.100053 0 0)
(0.100072 0 0)
(0.100094 0 0)
(0.100115 0 0)
(0.100133 0 0)
(0.100146 0 0)
(0.100151 0 0)
(0.100144 0 0)
(0.100128 0 0)
(0.100099 0 0)
(0.100068 0 0)
(0.100029 0 0)
(0.100003 0 0)
(0.0999664 0 0)
(0.0999553 0 0)
(0.0999139 0 0)
(0.0999966 0 0)
(0.100001 0 0)
(0.10001 0 0)
(0.100023 0 0)
(0.10004 0 0)
(0.100061 0 0)
(0.100083 0 0)
(0.100106 0 0)
(0.100127 0 0)
(0.100143 0 0)
(0.100151 0 0)
(0.100151 0 0)
(0.100139 0 0)
(0.100119 0 0)
(0.100092 0 0)
(0.100067 0 0)
(0.100044 0 0)
(0.100033 0 0)
(0.100025 0 0)
(0.100032 0 0)
)
;
    }
    inlet
    {
        type            calculated;
        value           nonuniform List<vector> 
20
(
(0.0999965 0 0)
(0.099997 0 0)
(0.0999969 0 0)
(0.0999963 0 0)
(0.0999953 0 0)
(0.099994 0 0)
(0.0999925 0 0)
(0.099991 0 0)
(0.09999 0 0)
(0.0999899 0 0)
(0.0999905 0 0)
(0.099992 0 0)
(0.0999943 0 0)
(0.0999972 0 0)
(0.1 0 0)
(0.100003 0 0)
(0.100005 0 0)
(0.100007 0 0)
(0.100009 0 0)
(0.10001 0 0)
)
;
    }
    outlet
    {
        type            calculated;
        value           nonuniform List<vector> 
20
(
(0.100033 -2.68273e-05 0)
(0.100028 8.2266e-06 0)
(0.100029 -1.15808e-05 0)
(0.100034 2.26007e-07 0)
(0.100042 1.70069e-05 0)
(0.100054 5.16601e-06 0)
(0.100065 5.3567e-05 0)
(0.100084 1.03614e-05 0)
(0.100054 2.44185e-05 0)
(0.0998501 -1.84928e-05 0)
(0.0998451 -8.8952e-05 0)
(0.100036 -0.000125211 0)
(0.100055 -0.000107587 0)
(0.100023 -0.000151799 0)
(0.1 -8.51161e-05 0)
(0.0999762 -0.00011111 0)
(0.0999555 -6.00624e-05 0)
(0.0999382 -6.86339e-05 0)
(0.0999244 -1.99346e-05 0)
(0.0999125 -4.10862e-05 0)
)
;
    }
    frontAndBack
    {
        type            empty;
    }
}


// ************************************************************************* //
