/*--------------------------------*- C++ -*----------------------------------*\
  =========                 |
  \\      /  F ield         | OpenFOAM: The Open Source CFD Toolbox
   \\    /   O peration     | Website:  https://openfoam.org
    \\  /    A nd           | Version:  9
     \\/     M anipulation  |
\*---------------------------------------------------------------------------*/
FoamFile
{
    format      ascii;
    class       volScalarField;
    location    "68";
    object      ddt0(h);
}
// * * * * * * * * * * * * * * * * * * * * * * * * * * * * * * * * * * * * * //

dimensions      [0 1 -1 0 0 0 0];

internalField   nonuniform List<scalar> 
400
(
-1.95731e-08
7.85393e-09
1.81393e-08
-1.19568e-09
-1.21796e-08
3.96816e-09
1.12909e-09
4.69645e-09
-2.03734e-08
-1.70198e-08
-1.12556e-08
-1.33292e-08
-1.19548e-08
-2.84662e-08
-1.7897e-08
-1.05766e-08
-2.02526e-08
-1.95968e-08
7.32972e-09
1.13428e-08
-1.22933e-08
4.8016e-09
2.7035e-09
-1.32591e-09
9.97251e-09
1.23365e-09
-3.1021e-10
-9.7131e-09
-5.21448e-09
-2.08498e-08
3.71852e-10
-9.88469e-09
-1.30889e-08
-5.75817e-09
-7.04016e-09
1.10872e-09
-8.04206e-09
-1.92411e-08
-1.26383e-08
-2.30101e-10
6.23641e-10
-4.24806e-09
-1.18895e-08
1.36726e-08
1.993e-08
-1.31956e-08
-6.39959e-09
-7.85469e-09
6.75048e-10
8.64684e-09
-1.66392e-08
2.1166e-08
-9.19747e-09
1.12881e-08
2.22587e-08
1.62617e-08
6.16899e-09
-8.06992e-09
-1.40385e-08
-7.14207e-09
6.33952e-09
-6.01031e-09
-2.11857e-09
2.11235e-08
-7.00131e-09
-1.84911e-08
-1.04966e-08
2.17617e-08
-1.32384e-08
4.35131e-08
2.01453e-08
-1.4152e-08
4.1833e-08
2.90224e-09
1.57784e-08
2.83162e-08
2.73955e-08
2.10693e-08
6.97558e-09
-1.42053e-09
9.59624e-09
3.06156e-09
1.27878e-08
3.14253e-09
-2.54582e-08
-2.45954e-08
2.84683e-08
-2.66837e-08
7.09669e-08
-6.06809e-08
1.44368e-07
-6.44297e-09
-1.16544e-08
5.09071e-08
4.82825e-09
6.28118e-10
2.77521e-08
4.34218e-08
3.27106e-08
1.0243e-08
1.7944e-08
1.41948e-08
6.56503e-09
-1.24789e-08
-3.51455e-08
1.64227e-08
1.42691e-11
2.07933e-08
-9.88562e-09
8.82276e-08
-8.56442e-08
2.13119e-07
-1.37742e-08
-2.75039e-08
1.26491e-08
-4.94366e-09
7.50679e-09
3.96823e-08
4.14443e-08
1.60173e-08
2.55499e-08
1.33952e-08
-6.33184e-09
-2.24283e-08
-1.82095e-09
1.90313e-08
1.35706e-08
2.23272e-09
-3.49726e-08
2.96178e-07
-4.12008e-07
-1.73697e-07
1.62586e-07
1.71437e-08
-2.28507e-08
-1.7259e-08
-7.61798e-09
1.37372e-08
1.75439e-08
6.47195e-09
2.08802e-08
2.72836e-09
-1.71248e-08
-3.65861e-09
1.63669e-08
3.33974e-08
-4.39579e-09
-1.98922e-08
1.78304e-07
-5.51273e-07
2.00301e-06
-4.23862e-07
-6.10152e-08
7.05795e-08
2.12394e-08
-2.07779e-08
-2.14141e-08
-1.83644e-08
-1.34045e-08
-6.14401e-09
5.32261e-09
-1.04625e-08
-1.4813e-08
1.34187e-08
3.56574e-08
3.78233e-09
1.402e-08
1.03371e-08
-1.80963e-07
5.78726e-07
-2.05375e-06
4.91578e-07
1.02217e-07
-2.47137e-08
1.38191e-08
3.92428e-09
1.12432e-08
-2.83574e-08
-2.70369e-08
3.55626e-09
-9.65412e-09
-1.42906e-08
-7.01041e-09
2.63193e-08
2.78948e-08
-5.70037e-10
-6.02364e-09
3.69751e-08
5.34742e-08
-2.85035e-07
5.44869e-07
1.2735e-07
-1.32029e-07
1.53473e-08
3.29266e-08
2.69685e-08
-2.79366e-08
-1.30569e-08
-1.85672e-08
-2.46857e-08
-1.56862e-08
-6.31453e-09
-1.34402e-12
1.97284e-08
2.39134e-08
-1.17659e-08
2.10002e-08
1.10181e-08
9.02539e-08
-1.16095e-07
-2.05103e-09
-1.11007e-07
-5.49307e-09
3.38202e-08
2.31698e-08
3.06994e-08
1.66149e-08
-1.34756e-09
-6.45645e-09
-2.30806e-09
-1.25161e-08
2.82101e-09
6.48657e-09
2.33959e-09
1.90925e-08
6.28189e-09
-7.61362e-09
5.94999e-08
-8.97789e-08
5.82457e-07
-5.06885e-06
1.72857e-08
8.41456e-08
-1.20798e-08
9.29324e-09
2.23301e-08
6.5053e-09
-4.94469e-09
3.16359e-09
4.74446e-09
-4.36729e-09
7.7957e-09
6.85029e-09
-6.61196e-09
1.10668e-08
2.54213e-08
-2.29754e-09
-1.96937e-08
8.16598e-08
-5.42553e-07
5.25045e-06
-2.57633e-09
-8.2982e-08
1.27839e-08
8.20429e-09
-3.75097e-09
-8.51616e-09
-4.64278e-09
9.73926e-09
9.06795e-09
4.60119e-09
5.49413e-09
7.043e-09
-1.27347e-08
8.38561e-09
3.53496e-08
2.89887e-09
-1.91349e-08
-5.3994e-08
1.17216e-07
-2.61324e-07
-3.79645e-08
4.30277e-08
-1.2687e-08
-1.50056e-08
-1.50786e-08
-7.49142e-09
1.93792e-09
1.2031e-08
9.13166e-09
9.82263e-09
5.84531e-09
2.28356e-09
-1.30776e-08
-6.14322e-09
3.82285e-08
1.77403e-08
-2.53317e-08
-1.05439e-08
-4.13202e-08
-1.66473e-08
1.02198e-08
-2.96535e-08
-1.31269e-08
-2.00632e-08
-2.06123e-08
6.5824e-10
1.52792e-08
1.52605e-08
6.86504e-09
7.40798e-09
9.6768e-09
6.76108e-09
-1.679e-08
-2.17415e-08
1.08347e-08
2.89939e-08
-9.74333e-10
-9.6726e-09
-2.65597e-09
3.31951e-08
-2.1721e-08
-1.16569e-08
-1.27829e-08
-1.52668e-08
-5.45583e-09
2.19477e-08
3.50742e-08
2.49939e-08
8.01411e-09
-2.5675e-09
1.15596e-08
1.92505e-08
-6.55061e-09
-3.68852e-08
-2.48575e-08
1.18814e-08
2.17634e-08
2.18773e-08
2.03109e-08
1.01584e-08
5.63296e-09
-9.57033e-10
1.1709e-09
7.21332e-09
2.22369e-08
3.87192e-08
4.36169e-08
3.22014e-08
1.1191e-08
-8.02339e-09
3.15904e-09
2.20172e-08
9.60491e-09
-2.72979e-08
-4.42939e-08
-1.74057e-08
1.32733e-08
2.40914e-08
1.7934e-08
1.37399e-08
1.81807e-08
1.76082e-08
1.5736e-08
2.39913e-08
3.52211e-08
3.58255e-08
2.84973e-08
1.75036e-08
5.58945e-09
7.86472e-10
-8.92321e-09
3.55546e-10
1.2444e-08
2.44654e-09
-1.82371e-08
-2.0787e-08
-5.72235e-09
-1.56307e-09
-7.28158e-09
-1.05697e-09
8.19677e-09
1.16094e-08
4.26921e-09
6.14478e-09
1.21059e-08
4.92529e-09
-1.2693e-08
-2.46972e-08
-1.33523e-08
1.2187e-08
-1.44003e-08
-2.37592e-08
3.77461e-09
2.41381e-08
1.63589e-08
-3.62464e-09
-1.17159e-08
-2.00005e-08
-2.89478e-08
-3.10669e-08
-1.66374e-08
-1.1389e-08
-2.11112e-08
-2.42438e-08
-1.98992e-08
-2.40241e-08
-4.20637e-08
-5.58267e-08
-2.94983e-08
)
;

boundaryField
{
    sides
    {
        type            calculated;
        value           nonuniform List<scalar> 
40
(
1.2187e-08
-1.44003e-08
-2.37592e-08
3.77461e-09
2.41381e-08
1.63589e-08
-3.62464e-09
-1.17159e-08
-2.00005e-08
-2.89478e-08
-3.10669e-08
-1.66374e-08
-1.1389e-08
-2.11112e-08
-2.42438e-08
-1.98992e-08
-2.40241e-08
-4.20637e-08
-5.58267e-08
-2.94983e-08
-1.95731e-08
7.85393e-09
1.81393e-08
-1.19568e-09
-1.21796e-08
3.96816e-09
1.12909e-09
4.69645e-09
-2.03734e-08
-1.70198e-08
-1.12556e-08
-1.33292e-08
-1.19548e-08
-2.84662e-08
-1.7897e-08
-1.05766e-08
-2.02526e-08
-1.95968e-08
7.32972e-09
1.13428e-08
)
;
    }
    inlet
    {
        type            calculated;
        value           nonuniform List<scalar> 
20
(
-1.95731e-08
-1.22933e-08
6.23641e-10
6.33952e-09
9.59624e-09
1.7944e-08
2.55499e-08
2.08802e-08
5.32261e-09
-9.65412e-09
-1.56862e-08
-1.25161e-08
-4.36729e-09
4.60119e-09
9.82263e-09
7.40798e-09
-2.5675e-09
-8.02339e-09
7.86472e-10
1.2187e-08
)
;
    }
    outlet
    {
        type            calculated;
        value           uniform 0;
    }
    frontAndBack
    {
        type            empty;
    }
}


// ************************************************************************* //
