/*--------------------------------*- C++ -*----------------------------------*\
  =========                 |
  \\      /  F ield         | OpenFOAM: The Open Source CFD Toolbox
   \\    /   O peration     | Website:  https://openfoam.org
    \\  /    A nd           | Version:  9
     \\/     M anipulation  |
\*---------------------------------------------------------------------------*/
FoamFile
{
    format      ascii;
    class       surfaceScalarField;
    location    "68";
    object      ddtCorrDdt0(phi);
}
// * * * * * * * * * * * * * * * * * * * * * * * * * * * * * * * * * * * * * //

dimensions      [0 4 -2 0 0 0 0];

internalField   nonuniform List<scalar> 
760
(
1.69195e-11
1.1275e-12
7.25135e-13
-4.27081e-12
2.62188e-12
7.35523e-12
7.68563e-12
1.6821e-11
-4.05053e-12
-3.85785e-12
-3.40839e-12
-1.2298e-11
2.42164e-12
9.76934e-12
1.21456e-11
1.81002e-11
1.44852e-11
1.82322e-11
2.31885e-11
1.64921e-11
-4.16822e-12
-1.26661e-11
-2.33214e-12
2.68771e-12
-1.83063e-11
-8.73948e-12
-2.27557e-11
9.07222e-12
-2.74479e-11
9.13295e-12
-3.48852e-11
1.58434e-12
-9.05121e-12
8.88023e-12
5.11392e-12
1.09739e-11
-9.86269e-12
7.54255e-12
2.38592e-12
5.76144e-13
1.5354e-12
2.79932e-12
2.94092e-12
1.18589e-11
1.70641e-11
1.76446e-12
1.34892e-11
-5.23282e-12
-1.59481e-11
1.31338e-11
1.74449e-12
2.04062e-12
1.43763e-11
1.45706e-11
3.98402e-11
1.24614e-11
1.65126e-11
-2.1705e-12
1.5992e-11
1.60857e-11
-2.24902e-12
-1.26815e-11
-3.90125e-11
-3.37375e-14
-4.2751e-12
-1.48558e-11
-1.13112e-11
-2.33e-11
-6.42955e-12
-1.76167e-11
-6.38097e-12
-1.19677e-11
-2.18055e-13
-1.39128e-11
5.58759e-12
-2.03816e-11
9.9912e-12
6.37139e-12
-9.6597e-12
6.51862e-12
7.01468e-12
1.5577e-11
1.01445e-11
1.54784e-11
-1.41787e-11
-7.49698e-12
1.6713e-11
8.63562e-13
1.92583e-11
1.53381e-11
1.66225e-11
2.33951e-11
-7.30834e-12
9.55158e-12
1.98433e-11
3.71447e-11
-1.98521e-11
-3.75181e-11
6.00987e-12
1.50912e-11
1.74425e-11
-6.12702e-11
-8.66447e-12
-3.54653e-11
8.79248e-13
-1.80009e-12
-3.57504e-12
-1.84537e-11
6.42201e-12
-2.30984e-11
4.2357e-12
-2.14435e-11
-2.05752e-11
-8.63321e-12
-2.95754e-11
1.36825e-11
6.48461e-12
-1.2371e-11
8.18607e-12
4.1563e-12
1.70852e-11
-9.23355e-12
5.04537e-12
-3.8631e-12
7.33287e-13
3.26934e-11
1.7831e-11
2.24587e-11
1.49124e-11
1.43135e-12
-1.02194e-11
1.51304e-11
-2.95652e-12
-3.69412e-11
5.64001e-12
5.43543e-11
1.14649e-11
-6.14839e-11
-1.67589e-10
3.65963e-11
3.3137e-11
2.1595e-11
-5.51419e-11
-1.98571e-11
-1.42764e-11
5.82245e-12
2.58928e-11
3.07928e-11
5.61437e-13
1.96901e-11
-2.79142e-11
-7.9254e-12
-2.63774e-11
-1.63188e-11
-4.91353e-12
2.35468e-12
-1.4132e-11
3.98794e-12
-9.15422e-12
6.39691e-12
-1.56383e-11
9.48302e-12
1.48901e-11
2.2912e-11
3.45656e-11
2.70478e-11
2.96054e-12
-9.15202e-12
-6.77491e-12
-4.36442e-11
2.66993e-11
1.84343e-11
-3.22736e-11
-7.10742e-11
-7.62781e-11
8.30251e-11
1.45487e-10
-3.59646e-11
-7.22395e-11
-1.56379e-10
4.77709e-11
7.00539e-11
2.6941e-11
3.31368e-12
-1.96031e-11
7.78402e-13
1.43647e-11
2.13276e-11
3.36747e-11
-1.32474e-11
1.6771e-11
-3.64506e-11
-5.18976e-12
-2.42598e-11
-8.46623e-12
-2.02079e-11
-2.78169e-12
-1.37975e-11
3.46843e-12
-8.1001e-12
2.01437e-11
2.44078e-11
3.95182e-11
1.78815e-11
1.49133e-11
-3.1002e-11
-3.71327e-11
4.50355e-11
-1.17243e-11
-7.66943e-11
-6.88718e-11
1.26799e-10
1.34666e-10
-2.0464e-10
-3.9087e-10
9.45095e-11
5.38743e-10
1.47838e-10
-2.10662e-10
-5.71251e-11
-1.37709e-10
1.16752e-11
6.60473e-11
1.06659e-11
4.17797e-11
-9.12246e-12
1.39155e-11
7.30935e-13
-6.00581e-12
1.03665e-11
-2.33142e-11
1.56296e-11
-2.064e-11
-8.87406e-12
-2.14496e-11
-6.01759e-12
-8.86445e-12
4.71064e-12
5.8355e-12
3.03908e-11
1.64316e-11
3.32182e-11
-1.59546e-11
-4.28284e-12
-2.80738e-12
-2.09889e-11
-2.03573e-11
-3.10216e-11
7.4893e-11
6.00145e-11
-2.58788e-10
-1.29571e-10
5.7721e-10
8.4283e-11
-7.56709e-10
-3.11744e-09
1.6931e-10
5.33683e-10
1.56009e-10
-8.55914e-12
3.62909e-13
-5.68161e-11
-1.32883e-11
1.27184e-11
-2.24798e-11
1.02334e-11
-2.57188e-11
4.44509e-12
-1.61052e-11
1.94925e-12
1.47953e-11
-2.44961e-13
-1.02506e-12
-1.57505e-11
-5.94698e-12
5.14899e-12
9.11754e-12
1.08394e-11
2.47699e-11
-3.63177e-12
1.87231e-11
-1.54019e-11
-1.21856e-11
-1.64864e-11
-9.0999e-12
4.72374e-11
2.58415e-11
-9.49867e-12
-5.33613e-11
-4.13049e-10
2.07614e-10
5.24738e-10
6.69074e-10
5.873e-10
4.2838e-08
-2.92569e-10
-6.36004e-10
1.2727e-10
3.13127e-10
9.5076e-11
1.03889e-10
3.04919e-12
6.98666e-12
-2.83119e-11
-1.47792e-11
-5.43498e-11
1.25235e-12
-4.15207e-11
1.19056e-11
2.70364e-12
1.68668e-11
1.11978e-11
-2.80416e-12
3.87008e-14
1.4387e-11
6.98936e-12
9.42211e-12
1.23983e-11
-2.09679e-11
7.2004e-13
-9.70042e-12
-1.54967e-12
1.93282e-11
5.03897e-12
-1.98254e-11
1.73364e-11
1.61623e-11
4.81115e-11
4.46628e-10
-1.61429e-10
-5.41717e-10
5.57805e-11
-5.96122e-10
-2.75352e-09
3.22654e-10
5.28896e-10
-1.15627e-10
-3.65211e-11
-5.80623e-11
-4.85367e-11
1.02643e-11
-3.36705e-11
6.71872e-12
-1.84862e-11
-3.29123e-11
-2.33471e-09
-5.08237e-11
-7.48594e-15
-3.84301e-12
9.36594e-12
-5.27316e-10
6.71513e-12
3.93436e-12
1.75899e-11
4.11477e-12
2.6025e-12
-5.77189e-12
-2.43995e-11
-9.65903e-13
2.9075e-12
5.6452e-12
2.55562e-11
1.34079e-11
1.64857e-11
6.95815e-12
-5.48992e-11
-3.86692e-11
2.01392e-10
5.86202e-11
-4.3658e-10
-2.53875e-10
7.38881e-10
5.84425e-11
-2.02873e-10
-2.23026e-10
-1.34703e-10
-1.28537e-10
9.17843e-12
1.53452e-11
4.08943e-11
-7.72336e-12
1.96618e-11
-9.35372e-12
-2.52472e-11
-9.53535e-12
-3.5934e-11
-3.8755e-12
-2.87202e-11
-3.08866e-12
2.48226e-12
9.893e-12
8.73696e-15
9.82969e-12
-5.35906e-13
6.18798e-12
-1.28263e-11
-1.98921e-11
-5.66137e-12
6.94399e-12
2.02617e-11
3.07395e-11
-3.13281e-12
-2.6196e-11
4.28989e-12
2.48861e-11
-2.22438e-11
-6.03804e-11
-2.22938e-11
-1.15039e-10
-1.21401e-10
1.68552e-10
4.01587e-09
-1.59109e-10
-4.47317e-10
3.00774e-11
1.20082e-10
9.75992e-12
5.87663e-11
3.93491e-11
1.70045e-11
3.03261e-11
9.39284e-12
-1.84145e-12
-5.31516e-12
-2.46366e-11
-1.63025e-11
-1.27552e-11
-1.38984e-11
-6.00623e-12
1.0338e-11
-6.2528e-12
1.96242e-12
-4.29663e-12
9.53898e-12
-1.21833e-11
3.77341e-13
-6.66159e-12
-1.32031e-11
1.3765e-11
2.37979e-11
1.33363e-11
-1.56709e-11
-3.32017e-11
-1.94658e-11
4.32095e-11
3.66316e-11
-5.3078e-11
6.68932e-12
2.08853e-10
-2.68348e-09
-3.37754e-08
3.78767e-10
7.7665e-10
1.27333e-11
-2.95834e-11
-1.54234e-11
2.10505e-12
2.67466e-11
3.23885e-11
8.21516e-12
1.50114e-11
-1.45472e-11
-3.07812e-12
-1.35238e-11
-1.30101e-11
1.8925e-12
-9.91855e-12
-4.0779e-12
1.22741e-11
-5.99807e-12
-1.42075e-12
-6.62461e-12
1.3749e-11
-1.31557e-11
1.35563e-11
-1.42074e-11
-1.68318e-11
9.53309e-12
-1.8798e-11
1.31961e-11
1.60912e-11
4.89369e-12
-2.4515e-11
-2.59545e-11
-2.66739e-11
3.86473e-11
1.12575e-10
-1.82596e-10
2.68492e-09
3.07053e-09
-3.3952e-10
-3.7194e-10
-4.33379e-11
4.63558e-11
2.09258e-11
3.54428e-11
-1.4246e-11
8.2367e-12
-3.96573e-11
-4.87714e-13
-2.34582e-11
-8.6081e-13
5.8891e-12
4.62784e-12
1.32813e-11
1.64152e-12
-6.77548e-13
1.14718e-11
3.27349e-12
-2.55194e-12
-9.79303e-12
1.20611e-11
-2.00237e-11
2.87694e-11
-2.38928e-11
-1.85303e-11
-5.29287e-12
-2.3061e-11
2.73487e-11
2.95007e-12
8.74972e-12
1.63867e-11
-4.10195e-12
-1.93447e-11
-4.00425e-11
2.19982e-10
1.12384e-10
-3.63757e-10
-3.61074e-10
7.65446e-11
1.06726e-10
2.04899e-11
7.54816e-12
-1.86716e-11
-1.6496e-11
-4.13679e-11
-2.09273e-11
-4.94337e-11
-1.43421e-11
-1.69457e-11
7.7702e-12
2.15914e-11
1.86858e-11
1.45359e-11
5.44084e-12
-1.96149e-12
2.66027e-12
1.00957e-11
-7.15729e-12
-6.64069e-12
6.88415e-12
-2.61806e-11
3.43106e-11
-3.41084e-11
3.59209e-12
-1.80509e-11
-3.29083e-11
2.36601e-11
6.37611e-12
3.67988e-11
3.59198e-12
-1.49386e-12
1.83695e-11
-8.4176e-12
-5.35124e-11
-6.46353e-11
3.48061e-11
1.78205e-10
-1.57823e-11
-3.40336e-11
-6.42895e-12
-1.89382e-11
-2.04472e-11
-3.45037e-11
-4.5052e-11
-4.40921e-11
-3.72287e-11
-2.3819e-11
3.00413e-12
1.73308e-11
3.29937e-11
3.1591e-11
1.03683e-11
6.01154e-12
-5.80425e-12
-5.58328e-12
5.41601e-12
-1.7398e-11
-1.62872e-12
-1.48149e-12
-1.46726e-11
3.3894e-11
-3.18527e-11
2.51959e-11
-2.8015e-11
-1.73614e-11
5.62348e-12
-6.66987e-12
3.76851e-11
9.4824e-12
2.13707e-11
-1.6389e-11
-9.38077e-12
-3.21771e-12
-1.57251e-12
1.00178e-11
1.78192e-11
-7.64605e-13
-1.55861e-12
-5.85122e-12
-2.25262e-11
-2.84035e-11
-4.19838e-11
-3.13052e-11
-3.56905e-11
5.12126e-13
-5.60641e-12
3.20593e-11
3.19701e-11
3.63576e-11
3.74933e-11
3.3719e-12
6.2952e-12
-6.88563e-12
-3.36344e-12
-1.00648e-11
-1.9183e-11
-3.39226e-12
-1.28321e-11
5.51415e-12
2.42839e-11
-2.60437e-12
3.57456e-11
-2.08509e-11
6.97884e-12
-2.09994e-11
-6.93294e-12
-5.26999e-13
8.80391e-13
6.21362e-12
1.79018e-12
5.69291e-12
-1.15883e-11
1.7139e-11
6.92799e-13
2.00675e-11
-1.54105e-12
3.70299e-11
-8.38688e-12
1.46245e-11
-1.57393e-11
1.16421e-12
2.20461e-12
1.11105e-11
3.69223e-11
3.17323e-11
4.71912e-11
4.16964e-11
2.82874e-11
2.74674e-11
-7.6759e-12
-4.01766e-12
-1.05859e-11
9.63213e-12
-2.03503e-11
-4.47604e-12
-1.34585e-11
-1.54982e-11
1.63371e-11
2.6928e-12
3.06904e-11
2.41386e-11
7.25177e-12
1.93818e-11
-3.19575e-11
1.67044e-12
-4.7677e-11
4.13374e-12
-3.90524e-11
9.43215e-12
-2.08591e-11
9.48164e-12
7.06181e-12
-6.57206e-12
2.86642e-11
-1.31694e-11
4.5453e-11
-4.52857e-12
4.22106e-11
4.22758e-12
3.90185e-11
2.04741e-11
5.02297e-11
3.69791e-11
5.57764e-11
3.17225e-11
3.74806e-11
7.38349e-12
5.05779e-12
-2.16011e-11
-2.11453e-11
-1.57221e-11
1.86456e-11
-1.50257e-11
2.06511e-11
-1.36879e-11
-2.36488e-12
1.01153e-11
-1.53191e-11
3.20601e-11
-6.13133e-12
1.89581e-11
9.0011e-12
-1.70924e-11
7.90377e-12
-4.60186e-11
9.70613e-12
-4.68602e-11
1.78933e-11
-3.40183e-11
2.59315e-11
-1.59259e-11
-9.97523e-13
8.53086e-12
-1.33924e-11
2.03967e-11
-5.70948e-12
2.78578e-11
6.2257e-12
3.14319e-11
6.86353e-12
3.93032e-11
-4.01193e-12
3.7683e-11
-1.65913e-11
1.65985e-11
-2.59616e-11
-1.01458e-11
-3.40079e-11
-2.44526e-11
-1.51585e-11
2.02484e-11
3.71949e-11
1.42086e-11
-2.32179e-11
-2.84179e-11
-7.49122e-12
8.50856e-12
1.416e-11
1.98745e-11
1.62511e-11
1.83133e-12
-1.06899e-11
-8.20601e-12
9.63794e-13
-1.31836e-11
-4.42956e-11
-5.7823e-11
-4.86358e-11
-3.249e-11
)
;

boundaryField
{
    sides
    {
        type            calculated;
        value           uniform 0;
    }
    inlet
    {
        type            calculated;
        value           uniform 0;
    }
    outlet
    {
        type            calculated;
        value           nonuniform List<scalar> 
20
(
-1.99314e-11
-1.8323e-11
-2.24832e-11
-2.06786e-11
-1.3637e-11
1.92811e-11
3.45554e-11
3.08977e-11
1.37549e-11
-3.6663e-12
5.90418e-13
1.00384e-11
9.49477e-12
-2.87845e-12
-1.66586e-11
-2.32568e-11
-2.89366e-11
-3.48775e-11
-3.60219e-11
-2.63887e-11
)
;
    }
    frontAndBack
    {
        type            empty;
        value           nonuniform List<scalar> 0();
    }
}


// ************************************************************************* //
