/*--------------------------------*- C++ -*----------------------------------*\
  =========                 |
  \\      /  F ield         | OpenFOAM: The Open Source CFD Toolbox
   \\    /   O peration     | Website:  https://openfoam.org
    \\  /    A nd           | Version:  9
     \\/     M anipulation  |
\*---------------------------------------------------------------------------*/
FoamFile
{
    format      ascii;
    class       volVectorField;
    location    "68";
    object      ddtCorrDdt0(hU);
}
// * * * * * * * * * * * * * * * * * * * * * * * * * * * * * * * * * * * * * //

dimensions      [0 2 -2 0 0 0 0];

internalField   nonuniform List<vector> 
400
(
(-1.65918e-09 4.3766e-10 0)
(2.89495e-09 -4.55649e-10 0)
(1.83716e-09 3.94143e-10 0)
(3.60442e-10 1.54496e-09 0)
(-8.49646e-10 1.44299e-10 0)
(-2.45896e-10 -8.23904e-10 0)
(9.28451e-11 9.56024e-10 0)
(2.4457e-09 1.81837e-09 0)
(1.80274e-09 2.36488e-09 0)
(3.32783e-09 1.55973e-09 0)
(1.97126e-09 -1.74303e-09 0)
(-5.65316e-10 -4.52489e-12 0)
(-1.23374e-09 -8.77234e-10 0)
(-4.81371e-09 9.62583e-10 0)
(-4.9799e-09 1.04581e-09 0)
(-5.85765e-09 2.64003e-10 0)
(-5.11418e-09 9.43116e-10 0)
(-8.98576e-10 6.30154e-10 0)
(5.76597e-10 -3.37799e-10 0)
(-3.24317e-09 -4.87463e-10 0)
(-2.14389e-09 6.48456e-10 0)
(1.32373e-09 -2.38218e-10 0)
(2.02168e-09 1.83336e-09 0)
(6.45327e-10 2.84788e-09 0)
(-1.48209e-10 -1.13346e-09 0)
(5.60252e-10 -5.74597e-10 0)
(1.92057e-09 2.29946e-09 0)
(1.50366e-09 5.60106e-09 0)
(3.12395e-09 4.19677e-09 0)
(-1.73318e-10 3.0772e-09 0)
(2.20809e-09 -3.23842e-09 0)
(3.20297e-10 -3.42955e-09 0)
(-1.5674e-09 -1.10878e-09 0)
(-1.10915e-09 2.48813e-11 0)
(-4.04335e-09 6.40095e-10 0)
(-3.70719e-09 1.08698e-10 0)
(-3.05841e-09 1.25311e-09 0)
(-3.0499e-09 2.13464e-09 0)
(-3.46712e-09 1.80749e-09 0)
(-3.61091e-09 3.47427e-10 0)
(-1.35978e-09 8.37526e-10 0)
(-5.67803e-11 1.74795e-09 0)
(1.15561e-09 3.06015e-09 0)
(9.4338e-11 7.77515e-10 0)
(1.03413e-09 -1.27409e-09 0)
(2.35567e-09 1.52801e-09 0)
(3.8622e-09 3.44718e-09 0)
(8.79398e-10 5.00224e-09 0)
(1.29494e-09 5.59274e-09 0)
(8.99189e-10 -1.7699e-09 0)
(-3.29656e-09 -6.4626e-11 0)
(4.12762e-09 -9.274e-09 0)
(-2.09193e-10 -3.66725e-09 0)
(-5.46285e-10 -8.71606e-10 0)
(3.11804e-10 -2.28008e-09 0)
(2.27126e-10 -2.31915e-09 0)
(9.00729e-10 -1.32987e-09 0)
(-1.57274e-09 4.94377e-10 0)
(-5.21852e-09 2.41486e-09 0)
(-5.22539e-09 1.63427e-09 0)
(-7.59106e-10 1.40428e-09 0)
(-1.32195e-09 3.23785e-09 0)
(-6.15429e-10 2.2726e-09 0)
(7.52976e-11 -3.55461e-10 0)
(2.04782e-09 1.66332e-09 0)
(4.71315e-09 2.53914e-09 0)
(2.01838e-09 1.23876e-09 0)
(3.52621e-09 8.22667e-10 0)
(-4.49769e-09 4.53175e-09 0)
(3.76023e-09 -2.12702e-09 0)
(-2.21964e-10 -1.30395e-08 0)
(-5.33642e-09 -2.47485e-09 0)
(8.60471e-09 -9.06168e-09 0)
(-1.00699e-09 -1.46491e-09 0)
(-1.6515e-09 8.38229e-10 0)
(4.01945e-09 -2.49794e-09 0)
(5.27557e-09 -4.76485e-09 0)
(1.44233e-09 -2.86586e-09 0)
(-2.64239e-09 1.98677e-09 0)
(-3.97861e-09 1.95382e-09 0)
(-5.98127e-10 1.18108e-09 0)
(-2.84253e-09 2.46698e-09 0)
(-1.53755e-09 1.69381e-09 0)
(3.25041e-10 2.45309e-09 0)
(3.55769e-09 4.18894e-09 0)
(2.48869e-09 4.80076e-10 0)
(2.58408e-09 -5.10775e-09 0)
(-1.89955e-09 1.52064e-09 0)
(5.49343e-09 -6.3208e-09 0)
(-1.94708e-08 7.92273e-09 0)
(1.57068e-08 -2.00576e-08 0)
(4.17831e-09 -8.52361e-09 0)
(-4.92574e-09 2.07824e-09 0)
(1.08195e-08 -1.88392e-09 0)
(-3.16588e-10 2.68291e-09 0)
(-1.85866e-09 1.69435e-09 0)
(5.06272e-09 -4.50652e-09 0)
(6.25131e-09 -5.74054e-09 0)
(1.63412e-09 -1.10124e-09 0)
(-2.92491e-09 2.66521e-10 0)
(-4.48096e-10 1.81246e-10 0)
(-3.40589e-09 1.17387e-09 0)
(-1.59127e-09 3.05882e-09 0)
(1.37042e-09 6.11588e-09 0)
(1.91346e-09 4.07315e-09 0)
(7.39549e-10 -4.38156e-09 0)
(6.31332e-10 -5.39133e-09 0)
(-2.01092e-09 -4.3425e-09 0)
(1.67738e-09 3.2014e-09 0)
(4.47964e-11 -2.57673e-08 0)
(-2.44999e-08 4.22242e-08 0)
(3.82967e-08 -3.43306e-08 0)
(4.23808e-09 -5.6097e-09 0)
(-6.87086e-09 5.72032e-09 0)
(4.12575e-09 3.53289e-09 0)
(-7.08494e-10 3.17958e-09 0)
(-1.46894e-09 -2.34219e-09 0)
(2.0783e-09 -6.25437e-09 0)
(3.54063e-09 -4.82969e-09 0)
(2.4303e-09 -1.91074e-09 0)
(2.72049e-10 -8.55102e-10 0)
(-3.01566e-09 7.76419e-10 0)
(-4.51343e-10 4.93095e-09 0)
(9.77774e-10 7.15053e-09 0)
(4.49702e-11 1.26173e-09 0)
(-8.82731e-10 -5.53313e-09 0)
(-2.04546e-09 -4.12679e-09 0)
(5.05101e-09 -1.66667e-09 0)
(-2.62176e-08 4.20173e-09 0)
(5.84593e-08 -3.87979e-08 0)
(-4.17758e-08 -6.93678e-09 0)
(-6.58312e-08 4.17705e-09 0)
(4.85322e-08 -2.13735e-08 0)
(1.35128e-08 1.55512e-09 0)
(-3.56834e-09 6.43366e-09 0)
(-3.64638e-09 3.37073e-09 0)
(-5.07465e-09 -4.49055e-10 0)
(-3.6786e-09 -3.30168e-09 0)
(3.28004e-10 -2.59065e-09 0)
(4.43807e-09 -1.28249e-09 0)
(6.09807e-10 -1.35083e-09 0)
(-1.35e-09 1.006e-09 0)
(4.91197e-10 5.31273e-09 0)
(4.97134e-10 5.27835e-09 0)
(-1.51893e-09 -1.28399e-09 0)
(-1.28691e-09 -3.00837e-09 0)
(1.28606e-09 -6.85181e-10 0)
(-1.59062e-09 2.149e-09 0)
(-1.61848e-08 2.42095e-10 0)
(-7.33403e-08 6.32654e-08 0)
(2.34827e-07 -1.42956e-08 0)
(-4.18328e-08 2.99889e-08 0)
(-9.71753e-09 3.07187e-08 0)
(2.885e-08 4.55554e-09 0)
(8.72138e-09 9.16586e-10 0)
(-4.01899e-09 6.91261e-10 0)
(-8.28487e-09 -4.33793e-11 0)
(-9.71506e-09 -3.06393e-10 0)
(-4.09131e-09 8.8843e-10 0)
(3.69729e-09 7.25424e-10 0)
(5.26116e-10 -9.01966e-10 0)
(4.77138e-10 1.22692e-09 0)
(1.25148e-09 3.63056e-09 0)
(-6.58166e-10 2.22804e-09 0)
(-1.28047e-09 -1.51187e-09 0)
(-2.74594e-10 -5.64483e-10 0)
(1.11458e-09 4.033e-09 0)
(3.7373e-09 1.88455e-09 0)
(1.9237e-08 -6.13817e-11 0)
(7.82899e-08 5.30412e-08 0)
(-2.42609e-07 -1.43452e-08 0)
(4.76507e-08 2.99483e-08 0)
(1.2503e-08 2.58268e-08 0)
(-2.37965e-08 1.33534e-09 0)
(-1.90638e-09 -4.38533e-09 0)
(1.84838e-09 -3.17684e-09 0)
(-1.78568e-09 -6.11094e-10 0)
(-9.81206e-09 2.17965e-09 0)
(-6.33568e-09 3.72179e-09 0)
(2.14005e-09 1.13888e-09 0)
(-9.6808e-11 1.77809e-10 0)
(1.78938e-09 1.00509e-09 0)
(1.21793e-09 7.22167e-10 0)
(-8.81459e-10 1.28957e-10 0)
(-9.50567e-10 5.97581e-12 0)
(2.02464e-09 1.60715e-09 0)
(2.50722e-09 2.88037e-09 0)
(-2.14558e-09 1.08816e-09 0)
(2.32714e-08 -3.47658e-09 0)
(-5.381e-08 -3.66433e-08 0)
(6.1676e-08 -3.23406e-08 0)
(5.41771e-08 2.67682e-09 0)
(-4.74752e-08 -2.76733e-08 0)
(-9.18988e-09 -7.91965e-09 0)
(6.33226e-09 -3.57517e-09 0)
(7.3818e-09 -2.60502e-09 0)
(-1.89238e-09 -1.4318e-09 0)
(-6.20747e-09 9.72626e-10 0)
(-6.9229e-09 2.12915e-09 0)
(-2.85273e-09 4.11832e-10 0)
(-6.93725e-10 4.80628e-10 0)
(1.88364e-09 4.52466e-10 0)
(1.24678e-09 -1.72625e-09 0)
(-5.45511e-10 -8.34406e-10 0)
(2.39499e-11 2.4059e-09 0)
(1.74809e-09 1.22872e-09 0)
(1.12032e-09 4.75428e-10 0)
(-2.12258e-09 -3.66755e-09 0)
(3.72175e-09 -4.58471e-10 0)
(-2.50244e-08 -2.45452e-08 0)
(8.95514e-09 1.2254e-07 0)
(-3.08752e-09 -6.9326e-08 0)
(-1.14691e-08 -5.05135e-09 0)
(6.01779e-09 2.00745e-09 0)
(4.3033e-09 -3.16937e-10 0)
(7.76743e-09 1.74572e-11 0)
(3.21233e-09 -1.97322e-09 0)
(-3.57262e-09 -2.371e-09 0)
(-4.32387e-09 -1.60241e-09 0)
(-6.80919e-10 -2.78852e-10 0)
(-6.54924e-10 -4.40139e-10 0)
(1.54682e-09 -3.05226e-10 0)
(1.41627e-09 -2.44201e-09 0)
(5.52035e-10 -1.40975e-09 0)
(-2.14205e-10 3.28728e-09 0)
(8.75112e-10 1.52647e-09 0)
(-1.23452e-09 -3.801e-09 0)
(-1.83883e-10 -1.41534e-10 0)
(-1.45383e-08 -3.23693e-09 0)
(1.66009e-07 6.66673e-09 0)
(-5.45915e-07 -8.56696e-08 0)
(-1.07885e-07 3.61304e-08 0)
(5.243e-08 7.35702e-09 0)
(-7.48874e-09 3.94112e-09 0)
(1.30658e-09 6.26705e-09 0)
(4.86564e-09 3.10699e-09 0)
(-6.66458e-10 -1.55541e-09 0)
(-3.81757e-09 -3.27992e-09 0)
(-1.16725e-09 -2.43095e-09 0)
(1.46347e-09 -1.00131e-09 0)
(1.46192e-10 -1.09932e-09 0)
(1.56958e-09 -9.95815e-10 0)
(1.61094e-09 -2.5924e-09 0)
(1.71514e-09 -2.17941e-09 0)
(-4.53268e-11 2.33742e-09 0)
(-1.98891e-09 2.87756e-09 0)
(-9.29335e-10 -2.72117e-09 0)
(-2.00254e-09 -1.87158e-09 0)
(8.83947e-09 3.14627e-09 0)
(-1.54552e-07 3.4797e-09 0)
(5.66308e-07 -8.03856e-08 0)
(1.06875e-07 4.02925e-08 0)
(-5.27191e-08 2.72968e-09 0)
(4.24864e-09 5.64256e-09 0)
(1.28508e-09 6.02868e-09 0)
(-5.62296e-09 2.10958e-09 0)
(-6.45326e-09 -5.00497e-10 0)
(-2.22678e-09 -9.90334e-10 0)
(2.30662e-09 -9.88606e-10 0)
(2.25201e-09 -5.63494e-10 0)
(9.8982e-10 -1.86554e-10 0)
(1.05915e-09 -1.5846e-09 0)
(1.55665e-09 -3.40802e-09 0)
(2.64266e-09 -3.91034e-09 0)
(9.47462e-10 3.66954e-10 0)
(-2.01303e-09 4.14878e-09 0)
(-2.15233e-09 1.4751e-09 0)
(1.5018e-09 -2.41167e-09 0)
(-5.78681e-09 -1.36954e-09 0)
(3.40275e-08 2.2457e-10 0)
(-2.82689e-08 1.03558e-07 0)
(-2.62397e-08 -3.42135e-08 0)
(1.37136e-08 3.79103e-09 0)
(-1.66728e-09 1.36229e-09 0)
(-6.16621e-09 -1.92713e-09 0)
(-9.05068e-09 -1.70644e-09 0)
(-6.57066e-09 1.13766e-09 0)
(2.8946e-10 2.4426e-09 0)
(4.07911e-09 6.48696e-10 0)
(9.77428e-10 -3.22367e-10 0)
(7.11504e-10 1.3424e-09 0)
(-2.82323e-10 -1.57572e-09 0)
(4.54306e-10 -4.6081e-09 0)
(3.07261e-09 -5.84131e-09 0)
(2.58562e-09 -2.48942e-09 0)
(-5.85886e-10 4.82432e-09 0)
(-1.85486e-09 4.6039e-09 0)
(-9.42778e-10 -2.95944e-10 0)
(3.02044e-09 -4.13617e-09 0)
(-4.66379e-09 -5.76565e-10 0)
(-1.7028e-09 -2.39919e-08 0)
(3.82246e-09 7.00412e-09 0)
(-4.07906e-09 -2.5806e-09 0)
(-2.12267e-09 -6.05919e-09 0)
(-6.68922e-09 -6.90379e-09 0)
(-8.84e-09 -3.99776e-09 0)
(-3.16191e-09 2.63393e-09 0)
(4.083e-09 5.36033e-09 0)
(4.71021e-09 1.48203e-09 0)
(-1.10943e-09 -6.87624e-10 0)
(-3.91696e-10 1.48579e-09 0)
(-1.94067e-09 -8.92079e-10 0)
(-9.49892e-10 -4.036e-09 0)
(2.32821e-09 -6.4583e-09 0)
(4.39123e-09 -4.66401e-09 0)
(1.50467e-09 2.4819e-09 0)
(-7.14273e-10 7.00448e-09 0)
(-4.26146e-10 2.01306e-09 0)
(-1.3551e-09 -1.78061e-09 0)
(-2.54521e-09 -4.21305e-09 0)
(3.20089e-09 8.81622e-10 0)
(-9.182e-10 -2.1516e-09 0)
(-5.25731e-10 -3.31926e-09 0)
(-3.18763e-09 -7.15189e-09 0)
(-6.41413e-09 -7.95931e-09 0)
(-3.76295e-09 -2.57685e-09 0)
(3.76166e-09 5.627e-09 0)
(7.78421e-09 7.55232e-09 0)
(4.29594e-09 1.61637e-09 0)
(-2.83442e-09 -1.12563e-09 0)
(-1.28782e-09 -4.88494e-10 0)
(-1.8175e-09 -6.79943e-10 0)
(-1.69187e-09 -9.70279e-10 0)
(9.98707e-10 -3.26571e-09 0)
(4.19767e-09 -4.73009e-09 0)
(3.53744e-09 -1.67369e-09 0)
(1.11654e-09 3.32864e-09 0)
(-1.05994e-10 2.34218e-09 0)
(2.96944e-10 -5.90432e-10 0)
(-9.04341e-10 2.10903e-09 0)
(-1.34913e-09 5.97356e-09 0)
(1.20874e-10 4.69273e-09 0)
(-1.15883e-09 -4.60288e-12 0)
(-2.6254e-09 -3.70973e-09 0)
(-1.74007e-09 -2.32059e-09 0)
(3.82794e-09 3.14591e-09 0)
(8.81064e-09 7.97974e-09 0)
(8.22334e-09 6.86666e-09 0)
(2.46282e-09 3.33161e-10 0)
(-4.5928e-09 -1.7194e-09 0)
(-5.8162e-10 -2.94334e-09 0)
(6.00115e-10 -1.95207e-09 0)
(-5.58228e-10 1.67508e-09 0)
(-7.00204e-10 2.63583e-09 0)
(1.56724e-09 -8.65395e-10 0)
(2.84101e-09 -4.4936e-09 0)
(2.26242e-09 -4.53463e-09 0)
(1.54534e-09 -3.93056e-09 0)
(1.91127e-09 -2.8384e-09 0)
(1.63833e-09 1.20579e-09 0)
(-1.44461e-10 8.16893e-09 0)
(-1.86351e-09 8.95617e-09 0)
(-1.56379e-09 5.79125e-09 0)
(-2.11469e-10 3.9392e-09 0)
(2.28944e-09 5.9922e-09 0)
(5.92292e-09 8.51139e-09 0)
(7.0541e-09 7.52984e-09 0)
(4.24902e-09 2.7351e-09 0)
(-1.29364e-09 -3.09459e-09 0)
(-6.20778e-09 -2.90804e-09 0)
(1.24578e-09 -3.29491e-09 0)
(3.67732e-09 -2.83963e-09 0)
(2.03103e-09 1.9101e-09 0)
(-1.17323e-09 5.82407e-09 0)
(-2.11182e-09 3.2811e-09 0)
(-4.59928e-10 -3.41826e-09 0)
(1.30584e-09 -8.28297e-09 0)
(2.43802e-09 -8.92294e-09 0)
(3.11985e-09 -7.04759e-09 0)
(3.66259e-09 -2.98336e-09 0)
(2.21582e-09 1.30773e-09 0)
(-1.05773e-09 4.59171e-09 0)
(-1.33694e-09 5.64173e-09 0)
(-2.10771e-10 5.78973e-09 0)
(9.99498e-10 7.46261e-09 0)
(5.74049e-10 7.72279e-09 0)
(-1.74955e-09 3.7977e-09 0)
(-4.16943e-09 -2.2028e-09 0)
(-6.70673e-09 -6.28437e-09 0)
(-6.70109e-09 -3.68051e-09 0)
(2.56388e-09 -1.33748e-09 0)
(5.52347e-09 -1.32199e-09 0)
(4.12621e-09 7.27218e-10 0)
(-7.48148e-10 2.97842e-09 0)
(-4.42298e-09 2.18901e-09 0)
(-3.34654e-09 -9.46289e-10 0)
(-1.84328e-10 -3.879e-09 0)
(2.50785e-09 -4.57341e-09 0)
(3.5169e-09 -3.89489e-09 0)
(3.09221e-09 -2.44169e-09 0)
(9.93847e-10 -1.69684e-09 0)
(-4.30652e-10 -9.4993e-12 0)
(-1.04462e-09 1.30586e-09 0)
(-8.90526e-10 1.93164e-09 0)
(-1.62011e-09 2.75927e-09 0)
(-5.57193e-09 2.58025e-09 0)
(-9.78375e-09 4.94826e-10 0)
(-1.05949e-08 -2.19293e-09 0)
(-9.38933e-09 -3.59561e-09 0)
(-4.98753e-09 -1.82654e-09 0)
)
;

boundaryField
{
    sides
    {
        type            calculated;
        value           nonuniform List<vector> 
40
(
(2.56388e-09 0 0)
(5.52347e-09 0 0)
(4.12621e-09 0 0)
(-7.48148e-10 0 0)
(-4.42298e-09 0 0)
(-3.34654e-09 0 0)
(-1.84328e-10 0 0)
(2.50785e-09 0 0)
(3.5169e-09 0 0)
(3.09221e-09 0 0)
(9.93847e-10 0 0)
(-4.30652e-10 0 0)
(-1.04462e-09 0 0)
(-8.90526e-10 0 0)
(-1.62011e-09 0 0)
(-5.57193e-09 0 0)
(-9.78375e-09 0 0)
(-1.05949e-08 0 0)
(-9.38933e-09 0 0)
(-4.98753e-09 0 0)
(-1.65918e-09 0 0)
(2.89495e-09 0 0)
(1.83716e-09 0 0)
(3.60442e-10 0 0)
(-8.49646e-10 0 0)
(-2.45896e-10 0 0)
(9.28451e-11 0 0)
(2.4457e-09 0 0)
(1.80274e-09 0 0)
(3.32783e-09 0 0)
(1.97126e-09 0 0)
(-5.65316e-10 0 0)
(-1.23374e-09 0 0)
(-4.81371e-09 0 0)
(-4.9799e-09 0 0)
(-5.85765e-09 0 0)
(-5.11418e-09 0 0)
(-8.98576e-10 0 0)
(5.76597e-10 0 0)
(-3.24317e-09 0 0)
)
;
    }
    inlet
    {
        type            calculated;
        value           uniform (0 0 0);
    }
    outlet
    {
        type            calculated;
        value           nonuniform List<vector> 
20
(
(-3.24317e-09 -4.87463e-10 0)
(-3.61091e-09 3.47427e-10 0)
(-5.22539e-09 1.63427e-09 0)
(-3.97861e-09 1.95382e-09 0)
(-2.92491e-09 2.66521e-10 0)
(2.4303e-09 -1.91074e-09 0)
(4.43807e-09 -1.28249e-09 0)
(3.69729e-09 7.25424e-10 0)
(2.14005e-09 1.13888e-09 0)
(-2.85273e-09 4.11832e-10 0)
(-6.80919e-10 -2.78852e-10 0)
(1.46347e-09 -1.00131e-09 0)
(2.25201e-09 -5.63494e-10 0)
(9.77428e-10 -3.22367e-10 0)
(-1.10943e-09 -6.87624e-10 0)
(-2.83442e-09 -1.12563e-09 0)
(-4.5928e-09 -1.7194e-09 0)
(-6.20778e-09 -2.90804e-09 0)
(-6.70109e-09 -3.68051e-09 0)
(-4.98753e-09 -1.82654e-09 0)
)
;
    }
    frontAndBack
    {
        type            empty;
    }
}


// ************************************************************************* //
