/*--------------------------------*- C++ -*----------------------------------*\
  =========                 |
  \\      /  F ield         | OpenFOAM: The Open Source CFD Toolbox
   \\    /   O peration     | Website:  https://openfoam.org
    \\  /    A nd           | Version:  9
     \\/     M anipulation  |
\*---------------------------------------------------------------------------*/
FoamFile
{
    format      ascii;
    class       volVectorField;
    location    "68";
    object      hU;
}
// * * * * * * * * * * * * * * * * * * * * * * * * * * * * * * * * * * * * * //

dimensions      [0 2 -1 0 0 0 0];

internalField   nonuniform List<vector> 
400
(
(0.001 -2.39811e-08 0)
(0.00100004 -7.03696e-08 0)
(0.00100012 -1.13175e-07 0)
(0.00100024 -1.52374e-07 0)
(0.00100039 -1.87399e-07 0)
(0.00100058 -2.16825e-07 0)
(0.00100078 -2.36651e-07 0)
(0.00100099 -2.44845e-07 0)
(0.00100118 -2.35758e-07 0)
(0.00100132 -2.10779e-07 0)
(0.0010014 -1.67997e-07 0)
(0.00100139 -1.279e-07 0)
(0.00100129 -9.83558e-08 0)
(0.00100111 -9.23459e-08 0)
(0.00100087 -9.92272e-08 0)
(0.00100064 -1.35375e-07 0)
(0.00100043 -1.56162e-07 0)
(0.00100034 -2.00757e-07 0)
(0.00100026 -1.88551e-07 0)
(0.00100033 -2.68485e-07 0)
(0.001 -2.60821e-08 0)
(0.00100005 -7.83111e-08 0)
(0.00100013 -1.27959e-07 0)
(0.00100026 -1.74014e-07 0)
(0.00100042 -2.13747e-07 0)
(0.00100062 -2.40507e-07 0)
(0.00100084 -2.45141e-07 0)
(0.00100108 -2.1889e-07 0)
(0.0010013 -1.53137e-07 0)
(0.00100147 -4.65773e-08 0)
(0.00100156 9.45135e-08 0)
(0.00100154 2.48886e-07 0)
(0.00100141 3.91479e-07 0)
(0.00100119 4.78444e-07 0)
(0.00100092 5.06127e-07 0)
(0.00100066 4.52386e-07 0)
(0.00100048 3.79298e-07 0)
(0.00100036 2.58809e-07 0)
(0.00100033 2.06382e-07 0)
(0.00100028 8.10603e-08 0)
(0.001 -5.17165e-08 0)
(0.00100004 -1.58131e-07 0)
(0.00100013 -2.66291e-07 0)
(0.00100026 -3.73976e-07 0)
(0.00100043 -4.74472e-07 0)
(0.00100064 -5.55671e-07 0)
(0.0010009 -6.02335e-07 0)
(0.00100117 -5.95545e-07 0)
(0.00100143 -5.16089e-07 0)
(0.00100164 -3.5077e-07 0)
(0.00100176 -1.08879e-07 0)
(0.00100175 1.64021e-07 0)
(0.00100159 4.04343e-07 0)
(0.0010013 5.22205e-07 0)
(0.00100094 5.00471e-07 0)
(0.00100062 3.54174e-07 0)
(0.00100036 2.04073e-07 0)
(0.00100026 4.83221e-08 0)
(0.00100021 -1.42587e-09 0)
(0.00100029 -1.16846e-07 0)
(0.001 -7.24404e-08 0)
(0.00100004 -2.21048e-07 0)
(0.00100013 -3.74306e-07 0)
(0.00100026 -5.31192e-07 0)
(0.00100045 -6.81726e-07 0)
(0.00100069 -8.09933e-07 0)
(0.001001 -8.87607e-07 0)
(0.00100134 -8.83577e-07 0)
(0.00100171 -7.53845e-07 0)
(0.00100203 -4.7464e-07 0)
(0.00100222 -2.29656e-08 0)
(0.00100219 4.9466e-07 0)
(0.00100192 9.38994e-07 0)
(0.00100146 1.14146e-06 0)
(0.00100097 1.05516e-06 0)
(0.00100058 7.42555e-07 0)
(0.00100041 4.24011e-07 0)
(0.00100035 1.72125e-07 0)
(0.0010004 1.03949e-07 0)
(0.00100034 7.07985e-10 0)
(0.001 -8.97737e-08 0)
(0.00100004 -2.7668e-07 0)
(0.00100012 -4.7654e-07 0)
(0.00100025 -6.94598e-07 0)
(0.00100044 -9.21473e-07 0)
(0.00100072 -1.13902e-06 0)
(0.00100109 -1.29769e-06 0)
(0.00100155 -1.33529e-06 0)
(0.00100207 -1.17474e-06 0)
(0.00100256 -7.78503e-07 0)
(0.0010029 -1.72035e-07 0)
(0.00100288 5.79583e-07 0)
(0.00100244 1.23304e-06 0)
(0.00100167 1.51274e-06 0)
(0.00100086 1.37506e-06 0)
(0.00100031 9.63423e-07 0)
(0.00100013 5.80458e-07 0)
(0.00100021 3.15456e-07 0)
(0.00100036 2.63436e-07 0)
(0.00100043 1.67906e-07 0)
(0.001 -1.02407e-07 0)
(0.00100003 -3.17464e-07 0)
(0.00100008 -5.61653e-07 0)
(0.00100019 -8.44792e-07 0)
(0.00100038 -1.17309e-06 0)
(0.00100068 -1.52509e-06 0)
(0.00100115 -1.85826e-06 0)
(0.00100178 -2.05275e-06 0)
(0.00100254 -1.91139e-06 0)
(0.00100326 -1.20302e-06 0)
(0.00100377 8.40944e-08 0)
(0.00100378 1.53985e-06 0)
(0.00100309 2.43471e-06 0)
(0.00100192 2.30597e-06 0)
(0.00100082 1.42963e-06 0)
(0.00100019 4.90793e-07 0)
(0.00100017 1.14407e-08 0)
(0.00100037 -8.58839e-08 0)
(0.00100064 5.9941e-08 0)
(0.00100054 4.94551e-08 0)
(0.001 -1.02288e-07 0)
(0.001 -3.32856e-07 0)
(0.00100002 -6.01275e-07 0)
(0.00100008 -9.61666e-07 0)
(0.00100021 -1.39274e-06 0)
(0.00100048 -1.94674e-06 0)
(0.001001 -2.48876e-06 0)
(0.00100188 -3.08307e-06 0)
(0.00100321 -3.23301e-06 0)
(0.00100473 -2.88375e-06 0)
(0.00100573 -6.73035e-07 0)
(0.00100535 2.55439e-06 0)
(0.0010035 4.82847e-06 0)
(0.00100112 4.73801e-06 0)
(0.000999606 3.02852e-06 0)
(0.000999369 1.26232e-06 0)
(0.001 4.29103e-07 0)
(0.00100056 3.25762e-07 0)
(0.00100092 5.61237e-07 0)
(0.00100065 5.33154e-07 0)
(0.000999996 -9.28538e-08 0)
(0.000999968 -2.88465e-07 0)
(0.000999907 -5.76288e-07 0)
(0.000999876 -9.56395e-07 0)
(0.000999878 -1.57812e-06 0)
(0.00100009 -2.34564e-06 0)
(0.0010005 -3.4022e-06 0)
(0.00100152 -4.12386e-06 0)
(0.00100308 -4.37248e-06 0)
(0.00100601 -2.54455e-06 0)
(0.0010091 7.57293e-07 0)
(0.00100914 4.27382e-06 0)
(0.0010055 4.72361e-06 0)
(0.00100074 2.7843e-06 0)
(0.000998148 7.35578e-07 0)
(0.000998271 -2.75779e-07 0)
(0.000999794 -2.87611e-07 0)
(0.00100087 -1.05421e-08 0)
(0.00100133 2.11356e-07 0)
(0.00100085 1.02265e-07 0)
(0.000999995 -4.97049e-08 0)
(0.000999915 -2.03653e-07 0)
(0.000999757 -3.85968e-07 0)
(0.000999531 -7.3486e-07 0)
(0.000999287 -1.33934e-06 0)
(0.00099921 -2.48228e-06 0)
(0.000999706 -4.68723e-06 0)
(0.00100139 -8.06767e-06 0)
(0.00100491 -1.3285e-05 0)
(0.00100958 -1.49081e-05 0)
(0.00101189 3.84521e-06 0)
(0.00100893 1.87357e-05 0)
(0.00100221 1.57854e-05 0)
(0.000997563 5.74344e-06 0)
(0.000996883 -3.16005e-07 0)
(0.000998457 -1.26382e-06 0)
(0.00100027 -9.48316e-08 0)
(0.001001 6.34581e-07 0)
(0.00100107 6.51686e-07 0)
(0.00100054 2.43545e-07 0)
(0.000999804 -2.00214e-08 0)
(0.00100017 -6.64888e-08 0)
(0.000999217 -1.51199e-07 0)
(0.000999905 -2.48928e-07 0)
(0.000997521 -5.93013e-07 0)
(0.000998843 -1.13215e-06 0)
(0.000993346 -2.88378e-06 0)
(0.00099753 -5.59237e-06 0)
(0.000991668 -1.15419e-05 0)
(0.000915829 -1.27091e-05 0)
(0.00095147 2.69234e-07 0)
(0.00101022 1.46362e-05 0)
(0.000990945 1.30826e-05 0)
(0.000983972 5.14079e-06 0)
(0.000989584 1.94069e-07 0)
(0.000996279 -7.8167e-07 0)
(0.000999233 -1.11493e-07 0)
(0.000999408 2.48394e-07 0)
(0.000998645 1.74125e-07 0)
(0.000998503 -1.84914e-07 0)
(0.000999804 1.31518e-08 0)
(0.00100017 4.60357e-08 0)
(0.000999216 1.1724e-07 0)
(0.000999903 1.99474e-07 0)
(0.000997518 5.28943e-07 0)
(0.000998837 1.05075e-06 0)
(0.000993338 2.78555e-06 0)
(0.000997519 5.47263e-06 0)
(0.00099165 1.13964e-05 0)
(0.000915808 1.25455e-05 0)
(0.000951427 -4.72804e-07 0)
(0.0010102 -1.4914e-05 0)
(0.000990945 -1.34105e-05 0)
(0.000983966 -5.53673e-06 0)
(0.000989566 -6.48812e-07 0)
(0.000996241 2.47844e-07 0)
(0.000999192 -4.73032e-07 0)
(0.000999363 -1.00295e-06 0)
(0.00099863 -9.89159e-07 0)
(0.000998452 -8.88605e-07 0)
(0.000999995 4.2839e-08 0)
(0.000999916 1.83758e-07 0)
(0.000999756 3.52853e-07 0)
(0.000999531 6.86741e-07 0)
(0.000999285 1.27639e-06 0)
(0.00099921 2.40095e-06 0)
(0.000999701 4.58711e-06 0)
(0.00100139 7.94054e-06 0)
(0.0010049 1.31302e-05 0)
(0.00100958 1.47194e-05 0)
(0.00101188 -4.06521e-06 0)
(0.0010089 -1.90026e-05 0)
(0.00100214 -1.60963e-05 0)
(0.000997476 -6.12403e-06 0)
(0.000996813 -8.48889e-08 0)
(0.000998399 7.74852e-07 0)
(0.00100016 -4.28029e-07 0)
(0.00100085 -1.30616e-06 0)
(0.00100088 -1.38029e-06 0)
(0.00100036 -1.25075e-06 0)
(0.000999996 8.63414e-08 0)
(0.000999968 2.69525e-07 0)
(0.000999906 5.44e-07 0)
(0.000999872 9.09659e-07 0)
(0.00099987 1.51357e-06 0)
(0.00100008 2.26086e-06 0)
(0.00100048 3.29145e-06 0)
(0.00100149 3.98825e-06 0)
(0.00100303 4.20992e-06 0)
(0.00100594 2.36593e-06 0)
(0.00100902 -9.7718e-07 0)
(0.00100906 -4.53626e-06 0)
(0.00100542 -5.02045e-06 0)
(0.00100066 -3.1305e-06 0)
(0.000998056 -1.13188e-06 0)
(0.000998132 -2.51737e-07 0)
(0.000999619 -3.2327e-07 0)
(0.00100064 -7.42798e-07 0)
(0.00100106 -9.6838e-07 0)
(0.00100055 -1.07382e-06 0)
(0.001 9.6537e-08 0)
(0.001 3.14739e-07 0)
(0.00100002 5.70529e-07 0)
(0.00100007 9.16881e-07 0)
(0.0010002 1.3333e-06 0)
(0.00100046 1.87014e-06 0)
(0.00100097 2.3969e-06 0)
(0.00100185 2.97285e-06 0)
(0.00100318 3.11068e-06 0)
(0.00100469 2.73188e-06 0)
(0.00100568 5.09437e-07 0)
(0.00100527 -2.75534e-06 0)
(0.00100338 -5.07824e-06 0)
(0.00100096 -5.07148e-06 0)
(0.000999407 -3.44966e-06 0)
(0.000999119 -1.79375e-06 0)
(0.000999742 -1.02074e-06 0)
(0.00100025 -1.06005e-06 0)
(0.00100061 -1.30817e-06 0)
(0.00100023 -1.51535e-06 0)
(0.001 9.76125e-08 0)
(0.00100003 3.0151e-07 0)
(0.00100008 5.34221e-07 0)
(0.00100018 8.04887e-07 0)
(0.00100036 1.12072e-06 0)
(0.00100066 1.45812e-06 0)
(0.00100112 1.77642e-06 0)
(0.00100174 1.94923e-06 0)
(0.00100248 1.78202e-06 0)
(0.00100317 1.03559e-06 0)
(0.00100365 -2.8009e-07 0)
(0.00100363 -1.78244e-06 0)
(0.00100292 -2.71186e-06 0)
(0.00100171 -2.63273e-06 0)
(0.00100058 -1.77895e-06 0)
(0.000999902 -8.94547e-07 0)
(0.000999857 -4.26322e-07 0)
(0.00099998 -4.48423e-07 0)
(0.00100021 -6.17424e-07 0)
(0.001 -8.48428e-07 0)
(0.001 8.5571e-08 0)
(0.00100004 2.63087e-07 0)
(0.00100011 4.53056e-07 0)
(0.00100024 6.60744e-07 0)
(0.00100043 8.76727e-07 0)
(0.0010007 1.08262e-06 0)
(0.00100105 1.22792e-06 0)
(0.0010015 1.25136e-06 0)
(0.001002 1.07343e-06 0)
(0.00100248 6.57735e-07 0)
(0.0010028 1.89488e-08 0)
(0.00100274 -7.7046e-07 0)
(0.00100227 -1.45098e-06 0)
(0.00100146 -1.77514e-06 0)
(0.00100062 -1.66782e-06 0)
(0.001 -1.34691e-06 0)
(0.000999793 -1.02833e-06 0)
(0.000999764 -9.37731e-07 0)
(0.000999882 -9.46709e-07 0)
(0.000999763 -1.10843e-06 0)
(0.001 6.85653e-08 0)
(0.00100004 2.08697e-07 0)
(0.00100012 3.53267e-07 0)
(0.00100025 5.01069e-07 0)
(0.00100043 6.43453e-07 0)
(0.00100066 7.63916e-07 0)
(0.00100095 8.3511e-07 0)
(0.00100129 8.23985e-07 0)
(0.00100163 6.90681e-07 0)
(0.00100191 4.06929e-07 0)
(0.00100206 -4.60953e-08 0)
(0.001002 -5.76159e-07 0)
(0.00100171 -1.03656e-06 0)
(0.0010012 -1.28212e-06 0)
(0.00100065 -1.22919e-06 0)
(0.00100016 -9.93142e-07 0)
(0.000999914 -7.01581e-07 0)
(0.000999739 -5.58502e-07 0)
(0.000999749 -4.89415e-07 0)
(0.000999556 -5.98651e-07 0)
(0.001 4.97121e-08 0)
(0.00100004 1.48833e-07 0)
(0.00100012 2.46189e-07 0)
(0.00100025 3.39064e-07 0)
(0.00100041 4.21803e-07 0)
(0.00100062 4.82123e-07 0)
(0.00100086 5.06139e-07 0)
(0.00100112 4.70835e-07 0)
(0.00100137 3.6001e-07 0)
(0.00100157 1.55554e-07 0)
(0.00100167 -1.16585e-07 0)
(0.0010016 -4.21678e-07 0)
(0.00100139 -6.82618e-07 0)
(0.00100103 -8.43053e-07 0)
(0.00100064 -8.50049e-07 0)
(0.00100022 -7.70289e-07 0)
(0.000999949 -6.38558e-07 0)
(0.000999688 -5.99354e-07 0)
(0.000999625 -5.64316e-07 0)
(0.000999384 -6.85441e-07 0)
(0.001 3.41787e-08 0)
(0.00100004 1.03892e-07 0)
(0.00100011 1.73988e-07 0)
(0.00100023 2.42125e-07 0)
(0.00100038 3.02856e-07 0)
(0.00100056 3.49407e-07 0)
(0.00100077 3.73629e-07 0)
(0.00100097 3.66677e-07 0)
(0.00100116 3.18192e-07 0)
(0.0010013 2.23049e-07 0)
(0.00100136 8.52037e-08 0)
(0.00100131 -7.15399e-08 0)
(0.00100115 -2.07301e-07 0)
(0.00100086 -2.98172e-07 0)
(0.00100053 -3.1263e-07 0)
(0.00100016 -2.8204e-07 0)
(0.000999899 -2.03986e-07 0)
(0.000999611 -1.71615e-07 0)
(0.000999514 -1.2144e-07 0)
(0.000999247 -1.99201e-07 0)
(0.001 -4.19898e-09 0)
(0.00100004 -1.02225e-08 0)
(0.00100012 -1.32017e-08 0)
(0.00100024 -1.46473e-08 0)
(0.00100038 -1.68143e-08 0)
(0.00100056 -2.28794e-08 0)
(0.00100075 -3.43089e-08 0)
(0.00100094 -5.42601e-08 0)
(0.00100111 -8.26001e-08 0)
(0.00100123 -1.22879e-07 0)
(0.00100128 -1.70859e-07 0)
(0.00100121 -2.32208e-07 0)
(0.00100107 -2.91209e-07 0)
(0.00100081 -3.41682e-07 0)
(0.00100053 -3.59841e-07 0)
(0.00100018 -3.68201e-07 0)
(0.000999943 -3.43071e-07 0)
(0.000999607 -3.54144e-07 0)
(0.000999519 -3.29139e-07 0)
(0.000999129 -4.10973e-07 0)
)
;

boundaryField
{
    sides
    {
        type            slip;
    }
    inlet
    {
        type            fixedValue;
        value           uniform (0.001 0 0);
    }
    outlet
    {
        type            zeroGradient;
    }
    frontAndBack
    {
        type            empty;
    }
}


// ************************************************************************* //
