/*--------------------------------*- C++ -*----------------------------------*\
  =========                 |
  \\      /  F ield         | OpenFOAM: The Open Source CFD Toolbox
   \\    /   O peration     | Website:  https://openfoam.org
    \\  /    A nd           | Version:  9
     \\/     M anipulation  |
\*---------------------------------------------------------------------------*/
FoamFile
{
    format      ascii;
    class       surfaceScalarField;
    location    "68";
    object      phi;
}
// * * * * * * * * * * * * * * * * * * * * * * * * * * * * * * * * * * * * * //

dimensions      [0 4 -1 0 0 0 0];

internalField   nonuniform List<scalar> 
760
(
5.0001e-06
-9.13182e-11
5.0004e-06
-3.04964e-10
5.00091e-06
-5.11789e-10
5.00161e-06
-7.0432e-10
5.00249e-06
-8.75507e-10
5.00349e-06
-1.00445e-09
5.00455e-06
-1.05682e-09
5.00556e-06
-1.00826e-09
5.00639e-06
-8.26331e-10
5.00692e-06
-5.19553e-10
5.00704e-06
-1.22374e-10
5.00664e-06
4.0193e-10
5.00578e-06
8.59979e-10
5.00468e-06
1.10946e-09
5.00351e-06
1.17571e-09
5.00256e-06
9.53899e-10
5.00185e-06
7.17378e-10
5.0016e-06
2.49337e-10
5.00149e-06
1.09105e-10
-3.92347e-10
5.00012e-06
-2.10581e-10
5.00045e-06
-6.30311e-10
5.00098e-06
-1.04291e-09
5.00172e-06
-1.44358e-09
5.00265e-06
-1.81017e-09
5.00374e-06
-2.09493e-09
5.00493e-06
-2.24071e-09
5.0061e-06
-2.18112e-09
5.00712e-06
-1.84455e-09
5.00777e-06
-1.16359e-09
5.00774e-06
-8.89018e-11
5.00725e-06
8.9122e-10
5.00626e-06
1.85311e-09
5.00494e-06
2.42265e-09
5.00367e-06
2.44879e-09
5.00276e-06
1.85875e-09
5.00223e-06
1.24738e-09
5.0019e-06
5.86619e-10
5.00164e-06
3.72642e-10
-1.47807e-10
5.00011e-06
-3.17175e-10
5.00043e-06
-9.46769e-10
5.00096e-06
-1.57326e-09
5.00172e-06
-2.20892e-09
5.00272e-06
-2.81132e-09
5.00394e-06
-3.31552e-09
5.00532e-06
-3.61514e-09
5.00672e-06
-3.58147e-09
5.00792e-06
-3.04916e-09
5.00871e-06
-1.95921e-09
5.00893e-06
-3.02617e-10
5.00825e-06
1.5721e-09
5.00686e-06
3.23447e-09
5.00514e-06
4.14034e-09
5.00349e-06
4.09228e-09
5.0023e-06
3.05239e-09
5.00165e-06
1.88889e-09
5.00146e-06
7.77498e-10
5.00143e-06
4.04833e-10
-2.21149e-10
5.0001e-06
-4.15456e-10
5.00041e-06
-1.25458e-09
5.00094e-06
-2.10989e-09
5.00174e-06
-3.01271e-09
5.00285e-06
-3.91674e-09
5.00429e-06
-4.74638e-09
5.00601e-06
-5.34324e-09
5.00795e-06
-5.51812e-09
5.00983e-06
-4.94265e-09
5.01107e-06
-3.19375e-09
5.01119e-06
-4.41877e-10
5.00999e-06
2.7801e-09
5.00764e-06
5.57567e-09
5.00513e-06
6.64273e-09
5.00346e-06
5.76215e-09
5.00269e-06
3.82311e-09
5.00247e-06
2.10693e-09
5.00229e-06
9.42378e-10
5.00198e-06
7.1614e-10
3.40059e-10
5.00008e-06
-4.97222e-10
5.00034e-06
-1.51473e-09
5.00083e-06
-2.60428e-09
5.00163e-06
-3.8128e-09
5.00286e-06
-5.13528e-09
5.00457e-06
-6.46319e-09
5.0068e-06
-7.56962e-09
5.00942e-06
-8.13779e-09
5.01238e-06
-7.92062e-09
5.01477e-06
-5.59065e-09
5.01483e-06
-4.82113e-10
5.01284e-06
4.74205e-09
5.00867e-06
9.75765e-09
5.00459e-06
1.07181e-08
5.00223e-06
8.11514e-09
5.00173e-06
4.31718e-09
5.00204e-06
1.80002e-09
5.00224e-06
7.28014e-10
5.00199e-06
9.55294e-10
6.26267e-10
5.00004e-06
-5.41193e-10
5.00019e-06
-1.67316e-09
5.00053e-06
-2.94435e-09
5.00121e-06
-4.48158e-09
5.00241e-06
-6.333e-09
5.00452e-06
-8.5777e-09
5.0076e-06
-1.06474e-08
5.01166e-06
-1.22156e-08
5.01553e-06
-1.17675e-08
5.01899e-06
-9.10489e-09
5.02021e-06
-1.65913e-09
5.01602e-06
8.92501e-09
5.0095e-06
1.62555e-08
5.0042e-06
1.60152e-08
5.00216e-06
1.01603e-08
5.00248e-06
3.99372e-09
5.00326e-06
1.02369e-09
5.00338e-06
5.98236e-10
5.00278e-06
1.54724e-09
1.42058e-09
4.99998e-06
-5.2484e-10
4.99993e-06
-1.63331e-09
5.00003e-06
-3.03562e-09
5.00036e-06
-4.80985e-09
5.00122e-06
-7.19399e-09
5.00292e-06
-1.02791e-08
5.0068e-06
-1.45322e-08
5.01392e-06
-1.93284e-08
5.02373e-06
-2.16108e-08
5.03095e-06
-1.62522e-08
5.02868e-06
4.82212e-10
5.01675e-06
2.09692e-08
5.00419e-06
2.88207e-08
4.99872e-06
2.14628e-08
5.00056e-06
8.31746e-09
5.00283e-06
1.72464e-09
5.0037e-06
1.55359e-10
5.00365e-06
6.51609e-10
5.00303e-06
2.16259e-09
1.67931e-09
4.99986e-06
-3.92844e-10
4.99955e-06
-1.32013e-09
4.99913e-06
-2.60862e-09
4.99886e-06
-4.54091e-09
4.99933e-06
-7.67071e-09
5.00035e-06
-1.13089e-08
5.00365e-06
-1.78214e-08
5.00982e-06
-2.55127e-08
5.02485e-06
-3.66462e-08
5.05611e-06
-4.7409e-08
5.05003e-06
7.2233e-09
5.02317e-06
4.78108e-08
4.99818e-06
5.38579e-08
4.99349e-06
2.61581e-08
4.99945e-06
2.34796e-09
5.00406e-06
-2.88147e-09
5.00489e-06
-6.74396e-10
5.00371e-06
1.83513e-09
5.0035e-06
2.38109e-09
9.69541e-10
4.99977e-06
-1.60435e-10
4.99915e-06
-7.04591e-10
4.99792e-06
-1.37723e-09
4.99611e-06
-2.73273e-09
4.99401e-06
-5.58128e-09
4.99374e-06
-1.10314e-08
4.99944e-06
-2.35322e-08
5.01713e-06
-4.31916e-08
5.05574e-06
-7.52394e-08
5.06682e-06
-5.86106e-08
5.04972e-06
2.36552e-08
4.99649e-06
1.01049e-07
4.98928e-06
6.10053e-08
4.99589e-06
1.95368e-08
5.00017e-06
-1.93632e-09
5.00291e-06
-5.61715e-09
5.0025e-06
-2.608e-10
5.00182e-06
2.51858e-09
5.00253e-06
1.67856e-09
8.25847e-11
4.99986e-06
-1.66105e-11
4.99921e-06
-5.08897e-11
4.99792e-06
-8.66123e-11
4.99531e-06
-1.29537e-10
4.98989e-06
-1.71564e-10
4.97908e-06
-2.21389e-10
4.95582e-06
-2.71105e-10
4.91295e-06
-3.3616e-10
4.83815e-06
-4.07846e-10
4.77996e-06
-4.81229e-10
4.80432e-06
-6.0988e-10
4.90601e-06
-7.58628e-10
4.96776e-06
-7.59441e-10
4.98821e-06
-9.05075e-10
4.98744e-06
-1.16529e-09
4.98325e-06
-1.42928e-09
4.98454e-06
-1.56159e-09
4.98888e-06
-1.8292e-09
4.99246e-06
-1.89752e-09
-2.58465e-09
4.99986e-06
1.26637e-10
4.99921e-06
6.01359e-10
4.99791e-06
1.20917e-09
4.9953e-06
2.48001e-09
4.98987e-06
5.25e-09
4.97905e-06
1.05979e-08
4.95577e-06
2.30049e-08
4.9129e-06
4.25345e-08
4.83802e-06
7.44499e-08
4.77973e-06
5.78274e-08
4.80424e-06
-2.50021e-08
4.90598e-06
-1.02502e-07
4.96776e-06
-6.25194e-08
4.98806e-06
-2.1203e-08
4.98735e-06
-4.55767e-10
4.98292e-06
2.99513e-09
4.98441e-06
-3.05597e-09
4.98887e-06
-6.29173e-09
4.99234e-06
-5.36356e-09
-4.98472e-09
4.99977e-06
3.58184e-10
4.99915e-06
1.22048e-09
4.99792e-06
2.43953e-09
4.9961e-06
4.29403e-09
4.99401e-06
7.33352e-09
4.99373e-06
1.08843e-08
4.99943e-06
1.73033e-08
5.01707e-06
2.48848e-08
5.05561e-06
3.59063e-08
5.06709e-06
4.64015e-08
5.04943e-06
-8.63692e-09
4.99612e-06
-4.90435e-08
4.98884e-06
-5.52611e-08
4.99568e-06
-2.8049e-08
5.0001e-06
-4.86756e-09
5.0023e-06
7.88913e-10
5.00164e-06
-2.39627e-09
5.00089e-06
-5.54324e-09
5.00167e-06
-6.14534e-09
-5.95238e-09
4.99987e-06
4.92506e-10
4.99955e-06
1.53726e-09
4.99911e-06
2.87441e-09
4.99883e-06
4.57573e-09
4.99927e-06
6.88788e-09
5.00026e-06
9.89025e-09
5.00347e-06
1.40948e-08
5.0096e-06
1.8755e-08
5.0246e-06
2.09125e-08
5.05555e-06
1.53975e-08
5.04978e-06
-1.57625e-09
5.02279e-06
-2.21913e-08
4.99786e-06
-3.03144e-08
4.99315e-06
-2.33394e-08
4.99863e-06
-1.03476e-08
5.00343e-06
-4.02112e-09
5.00371e-06
-2.67332e-09
5.00234e-06
-4.169e-09
5.00215e-06
-5.95277e-09
-6.53624e-09
4.99998e-06
5.14204e-10
4.99993e-06
1.58588e-09
5.00001e-06
2.79681e-09
5.00031e-06
4.27172e-09
5.00113e-06
6.06103e-09
5.00279e-06
8.22839e-09
5.00667e-06
1.02095e-08
5.01378e-06
1.16565e-08
5.02357e-06
1.11189e-08
5.03071e-06
8.28025e-09
5.02837e-06
6.12636e-10
5.01624e-06
-1.00331e-08
5.00349e-06
-1.75655e-08
4.99776e-06
-1.76166e-08
4.9994e-06
-1.19878e-08
5.00159e-06
-6.21615e-09
5.00239e-06
-3.4645e-09
5.00212e-06
-3.89567e-09
5.00118e-06
-5.01593e-09
-5.97772e-09
5.00004e-06
4.7548e-10
5.00018e-06
1.44101e-09
5.0005e-06
2.47571e-09
5.00115e-06
3.62529e-09
5.00232e-06
4.88934e-09
5.00439e-06
6.15167e-09
5.00741e-06
7.18928e-09
5.01139e-06
7.68003e-09
5.01513e-06
7.38523e-09
5.01852e-06
4.88162e-09
5.01955e-06
-4.03167e-10
5.01522e-06
-5.70651e-09
5.00853e-06
-1.08774e-08
5.0031e-06
-1.21844e-08
5.00086e-06
-9.75423e-09
5.001e-06
-6.34515e-09
5.00154e-06
-4.00674e-09
5.0013e-06
-3.65669e-09
5.00034e-06
-4.05342e-09
-4.97777e-09
5.00008e-06
3.95752e-10
5.00032e-06
1.19508e-09
5.00079e-06
2.00685e-09
5.00157e-06
2.85509e-09
5.00275e-06
3.7079e-09
5.00441e-06
4.48977e-09
5.00655e-06
5.04014e-09
5.00909e-06
5.14449e-09
5.01202e-06
4.4504e-09
5.0144e-06
2.51375e-09
5.01414e-06
-1.35639e-10
5.01207e-06
-3.64116e-09
5.00774e-06
-6.5447e-09
5.00348e-06
-7.91753e-09
5.00092e-06
-7.19119e-09
5.00012e-06
-5.54688e-09
5.0001e-06
-3.98141e-09
4.99986e-06
-3.4279e-09
4.99915e-06
-3.35054e-09
-4.17375e-09
5.0001e-06
2.95777e-10
5.00039e-06
8.96792e-10
5.0009e-06
1.49743e-09
5.00167e-06
2.09238e-09
5.00274e-06
2.65006e-09
5.00412e-06
3.1064e-09
5.00579e-06
3.36986e-09
5.00763e-06
3.29968e-09
5.00932e-06
2.74895e-09
5.01026e-06
1.57291e-09
5.01043e-06
-3.00949e-10
5.00902e-06
-2.236e-09
5.00649e-06
-4.01474e-09
5.00366e-06
-5.08566e-09
5.00154e-06
-5.05917e-09
5.00034e-06
-4.34916e-09
4.9997e-06
-3.34318e-09
4.99915e-06
-2.89674e-09
4.99843e-06
-2.63738e-09
-3.21877e-09
5.0001e-06
1.93546e-10
5.00041e-06
5.88104e-10
5.00092e-06
9.81771e-10
5.00166e-06
1.36153e-09
5.00262e-06
1.69968e-09
5.00378e-06
1.94875e-09
5.00509e-06
2.05544e-09
5.00644e-06
1.94241e-09
5.00764e-06
1.54695e-09
5.00838e-06
8.26024e-10
5.00821e-06
-1.30849e-10
5.00733e-06
-1.36108e-09
5.00569e-06
-2.38059e-09
5.00368e-06
-3.06741e-09
5.00179e-06
-3.16795e-09
5.00033e-06
-2.89517e-09
4.99931e-06
-2.32824e-09
4.99851e-06
-2.10637e-09
4.99771e-06
-1.84647e-09
-2.28274e-09
5.00008e-06
1.11544e-10
5.00037e-06
3.0026e-10
5.00086e-06
4.9097e-10
5.00154e-06
6.77225e-10
5.00241e-06
8.38415e-10
5.00341e-06
9.49774e-10
5.00448e-06
9.88443e-10
5.0055e-06
9.24555e-10
5.00632e-06
7.27168e-10
5.00679e-06
3.55379e-10
5.0068e-06
-1.44746e-10
5.00607e-06
-6.32092e-10
5.00478e-06
-1.09492e-09
5.00314e-06
-1.43046e-09
5.00147e-06
-1.50058e-09
5.00001e-06
-1.4371e-09
4.99887e-06
-1.18999e-09
4.99791e-06
-1.14355e-09
4.99705e-06
-9.86174e-10
-1.42857e-09
5.00011e-06
5.00042e-06
5.00091e-06
5.00158e-06
5.00241e-06
5.00336e-06
5.00436e-06
5.00529e-06
5.00602e-06
5.00639e-06
5.00625e-06
5.00562e-06
5.00452e-06
5.00309e-06
5.00159e-06
5.00015e-06
4.99897e-06
4.99783e-06
4.99686e-06
)
;

boundaryField
{
    sides
    {
        type            calculated;
        value           uniform 0;
    }
    inlet
    {
        type            calculated;
        value           nonuniform List<scalar> 
20
(
-5e-06
-5e-06
-5e-06
-5e-06
-5e-06
-5e-06
-5e-06
-5e-06
-5e-06
-5e-06
-5e-06
-5e-06
-5e-06
-5e-06
-5e-06
-5e-06
-5e-06
-5e-06
-5e-06
-5e-06
)
;
    }
    outlet
    {
        type            calculated;
        value           nonuniform List<scalar> 
20
(
5.00188e-06
5.00139e-06
5.0015e-06
5.00141e-06
5.0017e-06
5.00199e-06
5.00278e-06
5.00421e-06
5.00343e-06
4.99513e-06
4.99474e-06
5.00264e-06
5.00273e-06
5.00062e-06
4.99933e-06
4.99834e-06
4.99747e-06
4.99677e-06
4.9962e-06
4.99544e-06
)
;
    }
    frontAndBack
    {
        type            empty;
        value           nonuniform List<scalar> 0();
    }
}


// ************************************************************************* //
