/*--------------------------------*- C++ -*----------------------------------*\
  =========                 |
  \\      /  F ield         | OpenFOAM: The Open Source CFD Toolbox
   \\    /   O peration     | Website:  https://openfoam.org
    \\  /    A nd           | Version:  9
     \\/     M anipulation  |
\*---------------------------------------------------------------------------*/
FoamFile
{
    format      ascii;
    class       surfaceScalarField;
    location    "68";
    object      phi_0;
}
// * * * * * * * * * * * * * * * * * * * * * * * * * * * * * * * * * * * * * //

dimensions      [0 4 -1 0 0 0 0];

internalField   nonuniform List<scalar> 
760
(
5.0001e-06
-9.10263e-11
5.0004e-06
-3.05022e-10
5.00091e-06
-5.13137e-10
5.00161e-06
-7.05533e-10
5.00249e-06
-8.7433e-10
5.00349e-06
-1.00379e-09
5.00455e-06
-1.05765e-09
5.00556e-06
-1.01049e-09
5.00639e-06
-8.27341e-10
5.00692e-06
-5.20801e-10
5.00704e-06
-1.21682e-10
5.00664e-06
4.02771e-10
5.00579e-06
8.60709e-10
5.00468e-06
1.10992e-09
5.00351e-06
1.17571e-09
5.00256e-06
9.54339e-10
5.00185e-06
7.17476e-10
5.0016e-06
2.48742e-10
5.00149e-06
1.07885e-10
-3.93089e-10
5.00012e-06
-2.10176e-10
5.00045e-06
-6.31049e-10
5.00098e-06
-1.04494e-09
5.00172e-06
-1.44418e-09
5.00265e-06
-1.80882e-09
5.00374e-06
-2.09554e-09
5.00493e-06
-2.24234e-09
5.0061e-06
-2.18417e-09
5.00712e-06
-1.84627e-09
5.00777e-06
-1.1635e-09
5.00774e-06
-8.84979e-11
5.00725e-06
8.95579e-10
5.00626e-06
1.85457e-09
5.00494e-06
2.42432e-09
5.00367e-06
2.4505e-09
5.00276e-06
1.8601e-09
5.00223e-06
1.24834e-09
5.0019e-06
5.87046e-10
5.00164e-06
3.71817e-10
-1.48666e-10
5.00011e-06
-3.17423e-10
5.00043e-06
-9.4816e-10
5.00096e-06
-1.57427e-09
5.00172e-06
-2.20849e-09
5.00272e-06
-2.81251e-09
5.00394e-06
-3.3171e-09
5.00532e-06
-3.61693e-09
5.00672e-06
-3.58173e-09
5.00792e-06
-3.0521e-09
5.00871e-06
-1.95615e-09
5.00893e-06
-3.00246e-10
5.00824e-06
1.57609e-09
5.00686e-06
3.23944e-09
5.00514e-06
4.14106e-09
5.00349e-06
4.09334e-09
5.0023e-06
3.05446e-09
5.00165e-06
1.89168e-09
5.00146e-06
7.79671e-10
5.00143e-06
4.04703e-10
-2.21439e-10
5.0001e-06
-4.15905e-10
5.00041e-06
-1.25563e-09
5.00094e-06
-2.11004e-09
5.00174e-06
-3.01382e-09
5.00285e-06
-3.91918e-09
5.00429e-06
-4.74769e-09
5.00601e-06
-5.34111e-09
5.00794e-06
-5.51932e-09
5.00984e-06
-4.94052e-09
5.01107e-06
-3.1968e-09
5.01119e-06
-4.28099e-10
5.00999e-06
2.78149e-09
5.00764e-06
5.57829e-09
5.00513e-06
6.64518e-09
5.00346e-06
5.76022e-09
5.00269e-06
3.82193e-09
5.00246e-06
2.10896e-09
5.00229e-06
9.45486e-10
5.00198e-06
7.17726e-10
3.40345e-10
5.00008e-06
-4.97116e-10
5.00034e-06
-1.51492e-09
5.00083e-06
-2.60555e-09
5.00163e-06
-3.81571e-09
5.00286e-06
-5.13799e-09
5.00458e-06
-6.46095e-09
5.00679e-06
-7.56708e-09
5.00942e-06
-8.13651e-09
5.01238e-06
-7.91942e-09
5.01478e-06
-5.58719e-09
5.01482e-06
-4.94503e-10
5.01284e-06
4.75928e-09
5.00866e-06
9.75602e-09
5.00458e-06
1.07149e-08
5.00223e-06
8.11416e-09
5.00173e-06
4.3153e-09
5.00203e-06
1.80055e-09
5.00224e-06
7.30909e-10
5.00199e-06
9.57487e-10
6.27065e-10
5.00004e-06
-5.40641e-10
5.00019e-06
-1.67353e-09
5.00053e-06
-2.94682e-09
5.00121e-06
-4.48549e-09
5.00241e-06
-6.33326e-09
5.00452e-06
-8.57456e-09
5.0076e-06
-1.0645e-08
5.01167e-06
-1.22122e-08
5.01553e-06
-1.17737e-08
5.01899e-06
-9.07866e-09
5.02022e-06
-1.696e-09
5.01601e-06
8.91841e-09
5.0095e-06
1.62687e-08
5.0042e-06
1.60137e-08
5.00216e-06
1.0156e-08
5.00248e-06
3.9917e-09
5.00326e-06
1.02349e-09
5.00338e-06
5.99234e-10
5.00278e-06
1.54792e-09
1.42084e-09
4.99998e-06
-5.24572e-10
4.99993e-06
-1.63422e-09
5.00003e-06
-3.03872e-09
5.00036e-06
-4.81225e-09
5.00122e-06
-7.19314e-09
5.00292e-06
-1.02766e-08
5.0068e-06
-1.45305e-08
5.01392e-06
-1.93317e-08
5.02375e-06
-2.1598e-08
5.03089e-06
-1.62882e-08
5.02873e-06
5.64983e-10
5.01676e-06
2.09349e-08
5.00418e-06
2.88097e-08
4.99872e-06
2.14659e-08
5.00056e-06
8.31792e-09
5.00283e-06
1.72411e-09
5.0037e-06
1.5503e-10
5.00365e-06
6.50495e-10
5.00303e-06
2.16126e-09
1.67874e-09
4.99986e-06
-3.93093e-10
4.99955e-06
-1.32142e-09
4.99913e-06
-2.61076e-09
4.99886e-06
-4.54199e-09
4.99933e-06
-7.66926e-09
5.00035e-06
-1.13091e-08
5.00365e-06
-1.78218e-08
5.00983e-06
-2.55109e-08
5.02486e-06
-3.66708e-08
5.05612e-06
-4.74174e-08
5.05003e-06
6.15411e-09
5.0232e-06
4.78742e-08
4.99818e-06
5.38439e-08
4.99348e-06
2.61484e-08
4.99945e-06
2.34715e-09
5.00406e-06
-2.88006e-09
5.00489e-06
-6.74025e-10
5.00371e-06
1.83414e-09
5.0035e-06
2.37914e-09
9.68307e-10
4.99977e-06
-1.61103e-10
4.99915e-06
-7.05374e-10
4.99792e-06
-1.37801e-09
4.99611e-06
-2.73256e-09
4.99401e-06
-5.58147e-09
4.99374e-06
-1.1032e-08
4.99945e-06
-2.35346e-08
5.01712e-06
-4.31921e-08
5.05572e-06
-7.52232e-08
5.06681e-06
-5.86473e-08
5.04972e-06
2.37595e-08
4.99646e-06
1.01011e-07
4.98928e-06
6.09944e-08
4.9959e-06
1.95368e-08
5.00017e-06
-1.93289e-09
5.00291e-06
-5.6145e-09
5.00251e-06
-2.7556e-10
5.00183e-06
2.5193e-09
5.00254e-06
1.6782e-09
7.25483e-11
4.99986e-06
-1.71688e-11
4.99921e-06
-5.09254e-11
4.99792e-06
-8.59275e-11
4.99531e-06
-1.29659e-10
4.98989e-06
-1.72332e-10
4.97908e-06
-2.22819e-10
4.95582e-06
-2.70792e-10
4.91295e-06
-3.34857e-10
4.83812e-06
-4.07339e-10
4.78001e-06
-4.6001e-10
4.80426e-06
-6.32858e-10
4.906e-06
-7.57041e-10
4.96778e-06
-7.47532e-10
4.98821e-06
-9.04358e-10
4.98744e-06
-1.16467e-09
4.98324e-06
-1.42828e-09
4.98454e-06
-1.56035e-09
4.98889e-06
-1.82819e-09
4.99247e-06
-1.89671e-09
-2.58459e-09
4.99986e-06
1.26799e-10
4.99921e-06
6.01826e-10
4.99791e-06
1.2105e-09
4.9953e-06
2.47986e-09
4.98987e-06
5.24839e-09
4.97905e-06
1.05982e-08
4.95577e-06
2.30039e-08
4.9129e-06
4.25377e-08
4.83802e-06
7.44456e-08
4.77974e-06
5.78529e-08
4.80424e-06
-2.51335e-08
4.90599e-06
-1.02481e-07
4.96777e-06
-6.25199e-08
4.98806e-06
-2.12064e-08
4.98735e-06
-4.57773e-10
4.98292e-06
2.99392e-09
4.98441e-06
-3.05588e-09
4.98887e-06
-6.2906e-09
4.99234e-06
-5.36198e-09
-4.98388e-09
4.99977e-06
3.5901e-10
4.99915e-06
1.22114e-09
4.99792e-06
2.4407e-09
4.9961e-06
4.2944e-09
4.99402e-06
7.33212e-09
4.99373e-06
1.0884e-08
4.99943e-06
1.73051e-08
5.01707e-06
2.48803e-08
5.05563e-06
3.59139e-08
5.06697e-06
4.63646e-08
5.04953e-06
-6.43e-09
4.99611e-06
-4.90667e-08
4.98884e-06
-5.52667e-08
4.99569e-06
-2.805e-08
5.0001e-06
-4.87041e-09
5.0023e-06
7.8708e-10
5.00164e-06
-2.39695e-09
5.00089e-06
-5.54242e-09
5.00167e-06
-6.14411e-09
-5.95169e-09
4.99987e-06
4.93325e-10
4.99955e-06
1.53784e-09
4.99911e-06
2.87571e-09
4.99883e-06
4.57687e-09
4.99927e-06
6.88714e-09
5.00026e-06
9.88929e-09
5.00347e-06
1.40947e-08
5.0096e-06
1.87562e-08
5.02459e-06
2.09072e-08
5.05567e-06
1.54201e-08
5.04968e-06
-1.75066e-09
5.02279e-06
-2.21841e-08
4.99786e-06
-3.0313e-08
4.99315e-06
-2.33423e-08
4.99863e-06
-1.03493e-08
5.00344e-06
-4.02185e-09
5.00372e-06
-2.67355e-09
5.00234e-06
-4.16929e-09
5.00215e-06
-5.95264e-09
-6.53599e-09
4.99998e-06
5.14174e-10
4.99993e-06
1.58671e-09
5e-06
2.79855e-09
5.00031e-06
4.27397e-09
5.00113e-06
6.06105e-09
5.00279e-06
8.22618e-09
5.00667e-06
1.02089e-08
5.01378e-06
1.16569e-08
5.02357e-06
1.11225e-08
5.03069e-06
8.27174e-09
5.02838e-06
6.29864e-10
5.01624e-06
-1.00361e-08
5.00348e-06
-1.75683e-08
4.99776e-06
-1.76157e-08
4.9994e-06
-1.19862e-08
5.0016e-06
-6.21503e-09
5.00239e-06
-3.46487e-09
5.00212e-06
-3.89687e-09
5.00118e-06
-5.01621e-09
-5.97749e-09
5.00004e-06
4.7459e-10
5.00018e-06
1.4417e-09
5.0005e-06
2.47823e-09
5.00115e-06
3.62836e-09
5.00232e-06
4.8904e-09
5.00439e-06
6.1486e-09
5.00741e-06
7.18642e-09
5.01139e-06
7.6807e-09
5.01513e-06
7.38676e-09
5.01852e-06
4.88669e-09
5.01955e-06
-3.91197e-10
5.01522e-06
-5.70588e-09
5.00853e-06
-1.08754e-08
5.0031e-06
-1.21812e-08
5.00087e-06
-9.75008e-09
5.001e-06
-6.34243e-09
5.00154e-06
-4.00733e-09
5.0013e-06
-3.65871e-09
5.00034e-06
-4.0536e-09
-4.97716e-09
5.00008e-06
3.9491e-10
5.00032e-06
1.19531e-09
5.00079e-06
2.00873e-09
5.00156e-06
2.85837e-09
5.00275e-06
3.70983e-09
5.00441e-06
4.48785e-09
5.00655e-06
5.03624e-09
5.00909e-06
5.1435e-09
5.01203e-06
4.45236e-09
5.0144e-06
2.51535e-09
5.01413e-06
-1.37306e-10
5.01207e-06
-3.64034e-09
5.00774e-06
-6.54252e-09
5.00348e-06
-7.91343e-09
5.00092e-06
-7.18708e-09
5.00013e-06
-5.54513e-09
5.0001e-06
-3.98341e-09
4.99986e-06
-3.43092e-09
4.99915e-06
-3.35092e-09
-4.17301e-09
5.0001e-06
2.96317e-10
5.00039e-06
8.96847e-10
5.0009e-06
1.49721e-09
5.00167e-06
2.09338e-09
5.00273e-06
2.65225e-09
5.00412e-06
3.10741e-09
5.00579e-06
3.36879e-09
5.00763e-06
3.29892e-09
5.00932e-06
2.74888e-09
5.01026e-06
1.57172e-09
5.01042e-06
-3.03027e-10
5.00902e-06
-2.23877e-09
5.0065e-06
-4.01555e-09
5.00367e-06
-5.08526e-09
5.00154e-06
-5.05935e-09
5.00034e-06
-4.35133e-09
4.99969e-06
-3.34715e-09
4.99915e-06
-2.90019e-09
4.99843e-06
-2.63791e-09
-3.21809e-09
5.0001e-06
1.95454e-10
5.00041e-06
5.88778e-10
5.00092e-06
9.79716e-10
5.00165e-06
1.35929e-09
5.00261e-06
1.70037e-09
5.00378e-06
1.95238e-09
5.00509e-06
2.0592e-09
5.00644e-06
1.94497e-09
5.00764e-06
1.54786e-09
5.00838e-06
8.24739e-10
5.00821e-06
-1.339e-10
5.00733e-06
-1.36551e-09
5.0057e-06
-2.3846e-09
5.00368e-06
-3.07124e-09
5.00178e-06
-3.17284e-09
5.00033e-06
-2.90089e-09
4.9993e-06
-2.33313e-09
4.9985e-06
-2.10911e-09
4.99771e-06
-1.84671e-09
-2.28217e-09
5.00008e-06
1.13186e-10
5.00037e-06
3.01133e-10
5.00086e-06
4.89221e-10
5.00154e-06
6.74426e-10
5.00241e-06
8.37863e-10
5.00341e-06
9.52604e-10
5.00448e-06
9.92826e-10
5.0055e-06
9.28146e-10
5.00632e-06
7.29256e-10
5.00679e-06
3.55815e-10
5.0068e-06
-1.46245e-10
5.00607e-06
-6.34895e-10
5.00478e-06
-1.09827e-09
5.00314e-06
-1.43417e-09
5.00147e-06
-1.50509e-09
5.00001e-06
-1.44164e-09
4.99887e-06
-1.19298e-09
4.99791e-06
-1.14452e-09
4.99705e-06
-9.85785e-10
-1.42798e-09
5.00011e-06
5.00041e-06
5.00091e-06
5.00158e-06
5.00242e-06
5.00336e-06
5.00436e-06
5.00529e-06
5.00602e-06
5.00639e-06
5.00625e-06
5.00562e-06
5.00452e-06
5.00309e-06
5.00159e-06
5.00016e-06
4.99897e-06
4.99784e-06
4.99686e-06
)
;

boundaryField
{
    sides
    {
        type            calculated;
        value           uniform 0;
    }
    inlet
    {
        type            calculated;
        value           nonuniform List<scalar> 
20
(
-5e-06
-5e-06
-5e-06
-5e-06
-5e-06
-5e-06
-5e-06
-5e-06
-5e-06
-5e-06
-5e-06
-5e-06
-5e-06
-5e-06
-5e-06
-5e-06
-5e-06
-5e-06
-5e-06
-5e-06
)
;
    }
    outlet
    {
        type            calculated;
        value           nonuniform List<scalar> 
20
(
5.00188e-06
5.0014e-06
5.0015e-06
5.00142e-06
5.0017e-06
5.00198e-06
5.00277e-06
5.00421e-06
5.00343e-06
4.99513e-06
4.99474e-06
5.00264e-06
5.00273e-06
5.00062e-06
4.99933e-06
4.99834e-06
4.99747e-06
4.99677e-06
4.9962e-06
4.99544e-06
)
;
    }
    frontAndBack
    {
        type            empty;
        value           nonuniform List<scalar> 0();
    }
}


// ************************************************************************* //
