/*--------------------------------*- C++ -*----------------------------------*\
  =========                 |
  \\      /  F ield         | OpenFOAM: The Open Source CFD Toolbox
   \\    /   O peration     | Website:  https://openfoam.org
    \\  /    A nd           | Version:  9
     \\/     M anipulation  |
\*---------------------------------------------------------------------------*/
FoamFile
{
    format      ascii;
    class       volVectorField;
    location    "68";
    object      U;
}
// * * * * * * * * * * * * * * * * * * * * * * * * * * * * * * * * * * * * * //

dimensions      [0 1 -1 0 0 0 0];

internalField   nonuniform List<vector> 
400
(
(0.0999965 -2.39802e-06 0)
(0.100001 -7.03673e-06 0)
(0.100009 -1.13172e-05 0)
(0.100023 -1.52372e-05 0)
(0.10004 -1.87401e-05 0)
(0.100061 -2.16831e-05 0)
(0.100083 -2.36663e-05 0)
(0.100107 -2.44863e-05 0)
(0.100128 -2.35781e-05 0)
(0.100144 -2.10803e-05 0)
(0.100152 -1.68018e-05 0)
(0.100152 -1.27915e-05 0)
(0.10014 -9.83667e-06 0)
(0.10012 -9.23542e-06 0)
(0.100093 -9.92334e-06 0)
(0.100068 -1.3538e-05 0)
(0.100045 -1.56164e-05 0)
(0.100033 -2.00757e-05 0)
(0.100025 -1.8855e-05 0)
(0.100032 -2.68484e-05 0)
(0.0999971 -2.60812e-06 0)
(0.100002 -7.8309e-06 0)
(0.100011 -1.27957e-05 0)
(0.100025 -1.74013e-05 0)
(0.100044 -2.1375e-05 0)
(0.100066 -2.40516e-05 0)
(0.100091 -2.45157e-05 0)
(0.100117 -2.1891e-05 0)
(0.100141 -1.53154e-05 0)
(0.100161 -4.65836e-06 0)
(0.100171 9.45274e-06 0)
(0.100169 2.48922e-05 0)
(0.100154 3.9153e-05 0)
(0.100129 4.78494e-05 0)
(0.1001 5.06164e-05 0)
(0.100071 4.52406e-05 0)
(0.10005 3.79307e-05 0)
(0.100037 2.58811e-05 0)
(0.100033 2.06383e-05 0)
(0.100029 8.10605e-06 0)
(0.0999969 -5.17148e-06 0)
(0.100002 -1.58127e-05 0)
(0.100011 -2.66286e-05 0)
(0.100025 -3.73974e-05 0)
(0.100044 -4.74479e-05 0)
(0.100068 -5.55693e-05 0)
(0.100097 -6.02376e-05 0)
(0.100127 -5.95604e-05 0)
(0.100156 -5.16156e-05 0)
(0.10018 -3.50824e-05 0)
(0.100193 -1.08897e-05 0)
(0.100192 1.64048e-05 0)
(0.100174 4.04404e-05 0)
(0.100142 5.22265e-05 0)
(0.100102 5.00508e-05 0)
(0.100065 3.54187e-05 0)
(0.100037 2.04075e-05 0)
(0.100025 4.83218e-06 0)
(0.100021 -1.42586e-07 0)
(0.100029 -1.16845e-05 0)
(0.0999963 -7.24376e-06 0)
(0.100001 -2.2104e-05 0)
(0.10001 -3.74296e-05 0)
(0.100025 -5.31186e-05 0)
(0.100046 -6.81734e-05 0)
(0.100073 -8.09965e-05 0)
(0.100107 -8.87674e-05 0)
(0.100146 -8.83678e-05 0)
(0.100186 -7.53963e-05 0)
(0.100222 -4.74732e-05 0)
(0.100243 -2.29705e-06 0)
(0.10024 4.94765e-05 0)
(0.10021 9.39164e-05 0)
(0.100159 0.000114161 0)
(0.100104 0.000105523 0)
(0.100061 7.42575e-05 0)
(0.100041 4.24013e-05 0)
(0.100035 1.72125e-05 0)
(0.10004 1.0395e-05 0)
(0.100035 7.07988e-08 0)
(0.0999953 -8.97693e-06 0)
(0.0999994 -2.76668e-05 0)
(0.100008 -4.76523e-05 0)
(0.100023 -6.94584e-05 0)
(0.100045 -9.21475e-05 0)
(0.100076 -0.000113905 0)
(0.100117 -0.000129778 0)
(0.100168 -0.000133546 0)
(0.100225 -0.000117496 0)
(0.100281 -7.78693e-05 0)
(0.100318 -1.72084e-05 0)
(0.100316 5.79746e-05 0)
(0.100267 0.000123333 0)
(0.100181 0.000151296 0)
(0.100091 0.000137513 0)
(0.100029 9.63408e-05 0)
(0.100009 5.80437e-05 0)
(0.100019 3.15448e-05 0)
(0.100035 2.63434e-05 0)
(0.100043 1.67906e-05 0)
(0.099994 -1.024e-05 0)
(0.0999968 -3.17446e-05 0)
(0.100003 -5.61624e-05 0)
(0.100015 -8.44758e-05 0)
(0.100036 -0.000117307 0)
(0.10007 -0.000152511 0)
(0.100122 -0.000185839 0)
(0.100193 -0.000205304 0)
(0.100277 -0.000191183 0)
(0.100357 -0.000120339 0)
(0.100414 8.41254e-06 0)
(0.100415 0.000154042 0)
(0.100339 0.000243543 0)
(0.100208 0.000230633 0)
(0.100084 0.000142967 0)
(0.100014 4.90772e-05 0)
(0.100012 1.14402e-06 0)
(0.100035 -8.58824e-06 0)
(0.100064 5.99414e-06 0)
(0.100055 4.94555e-06 0)
(0.0999924 -1.0228e-05 0)
(0.0999928 -3.32831e-05 0)
(0.0999949 -6.01231e-05 0)
(0.100001 -9.61602e-05 0)
(0.100016 -0.000139267 0)
(0.100046 -0.00019467 0)
(0.100103 -0.000248885 0)
(0.100202 -0.000308349 0)
(0.100349 -0.000323394 0)
(0.100519 -0.000288508 0)
(0.100632 -6.7343e-05 0)
(0.10059 0.000255579 0)
(0.100383 0.000483007 0)
(0.100117 0.000473826 0)
(0.0999477 0.000302813 0)
(0.0999217 0.000126213 0)
(0.0999924 4.2907e-05 0)
(0.100056 3.2576e-05 0)
(0.100095 5.61251e-05 0)
(0.100067 5.33161e-05 0)
(0.0999905 -9.28454e-06 0)
(0.0999874 -2.88438e-05 0)
(0.0999808 -5.76231e-05 0)
(0.0999771 -9.56294e-05 0)
(0.0999775 -0.000157795 0)
(0.100001 -0.000234544 0)
(0.100047 -0.000340209 0)
(0.10016 -0.000412416 0)
(0.100334 -0.000437362 0)
(0.100658 -0.000254601 0)
(0.101006 7.58017e-05 0)
(0.101013 0.000427802 0)
(0.100606 0.000472622 0)
(0.100072 0.000278424 0)
(0.0997818 7.35335e-05 0)
(0.0997966 -2.75695e-05 0)
(0.0999669 -2.87575e-05 0)
(0.100089 -1.05423e-06 0)
(0.100138 2.11367e-05 0)
(0.100087 1.02266e-05 0)
(0.0999895 -4.96999e-06 0)
(0.0999806 -2.03631e-05 0)
(0.099963 -3.85919e-05 0)
(0.0999379 -7.34748e-05 0)
(0.0999107 -0.00013391 0)
(0.0999019 -0.00024818 0)
(0.0999567 -0.000468658 0)
(0.100145 -0.000806809 0)
(0.100537 -0.0013291 0)
(0.101062 -0.00149234 0)
(0.101323 0.000385029 0)
(0.100996 0.00187549 0)
(0.100241 0.00157885 0)
(0.0997197 0.000574134 0)
(0.0996443 -3.15865e-05 0)
(0.0998217 -0.000126351 0)
(0.100024 -9.48289e-06 0)
(0.100107 6.34624e-05 0)
(0.100113 6.51723e-05 0)
(0.100055 2.43549e-05 0)
(0.0999704 -2.00194e-06 0)
(0.100006 -6.64812e-06 0)
(0.0999079 -1.51178e-05 0)
(0.0999718 -2.48882e-05 0)
(0.0997259 -5.92857e-05 0)
(0.0998441 -0.000113169 0)
(0.0992766 -0.00028821 0)
(0.0996751 -0.0005588 0)
(0.0991184 -0.00115363 0)
(0.102003 -0.00141551 0)
(0.106281 3.00738e-05 0)
(0.101267 0.00146716 0)
(0.0990073 0.0013071 0)
(0.0982222 0.000513165 0)
(0.0988552 1.93867e-05 0)
(0.0996049 -7.8149e-05 0)
(0.0999348 -1.11506e-05 0)
(0.0999518 2.48421e-05 0)
(0.0998667 1.74129e-05 0)
(0.0998488 -1.84911e-05 0)
(0.0999711 1.31505e-06 0)
(0.100007 4.60308e-06 0)
(0.0999086 1.17224e-05 0)
(0.0999724 1.99439e-05 0)
(0.0997263 5.28807e-05 0)
(0.0998442 0.000105033 0)
(0.0992763 0.000278394 0)
(0.0996745 0.000546838 0)
(0.0991169 0.00113909 0)
(0.102001 0.00139729 0)
(0.106276 -5.28132e-05 0)
(0.101265 -0.00149502 0)
(0.0990078 -0.00133988 0)
(0.0982222 -0.000552692 0)
(0.0988537 -6.48138e-05 0)
(0.0996014 2.47787e-05 0)
(0.0999307 -4.73087e-05 0)
(0.0999475 -0.000100306 0)
(0.0998656 -9.89184e-05 0)
(0.099844 -8.88593e-05 0)
(0.0999916 4.28356e-06 0)
(0.0999827 1.83742e-05 0)
(0.0999649 3.52815e-05 0)
(0.0999398 6.8665e-05 0)
(0.0999125 0.000127619 0)
(0.0999039 0.000240054 0)
(0.0999583 0.000458656 0)
(0.100146 0.000794111 0)
(0.100537 0.00131364 0)
(0.101064 0.00147348 0)
(0.101325 -0.000407069 0)
(0.100995 -0.00190225 0)
(0.100235 -0.00160997 0)
(0.099712 -0.000612184 0)
(0.0996385 -8.48525e-06 0)
(0.0998171 7.74676e-05 0)
(0.100014 -4.28021e-05 0)
(0.100091 -0.000130625 0)
(0.100093 -0.000138036 0)
(0.100038 -0.000125077 0)
(0.0999939 8.63366e-06 0)
(0.0999908 2.69509e-05 0)
(0.0999839 5.43964e-05 0)
(0.09998 9.09594e-05 0)
(0.09998 0.000151347 0)
(0.100003 0.000226075 0)
(0.100048 0.000329145 0)
(0.100159 0.000398866 0)
(0.100332 0.000421114 0)
(0.100654 0.000236735 0)
(0.101 -9.78127e-05 0)
(0.101007 -0.000454081 0)
(0.1006 -0.000502335 0)
(0.100067 -0.000313052 0)
(0.099775 -0.000113153 0)
(0.0997845 -2.51664e-05 0)
(0.0999507 -3.23234e-05 0)
(0.100066 -7.42815e-05 0)
(0.100111 -9.68432e-05 0)
(0.100057 -0.000107384 0)
(0.0999972 9.65342e-06 0)
(0.0999975 3.1473e-05 0)
(0.0999993 5.70514e-05 0)
(0.100005 9.16862e-05 0)
(0.100019 0.000133329 0)
(0.100049 0.000187018 0)
(0.100105 0.000239709 0)
(0.100203 0.000297338 0)
(0.100351 0.000311171 0)
(0.10052 0.000273327 0)
(0.100631 5.09756e-05 0)
(0.100586 -0.000275696 0)
(0.100375 -0.000508011 0)
(0.100105 -0.000507191 0)
(0.0999302 -0.00034493 0)
(0.0998987 -0.000179351 0)
(0.0999679 -0.000102068 0)
(0.100026 -0.000106006 0)
(0.100065 -0.000130821 0)
(0.100025 -0.000151538 0)
(0.1 9.76125e-06 0)
(0.100003 3.01511e-05 0)
(0.100009 5.34226e-05 0)
(0.100021 8.04904e-05 0)
(0.100041 0.000112076 0)
(0.100074 0.000145822 0)
(0.100124 0.000177664 0)
(0.100194 0.000194961 0)
(0.100276 0.000178252 0)
(0.100353 0.000103597 0)
(0.100407 -2.80207e-05 0)
(0.100405 -0.000178319 0)
(0.100326 -0.000271277 0)
(0.10019 -0.000263325 0)
(0.100064 -0.000177906 0)
(0.0999889 -8.94535e-05 0)
(0.0999834 -4.26312e-05 0)
(0.0999981 -4.48424e-05 0)
(0.100023 -6.17435e-05 0)
(0.100001 -8.48438e-05 0)
(0.100003 8.55733e-06 0)
(0.100007 2.63095e-05 0)
(0.100015 4.53074e-05 0)
(0.100029 6.6078e-05 0)
(0.10005 8.76793e-05 0)
(0.10008 0.000108274 0)
(0.10012 0.00012281 0)
(0.10017 0.00012516 0)
(0.100225 0.00010737 0)
(0.100279 6.57938e-05 0)
(0.100315 1.89554e-06 0)
(0.100309 -7.70724e-05 0)
(0.100256 -0.00014514 0)
(0.100166 -0.000177549 0)
(0.100072 -0.000166798 0)
(0.100003 -0.000134695 0)
(0.0999792 -0.000102833 0)
(0.0999766 -9.37733e-05 0)
(0.0999891 -9.46718e-05 0)
(0.0999771 -0.000110844 0)
(0.100005 6.85687e-06 0)
(0.10001 2.08708e-05 0)
(0.100019 3.5329e-05 0)
(0.100033 5.01108e-05 0)
(0.100053 6.43517e-05 0)
(0.100079 7.64013e-05 0)
(0.100111 8.35242e-05 0)
(0.100148 8.24147e-05 0)
(0.100186 6.90844e-05 0)
(0.100218 4.07039e-05 0)
(0.100235 -4.61085e-06 0)
(0.100228 -5.7632e-05 0)
(0.100195 -0.000103681 0)
(0.100138 -0.000128236 0)
(0.100077 -0.000122934 0)
(0.100023 -9.9321e-05 0)
(0.0999951 -7.01607e-05 0)
(0.0999762 -5.58515e-05 0)
(0.0999766 -4.89423e-05 0)
(0.0999565 -5.98656e-05 0)
(0.100007 4.97156e-06 0)
(0.100012 1.48844e-05 0)
(0.100021 2.46209e-05 0)
(0.100034 3.39097e-05 0)
(0.100053 4.21852e-05 0)
(0.100076 4.82191e-05 0)
(0.100103 5.06224e-05 0)
(0.100131 4.70928e-05 0)
(0.100159 3.60092e-05 0)
(0.100182 1.55593e-05 0)
(0.100193 -1.16616e-05 0)
(0.100186 -4.21785e-05 0)
(0.100162 -6.82774e-05 0)
(0.100122 -8.43212e-05 0)
(0.100078 -8.50169e-05 0)
(0.100032 -7.70363e-05 0)
(0.100001 -6.38597e-05 0)
(0.0999725 -5.99376e-05 0)
(0.0999646 -5.64328e-05 0)
(0.0999392 -6.85447e-05 0)
(0.100009 3.41816e-06 0)
(0.100013 1.03901e-05 0)
(0.100021 1.74006e-05 0)
(0.100034 2.42152e-05 0)
(0.100051 3.02894e-05 0)
(0.100071 3.49459e-05 0)
(0.100094 3.73694e-05 0)
(0.100117 3.66749e-05 0)
(0.100138 3.18261e-05 0)
(0.100153 2.23101e-05 0)
(0.10016 8.52243e-06 0)
(0.100155 -7.15568e-06 0)
(0.100137 -2.07346e-05 0)
(0.100105 -2.98227e-05 0)
(0.100068 -3.12676e-05 0)
(0.100027 -2.8207e-05 0)
(0.099997 -2.04e-05 0)
(0.0999656 -1.71623e-05 0)
(0.0999539 -1.21443e-05 0)
(0.0999255 -1.99203e-05 0)
(0.10001 -4.19939e-07 0)
(0.100015 -1.02235e-06 0)
(0.100023 -1.32032e-06 0)
(0.100036 -1.46492e-06 0)
(0.100053 -1.68167e-06 0)
(0.100072 -2.28831e-06 0)
(0.100094 -3.43152e-06 0)
(0.100115 -5.42713e-06 0)
(0.100134 -8.26188e-06 0)
(0.100147 -1.22908e-05 0)
(0.100152 -1.709e-05 0)
(0.100145 -2.32264e-05 0)
(0.100129 -2.91273e-05 0)
(0.1001 -3.41748e-05 0)
(0.100069 -3.59898e-05 0)
(0.10003 -3.68247e-05 0)
(0.100003 -3.43102e-05 0)
(0.0999667 -3.54166e-05 0)
(0.0999555 -3.29151e-05 0)
(0.0999143 -4.10979e-05 0)
)
;

boundaryField
{
    sides
    {
        type            calculated;
        value           nonuniform List<vector> 
40
(
(0.10001 0 0)
(0.100015 0 0)
(0.100023 0 0)
(0.100036 0 0)
(0.100053 0 0)
(0.100072 0 0)
(0.100094 0 0)
(0.100115 0 0)
(0.100134 0 0)
(0.100147 0 0)
(0.100152 0 0)
(0.100145 0 0)
(0.100129 0 0)
(0.1001 0 0)
(0.100069 0 0)
(0.10003 0 0)
(0.100003 0 0)
(0.0999667 0 0)
(0.0999555 0 0)
(0.0999143 0 0)
(0.0999965 0 0)
(0.100001 0 0)
(0.100009 0 0)
(0.100023 0 0)
(0.10004 0 0)
(0.100061 0 0)
(0.100083 0 0)
(0.100107 0 0)
(0.100128 0 0)
(0.100144 0 0)
(0.100152 0 0)
(0.100152 0 0)
(0.10014 0 0)
(0.10012 0 0)
(0.100093 0 0)
(0.100068 0 0)
(0.100045 0 0)
(0.100033 0 0)
(0.100025 0 0)
(0.100032 0 0)
)
;
    }
    inlet
    {
        type            calculated;
        value           nonuniform List<vector> 
20
(
(0.0999963 0 0)
(0.0999968 0 0)
(0.0999967 0 0)
(0.0999961 0 0)
(0.0999952 0 0)
(0.0999939 0 0)
(0.0999924 0 0)
(0.099991 0 0)
(0.09999 0 0)
(0.09999 0 0)
(0.0999906 0 0)
(0.099992 0 0)
(0.0999944 0 0)
(0.0999971 0 0)
(0.1 0 0)
(0.100003 0 0)
(0.100005 0 0)
(0.100007 0 0)
(0.100009 0 0)
(0.10001 0 0)
)
;
    }
    outlet
    {
        type            calculated;
        value           nonuniform List<vector> 
20
(
(0.100033 -2.68485e-05 0)
(0.100028 8.10603e-06 0)
(0.100029 -1.16846e-05 0)
(0.100034 7.07985e-08 0)
(0.100043 1.67906e-05 0)
(0.100054 4.94551e-06 0)
(0.100065 5.33154e-05 0)
(0.100085 1.02265e-05 0)
(0.100054 2.43545e-05 0)
(0.0998503 -1.84914e-05 0)
(0.0998452 -8.88605e-05 0)
(0.100036 -0.000125075 0)
(0.100055 -0.000107382 0)
(0.100023 -0.000151535 0)
(0.1 -8.48428e-05 0)
(0.0999763 -0.000110843 0)
(0.0999556 -5.98651e-05 0)
(0.0999384 -6.85441e-05 0)
(0.0999247 -1.99201e-05 0)
(0.0999129 -4.10973e-05 0)
)
;
    }
    frontAndBack
    {
        type            empty;
    }
}


// ************************************************************************* //
