/*--------------------------------*- C++ -*----------------------------------*\
  =========                 |
  \\      /  F ield         | OpenFOAM: The Open Source CFD Toolbox
   \\    /   O peration     | Website:  https://openfoam.org
    \\  /    A nd           | Version:  9
     \\/     M anipulation  |
\*---------------------------------------------------------------------------*/
FoamFile
{
    format      ascii;
    class       volVectorField;
    location    "38";
    object      ddtCorrDdt0(hU);
}
// * * * * * * * * * * * * * * * * * * * * * * * * * * * * * * * * * * * * * //

dimensions      [0 2 -2 0 0 0 0];

internalField   nonuniform List<vector> 
400
(
(2.48827e-08 1.01205e-08 0)
(5.62963e-10 1.65371e-08 0)
(-4.82623e-08 7.97025e-09 0)
(-3.72561e-08 -3.36224e-10 0)
(-1.34297e-08 -8.0904e-10 0)
(-8.4573e-09 5.09985e-09 0)
(-9.20843e-09 1.25925e-08 0)
(-1.57722e-08 1.52526e-08 0)
(-2.23547e-08 1.17271e-08 0)
(-1.67762e-08 7.86073e-10 0)
(1.21467e-09 -3.27211e-09 0)
(1.47625e-08 2.2624e-09 0)
(-3.73636e-10 7.49922e-09 0)
(-3.11403e-08 9.09145e-09 0)
(-4.8385e-08 1.50009e-09 0)
(-4.27964e-08 -7.17625e-09 0)
(-2.45641e-08 -7.98842e-09 0)
(-2.46924e-08 -4.90906e-09 0)
(-5.93437e-08 -4.42799e-09 0)
(-6.88521e-08 -3.06045e-09 0)
(2.24456e-08 2.37937e-08 0)
(-2.04917e-09 4.39792e-08 0)
(-4.5776e-08 2.69771e-08 0)
(-3.53479e-08 6.16561e-09 0)
(-1.64064e-08 2.5147e-09 0)
(-1.1897e-08 1.6302e-08 0)
(-1.31039e-08 3.48049e-08 0)
(-1.69518e-08 4.39032e-08 0)
(-2.38973e-08 3.02135e-08 0)
(-2.15867e-08 7.23095e-09 0)
(-5.97371e-10 -8.86737e-09 0)
(6.82814e-09 5.22686e-09 0)
(-1.12591e-09 2.24854e-08 0)
(-2.41038e-08 2.09198e-08 0)
(-4.21208e-08 2.00174e-10 0)
(-4.29917e-08 -2.29047e-08 0)
(-3.62127e-08 -2.35181e-08 0)
(-3.71038e-08 1.27195e-08 0)
(-5.40986e-08 2.19363e-08 0)
(-5.30232e-08 -2.90816e-09 0)
(2.09624e-08 3.38869e-08 0)
(-2.32012e-09 6.88918e-08 0)
(-3.95935e-08 4.55013e-08 0)
(-3.35554e-08 1.23132e-08 0)
(-2.08981e-08 5.7557e-09 0)
(-1.81915e-08 2.75156e-08 0)
(-1.71638e-08 5.55879e-08 0)
(-2.27687e-08 6.55576e-08 0)
(-2.27938e-08 3.54831e-08 0)
(-2.42232e-08 1.93858e-09 0)
(-7.43737e-09 -1.915e-08 0)
(3.28105e-09 -5.94357e-09 0)
(-9.94244e-09 3.18786e-08 0)
(-2.00273e-08 2.35997e-08 0)
(-3.0347e-08 -1.25179e-08 0)
(-3.50987e-08 -4.43148e-08 0)
(-2.57299e-08 -4.05707e-08 0)
(-2.60951e-08 8.93313e-09 0)
(-5.51053e-08 2.55957e-08 0)
(-5.94268e-08 -2.52565e-09 0)
(2.01303e-08 4.66772e-08 0)
(-2.51697e-09 9.31107e-08 0)
(-3.48026e-08 6.00614e-08 0)
(-3.24625e-08 1.43689e-08 0)
(-2.48087e-08 7.81249e-09 0)
(-2.20562e-08 3.73149e-08 0)
(-2.54328e-08 7.15494e-08 0)
(-3.03308e-08 6.50537e-08 0)
(-3.5096e-08 4.15467e-08 0)
(-1.90995e-08 -1.80068e-08 0)
(-2.97532e-08 -3.32177e-08 0)
(-4.26328e-09 -9.1692e-09 0)
(-1.3192e-08 3.52816e-08 0)
(-2.77284e-08 3.37217e-08 0)
(-1.82855e-08 -2.35558e-08 0)
(-2.07111e-08 -7.05619e-08 0)
(-3.29822e-08 -6.0279e-08 0)
(-4.07817e-08 1.08232e-08 0)
(-3.92934e-08 3.4617e-08 0)
(-3.01154e-08 -4.16621e-09 0)
(1.80468e-08 5.84141e-08 0)
(-2.57277e-09 1.09404e-07 0)
(-2.83618e-08 7.00205e-08 0)
(-3.1191e-08 1.93236e-08 0)
(-2.86522e-08 1.32762e-08 0)
(-2.96919e-08 4.60967e-08 0)
(-4.03454e-08 6.86368e-08 0)
(-3.54207e-08 6.389e-08 0)
(-4.45952e-08 4.1884e-08 0)
(-3.55536e-08 -7.08858e-09 0)
(-1.37152e-08 -3.79514e-08 0)
(-3.1315e-08 4.3617e-09 0)
(-1.69965e-08 3.55406e-08 0)
(-3.50172e-08 3.55854e-08 0)
(-3.48726e-08 -1.98656e-08 0)
(-1.4412e-08 -7.83997e-08 0)
(-5.46158e-09 -7.28317e-08 0)
(-1.39254e-08 1.37062e-08 0)
(-3.73864e-08 4.66366e-08 0)
(-3.62559e-08 -1.68607e-09 0)
(1.37462e-08 6.58286e-08 0)
(-4.24993e-09 1.154e-07 0)
(-2.25193e-08 7.29897e-08 0)
(-2.88244e-08 2.35053e-08 0)
(-3.17659e-08 1.9429e-08 0)
(-4.22801e-08 4.42863e-08 0)
(-4.87012e-08 6.04618e-08 0)
(-5.37292e-08 7.05528e-08 0)
(-2.87558e-08 3.86516e-08 0)
(-5.26728e-08 -1.35619e-09 0)
(-3.2131e-08 -3.00612e-08 0)
(-3.94192e-08 -9.68905e-09 0)
(-5.3447e-08 5.67585e-08 0)
(-2.99685e-08 4.3035e-08 0)
(-2.76219e-08 -1.45465e-08 0)
(-2.03798e-08 -7.12843e-08 0)
(-1.45062e-08 -7.20777e-08 0)
(-1.3575e-08 -5.15548e-09 0)
(-8.87527e-09 2.59938e-08 0)
(-1.03636e-08 -5.60738e-09 0)
(8.21146e-09 6.46246e-08 0)
(-7.34946e-09 1.08892e-07 0)
(-1.6611e-08 6.99715e-08 0)
(-2.55894e-08 2.74401e-08 0)
(-3.83311e-08 2.14269e-08 0)
(-5.19166e-08 3.66617e-08 0)
(-6.15693e-08 5.74073e-08 0)
(-5.11071e-08 6.45996e-08 0)
(-5.06302e-08 3.67219e-08 0)
(-1.34976e-08 -4.21319e-08 0)
(-1.20336e-07 1.27614e-07 0)
(-2.43936e-08 -2.09899e-08 0)
(-2.32182e-08 1.7505e-08 0)
(-5.50445e-08 3.12266e-08 0)
(-3.67258e-08 -1.74044e-08 0)
(-2.04038e-08 -7.05124e-08 0)
(-7.68596e-09 -7.43903e-08 0)
(-9.455e-09 -2.13276e-09 0)
(7.18904e-09 2.50249e-08 0)
(7.57924e-09 -1.00827e-08 0)
(3.21673e-09 5.36041e-08 0)
(-9.98366e-09 9.01345e-08 0)
(-1.09325e-08 6.08808e-08 0)
(-2.3966e-08 2.89818e-08 0)
(-4.35077e-08 1.95053e-08 0)
(-6.1425e-08 2.85656e-08 0)
(-6.73113e-08 5.31973e-08 0)
(-6.03739e-08 5.56721e-08 0)
(-6.35818e-08 1.66245e-08 0)
(1.09892e-07 -2.79418e-09 0)
(8.66335e-08 -2.09836e-07 0)
(-3.05382e-07 -1.65966e-08 0)
(-4.55157e-08 1.2213e-08 0)
(-1.25927e-08 9.82597e-09 0)
(-2.20091e-08 -1.76565e-08 0)
(-1.94256e-08 -5.45945e-08 0)
(-1.97136e-08 -5.78876e-08 0)
(2.84003e-09 -8.62275e-09 0)
(2.42874e-08 9.8617e-09 0)
(2.87612e-08 -1.13636e-08 0)
(4.5029e-10 3.58239e-08 0)
(-1.12408e-08 6.10592e-08 0)
(-5.18422e-09 4.37684e-08 0)
(-2.30675e-08 2.41132e-08 0)
(-4.99377e-08 1.52568e-08 0)
(-6.36947e-08 1.6322e-08 0)
(-7.10388e-08 3.26828e-08 0)
(-6.70054e-08 3.42312e-08 0)
(-4.25101e-08 9.79471e-09 0)
(-2.0948e-07 4.12941e-09 0)
(-2.07236e-07 -2.03383e-07 0)
(1.66957e-07 -5.83742e-09 0)
(-6.19029e-08 1.68554e-08 0)
(-4.52634e-08 1.73174e-08 0)
(-9.56156e-09 -2.57459e-09 0)
(-6.94634e-09 -2.28116e-08 0)
(-2.28301e-08 -2.85783e-08 0)
(-9.32999e-09 -6.97584e-09 0)
(3.47017e-08 -1.22166e-09 0)
(4.58618e-08 -1.29936e-08 0)
(-9.5039e-10 1.35138e-08 0)
(-1.17096e-08 2.50387e-08 0)
(-1.67865e-09 1.96727e-08 0)
(-2.21898e-08 1.36359e-08 0)
(-5.39559e-08 9.37061e-09 0)
(-7.07699e-08 4.24804e-09 0)
(-7.22516e-08 2.52733e-09 0)
(-6.46062e-08 4.39668e-09 0)
(-5.36335e-08 7.42431e-09 0)
(-8.6164e-08 -1.48293e-08 0)
(1.19571e-08 1.50257e-07 0)
(-9.12309e-08 -1.05929e-08 0)
(-7.07132e-08 7.70784e-09 0)
(-1.18062e-08 2.50919e-08 0)
(-2.02925e-09 1.87603e-08 0)
(-8.22535e-09 6.66098e-09 0)
(-1.5231e-08 -6.99668e-09 0)
(-7.88332e-09 -4.36336e-09 0)
(3.33652e-08 -8.2175e-09 0)
(5.15692e-08 -1.25726e-08 0)
(-3.68562e-11 -1.1054e-08 0)
(-1.15146e-08 -1.38241e-08 0)
(-8.1282e-10 -6.16318e-09 0)
(-2.13685e-08 5.4401e-11 0)
(-5.4884e-08 2.97953e-09 0)
(-7.33033e-08 -2.65481e-09 0)
(-7.45901e-08 -1.74022e-08 0)
(-5.69331e-08 -1.64641e-08 0)
(-6.04102e-08 -4.12048e-09 0)
(-1.9353e-08 9.60837e-10 0)
(-9.73593e-08 9.15046e-08 0)
(-5.96296e-08 1.97069e-08 0)
(-2.96775e-08 2.14642e-08 0)
(-2.69456e-08 1.75891e-08 0)
(-6.14961e-09 2.55833e-08 0)
(-1.76062e-08 2.32006e-08 0)
(-3.23589e-08 1.07489e-08 0)
(-1.48794e-08 -6.60724e-09 0)
(3.53022e-08 -1.60282e-08 0)
(5.23704e-08 -9.50381e-09 0)
(2.67831e-09 -3.24834e-08 0)
(-1.07325e-08 -5.07544e-08 0)
(-3.89227e-09 -3.18685e-08 0)
(-2.12491e-08 -1.33348e-08 0)
(-5.04932e-08 -7.59149e-09 0)
(-6.81516e-08 -1.1629e-08 0)
(-6.97452e-08 -3.14814e-08 0)
(-5.89802e-08 -3.99834e-08 0)
(-5.24976e-08 -3.34869e-08 0)
(2.23473e-08 8.78767e-10 0)
(-4.41328e-07 -8.88405e-08 0)
(-1.69711e-07 1.16817e-08 0)
(-6.41372e-08 -1.37708e-08 0)
(-2.40373e-08 -4.45208e-09 0)
(-2.10171e-08 1.78519e-08 0)
(-3.30412e-08 3.78561e-08 0)
(-2.98689e-08 3.14008e-08 0)
(-8.28001e-09 6.25367e-10 0)
(3.52086e-08 -2.00459e-08 0)
(4.83126e-08 -7.94785e-09 0)
(5.90311e-09 -4.92886e-08 0)
(-1.03125e-08 -8.14793e-08 0)
(-9.69262e-09 -5.17913e-08 0)
(-2.24904e-08 -2.07764e-08 0)
(-4.32775e-08 -1.48236e-08 0)
(-6.21564e-08 -2.58613e-08 0)
(-6.6007e-08 -4.03094e-08 0)
(-6.59677e-08 -5.44623e-08 0)
(-3.76492e-08 -3.93031e-08 0)
(-1.44028e-07 -1.04873e-08 0)
(3.06998e-07 -5.64682e-08 0)
(5.48568e-08 -5.7267e-09 0)
(-5.13026e-08 -2.21881e-08 0)
(-2.90292e-08 -1.14021e-08 0)
(-2.38752e-08 2.2176e-08 0)
(-2.2095e-08 6.64645e-08 0)
(-1.70524e-08 6.17894e-08 0)
(-3.18463e-09 7.09329e-10 0)
(2.4521e-08 -3.07342e-08 0)
(3.32146e-08 -7.0777e-09 0)
(9.99388e-09 -6.04788e-08 0)
(-9.06877e-09 -1.02851e-07 0)
(-1.57769e-08 -6.32281e-08 0)
(-2.42382e-08 -2.10254e-08 0)
(-3.72159e-08 -1.56639e-08 0)
(-4.86629e-08 -3.49953e-08 0)
(-5.6645e-08 -5.26178e-08 0)
(-5.32737e-08 -5.73802e-08 0)
(-5.46973e-08 -3.0168e-08 0)
(-5.633e-08 -4.28802e-10 0)
(-9.12777e-09 1.26159e-07 0)
(-8.68675e-08 2.08238e-08 0)
(-4.46997e-08 -1.61278e-08 0)
(-2.92512e-08 -1.28872e-08 0)
(-2.53738e-08 3.7581e-08 0)
(-1.51728e-08 8.78631e-08 0)
(-1.57764e-08 7.70469e-08 0)
(-7.81152e-09 -1.62119e-09 0)
(1.40151e-08 -3.91308e-08 0)
(1.63013e-08 -7.27888e-09 0)
(1.43569e-08 -6.42404e-08 0)
(-6.79756e-09 -1.12294e-07 0)
(-2.17541e-08 -6.7181e-08 0)
(-2.57156e-08 -1.75851e-08 0)
(-3.04341e-08 -1.32967e-08 0)
(-3.753e-08 -3.97604e-08 0)
(-4.44515e-08 -6.78098e-08 0)
(-4.60269e-08 -7.03257e-08 0)
(-4.4464e-08 -3.84469e-08 0)
(-3.81415e-08 2.83164e-08 0)
(-5.02041e-08 4.1114e-08 0)
(-3.12831e-08 1.51745e-08 0)
(-3.44233e-08 -1.80978e-08 0)
(-3.1057e-08 -9.7217e-09 0)
(-1.76882e-08 4.66645e-08 0)
(-1.55089e-08 9.41607e-08 0)
(-1.71494e-08 8.01079e-08 0)
(-1.27655e-08 -1.00878e-09 0)
(-5.16946e-09 -4.3087e-08 0)
(-4.98103e-09 -8.23671e-09 0)
(1.86971e-08 -6.01728e-08 0)
(-3.74251e-09 -1.08618e-07 0)
(-2.6988e-08 -6.39837e-08 0)
(-2.71935e-08 -1.20661e-08 0)
(-2.52544e-08 -8.84214e-09 0)
(-2.84738e-08 -4.11869e-08 0)
(-3.26111e-08 -7.42532e-08 0)
(-3.57432e-08 -8.14634e-08 0)
(-3.43864e-08 -4.34222e-08 0)
(-3.32924e-08 1.17774e-08 0)
(-4.05281e-08 4.67319e-08 0)
(-3.40405e-08 2.6762e-08 0)
(-2.17229e-08 -1.40669e-08 0)
(-2.35439e-08 -6.51954e-09 0)
(-2.94261e-08 4.28937e-08 0)
(-2.33374e-08 8.97361e-08 0)
(-1.73433e-08 7.45427e-08 0)
(-2.01493e-08 -9.29622e-09 0)
(-2.69923e-08 -4.74298e-08 0)
(-2.59538e-08 -7.73478e-09 0)
(2.17842e-08 -4.8107e-08 0)
(-8.25955e-10 -9.2265e-08 0)
(-3.13463e-08 -5.6654e-08 0)
(-2.83269e-08 -1.06384e-08 0)
(-2.15358e-08 -6.16258e-09 0)
(-2.13726e-08 -3.63917e-08 0)
(-2.41469e-08 -6.95047e-08 0)
(-2.4836e-08 -7.75256e-08 0)
(-2.98004e-08 -5.02442e-08 0)
(-2.9687e-08 -1.69538e-09 0)
(-1.69725e-08 2.59266e-08 0)
(-1.01168e-08 8.79439e-09 0)
(-2.13403e-08 -2.32304e-08 0)
(-3.69429e-08 -1.58848e-08 0)
(-3.66478e-08 3.36611e-08 0)
(-3.13924e-08 7.66483e-08 0)
(-2.80351e-08 6.12716e-08 0)
(-2.95223e-08 -1.29059e-08 0)
(-4.08479e-08 -4.3409e-08 0)
(-4.18641e-08 -6.07221e-09 0)
(2.29246e-08 -3.19355e-08 0)
(-1.33083e-09 -6.84335e-08 0)
(-3.79308e-08 -4.35053e-08 0)
(-2.95888e-08 -9.78256e-09 0)
(-1.54048e-08 -3.90219e-09 0)
(-1.41935e-08 -2.68125e-08 0)
(-1.51969e-08 -5.37209e-08 0)
(-2.07152e-08 -6.2574e-08 0)
(-2.68959e-08 -4.31091e-08 0)
(-2.42639e-08 -5.77185e-09 0)
(-1.82023e-08 1.38817e-08 0)
(-9.15465e-09 -3.43151e-09 0)
(-8.85513e-09 -3.0075e-08 0)
(-2.70589e-08 -2.10189e-08 0)
(-4.299e-08 1.77125e-08 0)
(-4.10995e-08 5.16417e-08 0)
(-2.92206e-08 4.52465e-08 0)
(-3.02793e-08 -6.57471e-09 0)
(-5.09849e-08 -2.90783e-08 0)
(-5.55641e-08 -2.6742e-09 0)
(2.09031e-08 -1.35404e-08 0)
(-3.50717e-09 -3.93724e-08 0)
(-4.3703e-08 -2.87421e-08 0)
(-3.02349e-08 -1.07756e-08 0)
(-1.01578e-08 -5.38902e-09 0)
(-7.682e-09 -1.5517e-08 0)
(-1.02154e-08 -3.10643e-08 0)
(-1.52499e-08 -3.67681e-08 0)
(-2.25169e-08 -2.68074e-08 0)
(-2.28803e-08 -5.10962e-09 0)
(-6.39069e-09 5.94932e-09 0)
(6.22409e-09 -8.59425e-10 0)
(-1.10474e-08 -1.99601e-08 0)
(-3.78429e-08 -1.9952e-08 0)
(-4.86792e-08 3.17041e-09 0)
(-3.85717e-08 2.85877e-08 0)
(-2.17892e-08 2.80183e-08 0)
(-2.51196e-08 -3.48391e-09 0)
(-5.54626e-08 -1.66899e-08 0)
(-6.64432e-08 -3.88818e-10 0)
(1.74234e-08 -1.67559e-09 0)
(-7.5467e-09 -1.14753e-08 0)
(-4.88697e-08 -1.14342e-08 0)
(-3.07746e-08 -7.10191e-09 0)
(-6.30116e-09 -4.37739e-09 0)
(-2.91479e-09 -5.11309e-09 0)
(-6.15967e-09 -8.9339e-09 0)
(-1.33922e-08 -1.0105e-08 0)
(-2.22573e-08 -9.57476e-09 0)
(-2.05026e-08 -3.14529e-09 0)
(-5.19279e-09 2.25084e-09 0)
(4.6775e-09 -4.24753e-09 0)
(-8.05968e-09 -1.18886e-08 0)
(-3.19131e-08 -9.14653e-09 0)
(-4.50718e-08 6.04186e-10 0)
(-3.82792e-08 9.46921e-09 0)
(-2.08438e-08 9.33387e-09 0)
(-2.08611e-08 -1.40283e-09 0)
(-5.3121e-08 -5.75523e-09 0)
(-7.10357e-08 3.25665e-11 0)
)
;

boundaryField
{
    sides
    {
        type            calculated;
        value           nonuniform List<vector> 
40
(
(1.74234e-08 0 0)
(-7.5467e-09 0 0)
(-4.88697e-08 0 0)
(-3.07746e-08 0 0)
(-6.30116e-09 0 0)
(-2.91479e-09 0 0)
(-6.15967e-09 0 0)
(-1.33922e-08 0 0)
(-2.22573e-08 0 0)
(-2.05026e-08 0 0)
(-5.19279e-09 0 0)
(4.6775e-09 0 0)
(-8.05968e-09 0 0)
(-3.19131e-08 0 0)
(-4.50718e-08 0 0)
(-3.82792e-08 0 0)
(-2.08438e-08 0 0)
(-2.08611e-08 0 0)
(-5.3121e-08 0 0)
(-7.10357e-08 0 0)
(2.48827e-08 0 0)
(5.62963e-10 0 0)
(-4.82623e-08 0 0)
(-3.72561e-08 0 0)
(-1.34297e-08 0 0)
(-8.4573e-09 0 0)
(-9.20843e-09 0 0)
(-1.57722e-08 0 0)
(-2.23547e-08 0 0)
(-1.67762e-08 0 0)
(1.21467e-09 0 0)
(1.47625e-08 0 0)
(-3.73636e-10 0 0)
(-3.11403e-08 0 0)
(-4.8385e-08 0 0)
(-4.27964e-08 0 0)
(-2.45641e-08 0 0)
(-2.46924e-08 0 0)
(-5.93437e-08 0 0)
(-6.88521e-08 0 0)
)
;
    }
    inlet
    {
        type            calculated;
        value           uniform (0 0 0);
    }
    outlet
    {
        type            calculated;
        value           nonuniform List<vector> 
20
(
(-6.88521e-08 -3.06045e-09 0)
(-5.30232e-08 -2.90816e-09 0)
(-5.94268e-08 -2.52565e-09 0)
(-3.01154e-08 -4.16621e-09 0)
(-3.62559e-08 -1.68607e-09 0)
(-1.03636e-08 -5.60738e-09 0)
(7.57924e-09 -1.00827e-08 0)
(2.87612e-08 -1.13636e-08 0)
(4.58618e-08 -1.29936e-08 0)
(5.15692e-08 -1.25726e-08 0)
(5.23704e-08 -9.50381e-09 0)
(4.83126e-08 -7.94785e-09 0)
(3.32146e-08 -7.0777e-09 0)
(1.63013e-08 -7.27888e-09 0)
(-4.98103e-09 -8.23671e-09 0)
(-2.59538e-08 -7.73478e-09 0)
(-4.18641e-08 -6.07221e-09 0)
(-5.55641e-08 -2.6742e-09 0)
(-6.64432e-08 -3.88818e-10 0)
(-7.10357e-08 3.25665e-11 0)
)
;
    }
    frontAndBack
    {
        type            empty;
    }
}


// ************************************************************************* //
