/*--------------------------------*- C++ -*----------------------------------*\
  =========                 |
  \\      /  F ield         | OpenFOAM: The Open Source CFD Toolbox
   \\    /   O peration     | Website:  https://openfoam.org
    \\  /    A nd           | Version:  9
     \\/     M anipulation  |
\*---------------------------------------------------------------------------*/
FoamFile
{
    format      ascii;
    class       surfaceScalarField;
    location    "38";
    object      ddtCorrDdt0(phi);
}
// * * * * * * * * * * * * * * * * * * * * * * * * * * * * * * * * * * * * * //

dimensions      [0 4 -2 0 0 0 0];

internalField   nonuniform List<scalar> 
760
(
-3.37663e-11
7.27145e-11
-1.58654e-10
1.35133e-10
-1.78832e-10
8.62905e-11
-1.23171e-10
2.2472e-11
-6.83072e-11
1.31479e-11
-4.5451e-11
5.46598e-11
-5.87721e-11
1.19806e-10
-9.46434e-11
1.45535e-10
-9.49411e-11
1.22883e-10
-2.54735e-11
2.35069e-11
6.28883e-11
-3.18354e-11
4.07057e-11
3.05075e-11
-8.75399e-11
8.13298e-11
-2.07353e-10
9.30499e-11
-2.27416e-10
1.26826e-11
-1.58495e-10
-7.63602e-11
-1.22601e-10
-8.22575e-11
-2.11209e-10
3.35258e-11
-3.3133e-10
6.80147e-11
-8.9251e-12
-5.61791e-11
1.42297e-10
-1.5242e-10
2.74333e-10
-1.6523e-10
1.76497e-10
-1.28697e-10
4.77721e-11
-8.77942e-11
2.27516e-11
-6.07774e-11
1.12968e-10
-7.2256e-11
2.31182e-10
-9.25302e-11
2.972e-10
-1.14323e-10
1.78435e-10
-4.28121e-11
3.52859e-11
2.7205e-11
-8.1912e-11
1.75409e-11
-1.07323e-13
-5.93797e-11
1.24885e-10
-1.73836e-10
1.10978e-10
-2.09869e-10
-1.48887e-11
-1.96667e-10
-1.51053e-10
-1.90128e-10
-1.49889e-10
-2.28689e-10
3.71031e-11
-2.7602e-10
9.46347e-11
-2.56674e-11
-6.66418e-11
2.01326e-10
-1.25944e-10
4.06426e-10
-1.44511e-10
2.69004e-10
-1.44844e-10
7.21702e-11
-1.14536e-10
3.57395e-11
-8.47881e-11
1.65774e-10
-7.70318e-11
3.30636e-10
-1.29695e-10
3.63346e-10
-1.0129e-10
1.70238e-10
-9.00104e-11
-4.25557e-11
2.98768e-11
-1.17418e-10
-3.54644e-11
-9.03218e-11
-7.83561e-11
1.62293e-10
-1.19273e-10
1.1018e-10
-1.62621e-10
-1.21774e-10
-1.51716e-10
-3.07568e-10
-1.30624e-10
-2.64982e-10
-2.08422e-10
7.49209e-11
-2.90973e-10
1.93073e-10
-5.45743e-12
-5.93011e-11
2.65193e-10
-1.04751e-10
5.13572e-10
-1.39045e-10
3.36434e-10
-1.61573e-10
8.92274e-11
-1.28086e-10
5.80029e-11
-9.91508e-11
2.13892e-10
-1.11517e-10
3.86562e-10
-2.14895e-10
2.78212e-10
-1.00532e-10
2.29783e-10
-1.14088e-10
-1.19537e-10
-1.04173e-10
-1.62245e-10
-1.91746e-12
-2.91994e-11
-1.38556e-10
1.5569e-10
-1.03061e-10
2.08809e-10
-8.5633e-11
-1.12654e-10
-1.43844e-10
-3.87912e-10
-1.94499e-10
-3.35831e-10
-2.03842e-10
3.76175e-11
-1.72633e-10
1.78254e-10
-1.09901e-11
-4.41696e-11
3.2123e-10
-8.06398e-11
5.73026e-10
-1.40711e-10
3.64802e-10
-1.69661e-10
1.13675e-10
-1.44198e-10
8.66143e-11
-1.14577e-10
2.53731e-10
-2.67542e-10
2.82236e-10
-1.43085e-10
3.5188e-10
-2.49223e-10
1.82368e-10
-6.22873e-11
8.05292e-11
-1.5048e-10
-3.57941e-10
-1.01918e-10
1.13342e-10
-1.11065e-10
2.52366e-10
-2.11554e-10
1.76328e-10
-1.14432e-10
-7.1631e-11
-4.18744e-11
-3.77848e-10
-5.17384e-11
-3.80091e-10
-1.29971e-10
3.82798e-11
-1.85803e-10
2.00489e-10
-1.85364e-11
-3.64503e-11
3.41792e-10
-7.14479e-11
5.72242e-10
-1.35256e-10
3.65916e-10
-1.7179e-10
1.34242e-10
-1.34495e-10
1.22048e-10
-2.44151e-10
1.90161e-10
-2.9216e-10
2.95769e-10
-1.81103e-10
3.33972e-10
-1.75155e-10
2.18338e-10
-2.73511e-10
-9.57722e-11
-7.91259e-11
-1.31071e-10
-2.96853e-10
-3.24842e-10
-2.00484e-10
2.19819e-10
-1.42135e-10
2.10458e-10
-1.33002e-10
-7.23748e-11
-8.92273e-11
-3.1886e-10
-6.33453e-11
-3.25811e-10
-4.82294e-11
-8.18418e-12
-4.81123e-11
1.29541e-10
-4.0308e-11
-4.10343e-11
3.10907e-10
-6.71132e-11
5.08072e-10
-1.24023e-10
3.34096e-10
-1.5264e-10
1.54297e-10
-1.98355e-10
1.02923e-10
-3.09631e-10
1.70545e-10
-3.1054e-10
2.72905e-10
-2.20108e-10
3.01805e-10
-1.5695e-10
1.54926e-10
-2.88394e-10
-3.73762e-10
-4.72686e-10
1.24905e-09
1.12194e-12
1.76893e-10
-2.53702e-10
-3.18057e-11
-2.34306e-10
9.51855e-11
-1.50469e-10
-8.4465e-11
-6.73209e-11
-2.68786e-10
-5.11016e-11
-1.82269e-09
1.00945e-11
-5.25346e-11
3.94222e-11
7.68754e-11
-6.24288e-11
-4.98105e-11
2.32505e-10
-6.17722e-11
3.8636e-10
-9.78597e-11
2.67834e-10
-1.66819e-10
1.35958e-10
-2.44004e-10
9.23835e-11
-3.49986e-10
1.04762e-10
-3.25143e-10
2.47783e-10
-2.10019e-10
1.6458e-10
-5.05184e-10
-2.17788e-11
1.89028e-09
3.42841e-10
-1.75776e-09
-5.53958e-08
-5.39898e-10
-3.61343e-10
-1.04395e-10
1.50876e-10
-1.00186e-10
6.29479e-11
-1.21951e-10
-6.29869e-11
-1.18716e-10
-1.74664e-10
-1.87424e-11
-1.70639e-10
6.82949e-11
-1.12259e-11
1.42351e-10
3.372e-11
-6.23449e-11
-5.4945e-11
1.23105e-10
-4.52669e-11
2.19462e-10
-7.53774e-11
1.66452e-10
-1.82161e-10
9.90263e-11
-3.07793e-10
5.54654e-11
-3.12922e-10
6.21382e-11
-3.3528e-10
7.40167e-11
-3.74065e-10
1.20922e-10
-3.05703e-11
8.40477e-11
-2.3994e-09
-2.82129e-10
1.10765e-09
1.1599e-09
-7.29316e-11
2.44364e-10
-3.17184e-10
-1.04413e-10
-1.18287e-10
3.90481e-11
-6.74978e-11
7.28775e-11
-7.26851e-11
-4.54331e-11
-9.02287e-11
1.12317e-09
7.12027e-11
-3.66213e-11
2.1666e-10
-2.15058e-11
7.57645e-10
-6.01786e-11
5.27734e-12
-3.19245e-11
2.8586e-11
-5.49804e-11
3.41746e-11
-1.97718e-10
3.75059e-11
-3.4598e-10
3.53961e-11
-3.40633e-10
-1.31258e-11
-3.19141e-10
-4.18267e-11
-3.0841e-10
-2.57791e-11
-3.52705e-10
3.80955e-11
-2.50741e-10
3.83275e-11
-5.36692e-11
1.76389e-10
-5.38472e-10
-1.87434e-10
-1.44063e-10
1.70581e-10
-5.29001e-11
1.19084e-10
-2.89121e-11
1.45113e-10
-8.77938e-11
1.11747e-10
-5.4253e-11
4.75647e-11
6.61417e-11
-1.70309e-11
2.28861e-10
-5.24957e-11
-5.23939e-11
-5.72095e-11
-1.09478e-10
-2.87754e-11
-1.66146e-10
-4.94301e-11
-1.00256e-10
-1.87562e-10
-3.6647e-11
-3.67492e-10
-3.94723e-12
-3.68266e-10
-3.50197e-11
-3.00596e-10
-1.60197e-10
-2.94914e-10
-1.3736e-10
-2.07217e-10
-8.30134e-11
-2.34682e-10
-3.12423e-11
-5.39632e-10
6.39581e-10
-8.4878e-11
2.89446e-10
-1.97661e-10
-4.17153e-11
-6.56627e-11
9.73389e-12
-7.21998e-11
1.20433e-10
-1.50358e-10
1.65929e-10
-1.26823e-10
1.13741e-10
6.12388e-11
-2.41627e-11
2.39391e-10
-8.70087e-11
-4.38059e-11
-5.00394e-11
-2.13549e-10
-3.57611e-11
-3.37526e-10
-6.64586e-11
-2.15013e-10
-1.68373e-10
-9.05613e-11
-3.16328e-10
-6.71257e-11
-3.81862e-10
-8.10761e-11
-2.90115e-10
-1.67073e-10
-2.59293e-10
-2.43679e-10
-2.95534e-10
-2.39213e-10
-4.44107e-10
5.74615e-11
-2.0999e-09
-4.84246e-11
-4.37292e-10
-3.20587e-11
-1.83499e-10
-5.10934e-11
-1.08648e-10
-4.17396e-11
-1.68513e-10
1.23448e-10
-1.70204e-10
8.22512e-11
-1.01081e-10
2.26209e-10
7.65787e-11
-1.00836e-11
2.29377e-10
-1.29015e-10
-3.59541e-11
-4.5663e-11
-2.86515e-10
-5.32787e-11
-4.70073e-10
-8.81329e-11
-2.96089e-10
-1.6006e-10
-1.18447e-10
-2.56225e-10
-8.29294e-11
-3.54966e-10
-1.52955e-10
-2.96354e-10
-2.0279e-10
-3.10306e-10
-2.85648e-10
-1.49446e-10
-1.23768e-10
-3.38717e-10
-2.02114e-10
1.63134e-09
1.12208e-09
-2.25356e-10
8.38781e-11
-2.10468e-10
-1.78186e-10
-1.29327e-10
-6.00124e-11
-1.191e-10
1.27149e-10
-1.26614e-10
3.39476e-10
-4.89543e-11
3.22563e-10
5.99203e-11
1.79503e-11
1.62322e-10
-1.66616e-10
-3.37913e-11
-4.31064e-11
-3.23471e-10
-6.53287e-11
-5.49102e-10
-1.12012e-10
-3.37246e-10
-1.51746e-10
-1.07207e-10
-2.10521e-10
-8.24919e-11
-2.50488e-10
-1.88697e-10
-2.95242e-10
-3.08833e-10
-2.39592e-10
-2.74689e-10
-3.80531e-10
-1.87628e-10
-1.5756e-11
1.30626e-10
-2.99164e-10
8.8038e-11
-3.52875e-10
-1.79935e-11
-1.49297e-10
-5.57019e-11
-1.55702e-10
-7.95029e-11
-1.06508e-10
2.01566e-10
-8.37124e-11
4.51466e-10
-6.44716e-11
3.94499e-10
1.884e-11
-6.1376e-12
8.58016e-11
-2.08017e-10
-3.84893e-11
-4.41103e-11
-3.23043e-10
-7.2255e-11
-5.64627e-10
-1.24581e-10
-3.35537e-10
-1.48292e-10
-7.96897e-11
-1.59566e-10
-6.14857e-11
-1.97738e-10
-2.1071e-10
-2.14703e-10
-3.53695e-10
-2.52965e-10
-3.94784e-10
-1.86722e-10
-1.81611e-10
-2.29704e-10
1.22106e-10
-2.0761e-10
2.40483e-10
-1.37399e-10
1.81198e-10
-1.79649e-10
-6.89527e-11
-1.22583e-10
-1.86448e-11
-8.45262e-11
2.46954e-10
-8.54069e-11
4.7943e-10
-8.17457e-11
3.92577e-10
-4.66837e-11
-3.03293e-11
-1.75096e-11
-2.28189e-10
-3.93835e-11
-4.59961e-11
-2.81589e-10
-7.34488e-11
-5.10774e-10
-1.28007e-10
-3.03915e-10
-1.46696e-10
-5.33962e-11
-1.31874e-10
-4.11898e-11
-1.36248e-10
-2.04017e-10
-1.76279e-10
-3.75305e-10
-1.68375e-10
-4.05046e-10
-1.83855e-10
-2.44903e-10
-1.61758e-10
2.68356e-11
-1.84163e-10
2.07978e-10
-1.42716e-10
6.97012e-11
-1.14903e-10
-9.12513e-11
-1.33842e-10
-4.22461e-11
-1.29518e-10
2.11931e-10
-1.05873e-10
4.27946e-10
-1.03159e-10
3.46364e-10
-1.19067e-10
-3.92768e-11
-1.26523e-10
-2.14989e-10
-3.26578e-11
-4.53962e-11
-2.03507e-10
-7.98414e-11
-4.04615e-10
-1.22694e-10
-2.57348e-10
-1.4606e-10
-5.52352e-11
-1.13883e-10
-2.73882e-11
-1.02705e-10
-1.67055e-10
-1.21189e-10
-3.2296e-10
-1.3518e-10
-3.68291e-10
-1.38158e-10
-2.48379e-10
-1.0663e-10
-2.4514e-11
-7.31827e-11
1.14846e-10
-7.107e-11
2.75294e-11
-1.43813e-10
-1.18091e-10
-1.86318e-10
-9.02521e-11
-1.75125e-10
1.21607e-10
-1.53295e-10
3.21386e-10
-1.46704e-10
2.75522e-10
-1.76298e-10
-4.19199e-11
-2.06842e-10
-1.79924e-10
-2.23617e-11
-4.90527e-11
-1.087e-10
-1.12152e-10
-2.72921e-10
-1.30669e-10
-1.94932e-10
-1.25055e-10
-7.11076e-11
-8.98452e-11
-2.96287e-11
-6.75247e-11
-1.0444e-10
-8.49909e-11
-2.08095e-10
-1.1019e-10
-2.5222e-10
-1.33121e-10
-1.85922e-10
-8.84333e-11
-4.31606e-11
-6.28924e-11
4.62232e-11
-3.58435e-11
-2.5472e-11
-9.58312e-11
-1.42866e-10
-1.77862e-10
-1.12888e-10
-2.135e-10
4.74947e-11
-1.75777e-10
2.01568e-10
-1.48751e-10
1.8054e-10
-2.07369e-10
-3.71888e-11
-2.71376e-10
-1.23277e-10
-8.61102e-12
-6.24166e-11
-4.00861e-11
-1.47164e-10
-1.3456e-10
-1.49634e-10
-1.07935e-10
-9.79927e-11
-5.09792e-11
-6.02904e-11
-2.69024e-11
-4.17412e-11
-4.60455e-11
-6.12599e-11
-9.82865e-11
-9.06842e-11
-1.15653e-10
-1.06106e-10
-9.71929e-11
-6.77413e-11
-2.09679e-11
1.6683e-11
1.18123e-11
-7.29934e-12
-1.58e-11
-1.23551e-10
-8.25251e-11
-2.25389e-10
-8.35366e-11
-2.23047e-10
-5.16231e-12
-1.43964e-10
8.37993e-11
-1.12062e-10
8.91848e-11
-2.07305e-10
-8.14708e-12
-3.14574e-10
-5.2293e-11
8.25274e-13
-8.10567e-11
-1.81839e-10
-1.68227e-10
-8.35301e-11
-2.94448e-11
-2.55423e-11
-4.02974e-11
-9.48968e-11
-1.01538e-10
-5.25349e-11
1.86814e-11
-4.30436e-12
-1.06546e-10
-2.02461e-10
-2.11979e-10
-1.36803e-10
-9.33306e-11
-1.90909e-10
-3.26362e-10
)
;

boundaryField
{
    sides
    {
        type            calculated;
        value           uniform 0;
    }
    inlet
    {
        type            calculated;
        value           uniform 0;
    }
    outlet
    {
        type            calculated;
        value           nonuniform List<scalar> 
20
(
-3.50936e-10
-2.63641e-10
-2.94972e-10
-1.45605e-10
-1.81993e-10
-5.92538e-11
3.75724e-11
1.4986e-10
2.41533e-10
2.77736e-10
2.77588e-10
2.54343e-10
1.72862e-10
9.04221e-11
-1.74908e-11
-1.25683e-10
-2.07024e-10
-2.74316e-10
-3.30298e-10
-3.54471e-10
)
;
    }
    frontAndBack
    {
        type            empty;
        value           nonuniform List<scalar> 0();
    }
}


// ************************************************************************* //
