/*--------------------------------*- C++ -*----------------------------------*\
  =========                 |
  \\      /  F ield         | OpenFOAM: The Open Source CFD Toolbox
   \\    /   O peration     | Website:  https://openfoam.org
    \\  /    A nd           | Version:  9
     \\/     M anipulation  |
\*---------------------------------------------------------------------------*/
FoamFile
{
    format      ascii;
    class       volScalarField;
    location    "38";
    object      h;
}
// * * * * * * * * * * * * * * * * * * * * * * * * * * * * * * * * * * * * * //

dimensions      [0 1 0 0 0 0 0];

internalField   nonuniform List<scalar> 
400
(
0.0100002
0.0100002
0.0100001
0.01
0.00999988
0.00999969
0.00999947
0.00999923
0.00999901
0.00999883
0.00999871
0.0099987
0.0099988
0.00999901
0.00999928
0.00999955
0.00999978
0.00999994
0.01
0.01
0.0100001
0.0100001
0.0100001
0.00999995
0.00999978
0.00999958
0.00999934
0.00999907
0.00999881
0.0099986
0.00999847
0.00999848
0.00999862
0.00999887
0.00999917
0.00999947
0.0099997
0.00999984
0.00999992
0.00999997
0.0100001
0.0100001
0.0100001
0.00999994
0.00999977
0.00999954
0.00999926
0.00999895
0.00999865
0.0099984
0.00999825
0.00999824
0.00999842
0.00999875
0.00999916
0.00999955
0.00999984
0.00999999
0.01
0.01
0.0100002
0.0100002
0.0100001
0.00999997
0.00999978
0.00999951
0.00999917
0.00999879
0.00999837
0.00999801
0.00999777
0.0099978
0.0099981
0.00999863
0.00999922
0.00999967
0.00999989
0.00999994
0.00999993
0.00999995
0.0100003
0.0100002
0.0100002
0.01
0.00999985
0.00999954
0.00999913
0.00999863
0.00999804
0.00999747
0.00999708
0.00999709
0.0099976
0.00999849
0.00999945
0.0100001
0.0100003
0.0100002
0.01
0.00999998
0.0100004
0.0100004
0.0100003
0.0100002
0.01
0.00999968
0.00999918
0.00999847
0.00999762
0.00999678
0.00999621
0.00999617
0.00999696
0.00999834
0.00999967
0.0100004
0.0100005
0.0100002
0.00999992
0.00999991
0.0100005
0.0100005
0.0100005
0.0100005
0.0100003
0.01
0.00999949
0.00999851
0.009997
0.00999526
0.00999401
0.00999443
0.0099966
0.00999941
0.0100013
0.0100015
0.0100008
0.01
0.00999974
0.00999987
0.0100006
0.0100007
0.0100007
0.0100008
0.0100008
0.0100006
0.0100001
0.0099991
0.00999724
0.00999417
0.00999041
0.0099901
0.00999441
0.0100001
0.0100033
0.0100031
0.0100013
0.00999987
0.00999951
0.00999984
0.0100007
0.0100008
0.010001
0.0100012
0.0100015
0.0100017
0.0100012
0.0099993
0.00999534
0.0099896
0.00998665
0.00998968
0.00999797
0.0100036
0.0100044
0.0100024
0.0100003
0.00999938
0.00999946
0.00999989
0.0100007
0.0100008
0.0100011
0.0100016
0.0100024
0.0100038
0.0100056
0.0100076
0.0100047
0.00897833
0.00895233
0.00997576
0.0100088
0.0100178
0.0100104
0.0100023
0.00999889
0.00999894
0.00999981
0.0100002
0.0100006
0.0100007
0.010001
0.0100015
0.0100023
0.0100037
0.0100056
0.0100076
0.0100047
0.00897831
0.00895227
0.00997573
0.0100087
0.0100177
0.0100104
0.0100023
0.00999888
0.00999892
0.00999978
0.0100001
0.0100005
0.0100006
0.0100008
0.010001
0.0100013
0.0100015
0.010001
0.0099991
0.00999515
0.00998939
0.00998649
0.00998947
0.00999785
0.0100035
0.0100043
0.0100023
0.0100002
0.00999936
0.00999948
0.0099999
0.0100003
0.0100003
0.0100004
0.0100005
0.0100005
0.0100003
0.00999982
0.0099988
0.00999696
0.00999392
0.00999012
0.0099899
0.00999415
0.00999989
0.010003
0.0100029
0.0100011
0.00999979
0.00999949
0.00999983
0.01
0.01
0.01
0.00999998
0.00999986
0.00999958
0.00999903
0.00999806
0.00999658
0.00999482
0.00999366
0.00999404
0.00999626
0.00999911
0.010001
0.0100013
0.0100006
0.00999991
0.00999964
0.00999984
0.00999975
0.00999974
0.0099997
0.0099996
0.00999941
0.00999909
0.00999859
0.0099979
0.00999707
0.00999627
0.00999572
0.00999573
0.00999655
0.00999796
0.00999933
0.0100001
0.0100002
0.00999998
0.00999981
0.00999988
0.00999951
0.00999949
0.00999943
0.0099993
0.00999911
0.00999881
0.00999841
0.00999792
0.00999736
0.0099968
0.00999642
0.00999648
0.00999702
0.00999796
0.00999897
0.00999968
0.00999997
0.00999995
0.00999989
0.00999992
0.0099993
0.00999928
0.00999921
0.00999908
0.0099989
0.00999864
0.00999832
0.00999794
0.00999755
0.00999722
0.00999704
0.00999709
0.00999744
0.00999802
0.00999868
0.00999923
0.00999957
0.00999972
0.0099998
0.00999991
0.00999912
0.00999911
0.00999904
0.00999891
0.00999875
0.00999853
0.00999826
0.00999796
0.00999767
0.00999743
0.0099973
0.00999735
0.0099976
0.009998
0.00999848
0.00999894
0.00999931
0.00999956
0.00999974
0.0099999
0.00999897
0.00999897
0.00999891
0.0099988
0.00999864
0.00999845
0.00999823
0.00999799
0.00999776
0.00999759
0.0099975
0.00999754
0.00999772
0.00999803
0.00999843
0.00999884
0.00999919
0.00999948
0.00999971
0.0099999
0.00999884
0.00999884
0.00999878
0.00999867
0.00999851
0.00999833
0.00999812
0.0099979
0.0099977
0.00999754
0.00999747
0.00999752
0.00999768
0.00999796
0.00999831
0.00999867
0.00999902
0.00999932
0.0099996
0.00999985
)
;

boundaryField
{
    sides
    {
        type            zeroGradient;
    }
    inlet
    {
        type            zeroGradient;
    }
    outlet
    {
        type            fixedValue;
        value           uniform 0.01;
    }
    frontAndBack
    {
        type            empty;
    }
}


// ************************************************************************* //
