/*--------------------------------*- C++ -*----------------------------------*\
  =========                 |
  \\      /  F ield         | OpenFOAM: The Open Source CFD Toolbox
   \\    /   O peration     | Website:  https://openfoam.org
    \\  /    A nd           | Version:  9
     \\/     M anipulation  |
\*---------------------------------------------------------------------------*/
FoamFile
{
    format      ascii;
    class       volScalarField;
    location    "38";
    object      h_0;
}
// * * * * * * * * * * * * * * * * * * * * * * * * * * * * * * * * * * * * * //

dimensions      [0 1 0 0 0 0 0];

internalField   nonuniform List<scalar> 
400
(
0.0100002
0.0100002
0.0100001
0.01
0.00999986
0.00999968
0.00999946
0.00999923
0.00999902
0.00999884
0.00999874
0.00999872
0.00999882
0.00999903
0.0099993
0.00999957
0.0099998
0.00999995
0.01
0.01
0.0100001
0.0100001
0.01
0.00999993
0.00999977
0.00999957
0.00999933
0.00999907
0.00999882
0.00999861
0.00999849
0.0099985
0.00999864
0.00999888
0.00999919
0.00999949
0.00999971
0.00999985
0.00999993
0.00999997
0.0100001
0.0100001
0.01
0.00999992
0.00999975
0.00999954
0.00999926
0.00999896
0.00999866
0.00999841
0.00999826
0.00999826
0.00999843
0.00999876
0.00999917
0.00999956
0.00999985
0.01
0.01
0.01
0.0100002
0.0100001
0.0100001
0.00999995
0.00999977
0.00999951
0.00999918
0.00999879
0.00999839
0.00999801
0.00999779
0.00999781
0.00999811
0.00999864
0.00999922
0.00999967
0.00999989
0.00999995
0.00999994
0.00999995
0.0100002
0.0100002
0.0100002
0.01
0.00999984
0.00999955
0.00999913
0.00999864
0.00999806
0.00999749
0.00999709
0.00999711
0.00999761
0.0099985
0.00999946
0.0100001
0.0100003
0.0100002
0.0100001
0.00999998
0.0100004
0.0100003
0.0100003
0.0100002
0.01
0.00999969
0.00999918
0.00999849
0.00999763
0.0099968
0.00999623
0.00999618
0.00999697
0.00999835
0.00999967
0.0100004
0.0100005
0.0100002
0.00999992
0.00999991
0.0100005
0.0100005
0.0100005
0.0100004
0.0100003
0.01
0.00999949
0.00999852
0.00999702
0.00999525
0.00999405
0.00999445
0.0099966
0.00999941
0.0100013
0.0100015
0.0100008
0.01
0.00999973
0.00999987
0.0100006
0.0100006
0.0100007
0.0100008
0.0100008
0.0100006
0.0100001
0.00999911
0.00999724
0.00999421
0.00999022
0.00999014
0.00999442
0.0100001
0.0100033
0.0100031
0.0100013
0.00999986
0.0099995
0.00999983
0.0100007
0.0100008
0.010001
0.0100012
0.0100015
0.0100017
0.0100012
0.0099993
0.00999536
0.00998958
0.00998687
0.00998967
0.00999797
0.0100036
0.0100044
0.0100024
0.0100003
0.00999937
0.00999946
0.00999988
0.0100007
0.0100008
0.0100011
0.0100016
0.0100024
0.0100038
0.0100056
0.0100076
0.0100047
0.00897835
0.00895232
0.00997576
0.0100088
0.0100178
0.0100104
0.0100023
0.00999888
0.00999893
0.00999981
0.0100002
0.0100006
0.0100007
0.010001
0.0100015
0.0100023
0.0100037
0.0100056
0.0100076
0.0100047
0.0089783
0.00895228
0.00997573
0.0100087
0.0100177
0.0100104
0.0100023
0.00999887
0.00999892
0.00999978
0.0100001
0.0100005
0.0100006
0.0100008
0.010001
0.0100013
0.0100015
0.010001
0.00999911
0.00999516
0.00998941
0.00998641
0.00998948
0.00999785
0.0100035
0.0100043
0.0100023
0.0100002
0.00999935
0.00999948
0.0099999
0.0100003
0.0100003
0.0100004
0.0100005
0.0100005
0.0100003
0.00999983
0.00999881
0.00999697
0.00999392
0.00999024
0.0099899
0.00999416
0.00999989
0.010003
0.0100029
0.0100011
0.00999979
0.00999948
0.00999983
0.01
0.01
0.01
0.00999998
0.00999986
0.00999958
0.00999904
0.00999807
0.00999658
0.00999485
0.00999364
0.00999406
0.00999627
0.00999911
0.010001
0.0100013
0.0100006
0.0099999
0.00999964
0.00999983
0.00999974
0.00999973
0.00999969
0.00999959
0.00999941
0.0099991
0.0099986
0.0099979
0.00999708
0.00999628
0.00999574
0.00999574
0.00999656
0.00999797
0.00999933
0.0100001
0.0100002
0.00999997
0.00999981
0.00999988
0.0099995
0.00999948
0.00999941
0.00999929
0.0099991
0.00999882
0.00999842
0.00999793
0.00999737
0.00999681
0.00999644
0.00999649
0.00999703
0.00999797
0.00999897
0.00999968
0.00999996
0.00999995
0.00999989
0.00999992
0.00999928
0.00999926
0.00999919
0.00999907
0.00999889
0.00999865
0.00999833
0.00999796
0.00999757
0.00999723
0.00999705
0.00999711
0.00999745
0.00999802
0.00999868
0.00999923
0.00999957
0.00999972
0.00999981
0.00999991
0.0099991
0.00999909
0.00999902
0.0099989
0.00999873
0.00999852
0.00999826
0.00999797
0.00999769
0.00999745
0.00999732
0.00999737
0.00999761
0.00999801
0.00999849
0.00999895
0.00999932
0.00999957
0.00999975
0.0099999
0.00999894
0.00999894
0.00999889
0.00999878
0.00999863
0.00999845
0.00999823
0.009998
0.00999778
0.00999761
0.00999752
0.00999756
0.00999774
0.00999805
0.00999845
0.00999885
0.00999921
0.00999949
0.00999971
0.0099999
0.00999881
0.00999881
0.00999876
0.00999865
0.0099985
0.00999832
0.00999812
0.0099979
0.00999771
0.00999756
0.00999749
0.00999754
0.0099977
0.00999798
0.00999832
0.00999869
0.00999903
0.00999933
0.0099996
0.00999985
)
;

boundaryField
{
    sides
    {
        type            zeroGradient;
    }
    inlet
    {
        type            zeroGradient;
    }
    outlet
    {
        type            fixedValue;
        value           uniform 0.01;
    }
    frontAndBack
    {
        type            empty;
    }
}


// ************************************************************************* //
