/*--------------------------------*- C++ -*----------------------------------*\
  =========                 |
  \\      /  F ield         | OpenFOAM: The Open Source CFD Toolbox
   \\    /   O peration     | Website:  https://openfoam.org
    \\  /    A nd           | Version:  9
     \\/     M anipulation  |
\*---------------------------------------------------------------------------*/
FoamFile
{
    format      ascii;
    class       surfaceScalarField;
    location    "38";
    object      phi;
}
// * * * * * * * * * * * * * * * * * * * * * * * * * * * * * * * * * * * * * //

dimensions      [0 4 -1 0 0 0 0];

internalField   nonuniform List<scalar> 
760
(
5e-06
-8.16247e-11
5.00026e-06
-3.38866e-10
5.00078e-06
-5.85568e-10
5.0015e-06
-7.70597e-10
5.00236e-06
-9.02654e-10
5.00333e-06
-1.00055e-09
5.00437e-06
-1.05162e-09
5.0054e-06
-1.02209e-09
5.00629e-06
-8.5564e-10
5.00687e-06
-5.36677e-10
5.00703e-06
-9.90979e-11
5.00661e-06
4.72267e-10
5.00575e-06
9.11946e-10
5.00468e-06
1.11457e-09
5.00357e-06
1.15448e-09
5.00266e-06
9.5032e-10
5.00194e-06
7.61084e-10
5.00165e-06
3.0545e-10
5.00156e-06
9.65136e-11
-4.11583e-10
5.00003e-06
-1.91882e-10
5.00032e-06
-6.96485e-10
5.00085e-06
-1.18148e-09
5.0016e-06
-1.56414e-09
5.00251e-06
-1.85681e-09
5.00358e-06
-2.08552e-09
5.00475e-06
-2.22626e-09
5.00595e-06
-2.20234e-09
5.00702e-06
-1.90232e-09
5.00773e-06
-1.19895e-09
5.00771e-06
-2.72615e-11
5.00723e-06
1.00506e-09
5.00623e-06
1.94979e-09
5.00495e-06
2.43276e-09
5.00372e-06
2.41177e-09
5.00285e-06
1.85188e-09
5.00232e-06
1.32155e-09
5.00197e-06
6.75401e-10
5.00172e-06
3.63556e-10
-1.92946e-10
5.00003e-06
-2.94266e-10
5.0003e-06
-1.0384e-09
5.00083e-06
-1.75925e-09
5.00159e-06
-2.36794e-09
5.00258e-06
-2.87305e-09
5.00378e-06
-3.30032e-09
5.00515e-06
-3.5889e-09
5.00657e-06
-3.60195e-09
5.00782e-06
-3.12371e-09
5.00866e-06
-2.00393e-09
5.00892e-06
-2.41119e-10
5.00822e-06
1.72638e-09
5.00685e-06
3.36181e-09
5.00516e-06
4.14817e-09
5.00355e-06
4.03085e-09
5.00239e-06
3.03286e-09
5.00173e-06
1.99397e-09
5.0015e-06
9.17847e-10
5.0015e-06
3.77956e-10
-2.68613e-10
5.00003e-06
-3.87421e-10
5.0003e-06
-1.36162e-09
5.00082e-06
-2.32545e-09
5.00161e-06
-3.1963e-09
5.00271e-06
-3.98499e-09
5.00413e-06
-4.71968e-09
5.00586e-06
-5.30146e-09
5.00781e-06
-5.54745e-09
5.00974e-06
-5.02622e-09
5.01101e-06
-3.24645e-09
5.01117e-06
-3.60404e-10
5.00998e-06
2.96028e-09
5.00764e-06
5.72587e-09
5.00516e-06
6.65592e-09
5.00352e-06
5.68892e-09
5.00276e-06
3.79191e-09
5.00254e-06
2.21198e-09
5.00238e-06
1.08311e-09
5.00207e-06
7.02014e-10
2.85184e-10
5.00003e-06
-4.63931e-10
5.00025e-06
-1.62475e-09
5.00071e-06
-2.82918e-09
5.00149e-06
-4.00503e-09
5.00271e-06
-5.20368e-09
5.00443e-06
-6.42677e-09
5.00665e-06
-7.52612e-09
5.00929e-06
-8.16323e-09
5.01229e-06
-8.00649e-09
5.01475e-06
-5.64816e-09
5.01478e-06
-3.66024e-10
5.01283e-06
4.95133e-09
5.00867e-06
9.92169e-09
5.00462e-06
1.07286e-08
5.00229e-06
8.03308e-09
5.00181e-06
4.27624e-09
5.0021e-06
1.9128e-09
5.00229e-06
8.90788e-10
5.00206e-06
9.29622e-10
5.62857e-10
5.00001e-06
-5.03978e-10
5.00013e-06
-1.77598e-09
5.00042e-06
-3.15886e-09
5.00106e-06
-4.66561e-09
5.00226e-06
-6.39372e-09
5.00437e-06
-8.54166e-09
5.00746e-06
-1.06068e-08
5.01156e-06
-1.2232e-08
5.01543e-06
-1.18421e-08
5.01892e-06
-9.10927e-09
5.02019e-06
-1.5746e-09
5.01602e-06
9.11612e-09
5.00954e-06
1.64328e-08
5.00425e-06
1.60409e-08
5.00221e-06
1.00896e-08
5.00254e-06
3.95378e-09
5.00333e-06
1.11681e-09
5.00347e-06
7.35459e-10
5.00287e-06
1.52587e-09
1.36655e-09
4.99997e-06
-4.87547e-10
4.99989e-06
-1.72051e-09
4.99993e-06
-3.22126e-09
5.00022e-06
-4.96844e-09
5.00107e-06
-7.24692e-09
5.00278e-06
-1.02503e-08
5.00667e-06
-1.44928e-08
5.01381e-06
-1.93444e-08
5.02367e-06
-2.16676e-08
5.03088e-06
-1.6304e-08
5.02869e-06
6.34542e-10
5.01674e-06
2.11353e-08
5.0042e-06
2.89594e-08
4.99877e-06
2.14753e-08
5.00061e-06
8.25112e-09
5.00288e-06
1.68482e-09
5.00378e-06
2.31173e-10
5.00374e-06
7.57762e-10
5.00312e-06
2.13356e-09
1.63188e-09
4.99987e-06
-3.613e-10
4.99952e-06
-1.38448e-09
4.99903e-06
-2.74934e-09
4.99871e-06
-4.66124e-09
4.99918e-06
-7.7157e-09
5.00022e-06
-1.12989e-08
5.00354e-06
-1.78036e-08
5.00974e-06
-2.55223e-08
5.02477e-06
-3.67032e-08
5.05609e-06
-4.7463e-08
5.04996e-06
6.05287e-09
5.02321e-06
4.79137e-08
4.99826e-06
5.39484e-08
4.99357e-06
2.61683e-08
4.99952e-06
2.29158e-09
5.00411e-06
-2.91606e-09
5.00496e-06
-6.48207e-10
5.00381e-06
1.89626e-09
5.00358e-06
2.34199e-09
9.3432e-10
4.99979e-06
-1.41338e-10
4.99914e-06
-7.42353e-10
4.99783e-06
-1.45863e-09
4.99597e-06
-2.8069e-09
4.99386e-06
-5.61921e-09
4.9936e-06
-1.10413e-08
4.99934e-06
-2.35464e-08
5.01705e-06
-4.3224e-08
5.05564e-06
-7.52586e-08
5.0667e-06
-5.86241e-08
5.04974e-06
2.37723e-08
4.99652e-06
1.01147e-07
4.98937e-06
6.10841e-08
4.99598e-06
1.956e-08
5.00024e-06
-1.97846e-09
5.00295e-06
-5.6522e-09
5.00257e-06
-2.92254e-10
5.00194e-06
2.51614e-09
5.00263e-06
1.6363e-09
6.23503e-11
4.99988e-06
-1.44186e-11
4.9992e-06
-5.81605e-11
4.99784e-06
-1.05141e-10
4.99517e-06
-1.56458e-10
4.98974e-06
-2.05243e-10
4.97895e-06
-2.61061e-10
4.95573e-06
-3.14846e-10
4.91287e-06
-3.70574e-10
4.83805e-06
-4.19897e-10
4.7799e-06
-4.38573e-10
4.80427e-06
-5.48618e-10
4.90607e-06
-6.88684e-10
4.96789e-06
-6.95714e-10
4.98832e-06
-8.7686e-10
4.98749e-06
-1.16979e-09
4.98328e-06
-1.46537e-09
4.9846e-06
-1.61437e-09
4.98899e-06
-1.88113e-09
4.99256e-06
-1.94276e-09
-2.58481e-09
4.99988e-06
1.12012e-10
4.9992e-06
6.24656e-10
4.99783e-06
1.25364e-09
4.99516e-06
2.49864e-09
4.98971e-06
5.21679e-09
4.97892e-06
1.05306e-08
4.95568e-06
2.29363e-08
4.91282e-06
4.24999e-08
4.83796e-06
7.44528e-08
4.77968e-06
5.78547e-08
4.8042e-06
-2.51036e-08
4.90603e-06
-1.02477e-07
4.96785e-06
-6.2537e-08
4.98815e-06
-2.11942e-08
4.98739e-06
-4.4223e-10
4.98294e-06
2.95686e-09
4.98447e-06
-3.15503e-09
4.98897e-06
-6.39056e-09
4.99244e-06
-5.40645e-09
-4.9682e-09
4.99979e-06
3.29888e-10
4.99914e-06
1.27007e-09
4.99784e-06
2.54111e-09
4.99597e-06
4.35377e-09
4.99387e-06
7.30121e-09
4.99359e-06
1.07936e-08
4.99932e-06
1.72244e-08
5.01699e-06
2.48496e-08
5.05555e-06
3.59117e-08
5.0671e-06
4.63658e-08
5.04939e-06
-8.69575e-09
4.99611e-06
-4.92016e-08
4.98893e-06
-5.53441e-08
4.99578e-06
-2.80557e-08
5.00016e-06
-4.83952e-09
5.00232e-06
7.71121e-10
5.0017e-06
-2.53586e-09
5.00099e-06
-5.68455e-09
5.00177e-06
-6.18154e-09
-5.9155e-09
4.99987e-06
4.54351e-10
4.99952e-06
1.60787e-09
4.99903e-06
3.02123e-09
4.9987e-06
4.67375e-09
4.99912e-06
6.86469e-09
5.00013e-06
9.78124e-09
5.00337e-06
1.39899e-08
5.00951e-06
1.87252e-08
5.02451e-06
2.09555e-08
5.05539e-06
1.54489e-08
5.04978e-06
-1.67839e-09
5.02288e-06
-2.22854e-08
4.99796e-06
-3.04111e-08
4.99324e-06
-2.33354e-08
4.99869e-06
-1.02986e-08
5.0035e-06
-4.03653e-09
5.00377e-06
-2.81621e-09
5.00243e-06
-4.35514e-09
5.00223e-06
-5.99309e-09
-6.48759e-09
4.99997e-06
4.70159e-10
4.99989e-06
1.6694e-09
4.99991e-06
2.97564e-09
5.00017e-06
4.40041e-09
5.00099e-06
6.05309e-09
5.00266e-06
8.11707e-09
5.00655e-06
1.00957e-08
5.01367e-06
1.16255e-08
5.02347e-06
1.11716e-08
5.03065e-06
8.34017e-09
5.02837e-06
5.87897e-10
5.01628e-06
-1.01639e-08
5.00357e-06
-1.76623e-08
4.99784e-06
-1.76049e-08
4.99947e-06
-1.1922e-08
5.00166e-06
-6.224e-09
5.00246e-06
-3.63377e-09
5.0022e-06
-4.10989e-09
5.00126e-06
-5.05742e-09
-5.9202e-09
5.00001e-06
4.3046e-10
5.00012e-06
1.52876e-09
5.0004e-06
2.66854e-09
5.00102e-06
3.77231e-09
5.00217e-06
4.89964e-09
5.00425e-06
6.05293e-09
5.00728e-06
7.07761e-09
5.01128e-06
7.64235e-09
5.01504e-06
7.43279e-09
5.01847e-06
4.93666e-09
5.01953e-06
-4.33819e-10
5.01524e-06
-5.83997e-09
5.00859e-06
-1.09891e-08
5.00317e-06
-1.2173e-08
5.00094e-06
-9.68348e-09
5.00107e-06
-6.35864e-09
5.00161e-06
-4.19374e-09
5.00137e-06
-3.88244e-09
5.0004e-06
-4.09393e-09
-4.917e-09
5.00003e-06
3.5584e-10
5.00024e-06
1.2802e-09
5.00069e-06
2.19305e-09
5.00144e-06
3.00144e-09
5.00261e-06
3.72968e-09
5.00426e-06
4.41121e-09
5.00641e-06
4.94598e-09
5.00896e-06
5.11489e-09
5.01193e-06
4.4972e-09
5.01432e-06
2.56523e-09
5.01413e-06
-2.0709e-10
5.0121e-06
-3.79099e-09
5.00779e-06
-6.65567e-09
5.00354e-06
-7.90837e-09
5.001e-06
-7.13598e-09
5.0002e-06
-5.56769e-09
5.00016e-06
-4.15812e-09
4.99991e-06
-3.63869e-09
4.99921e-06
-3.38594e-09
-4.11485e-09
5.00003e-06
2.6566e-10
5.0003e-06
9.73676e-10
5.0008e-06
1.65918e-09
5.00155e-06
2.21695e-09
5.0026e-06
2.67043e-09
5.00397e-06
3.04718e-09
5.00563e-06
3.30257e-09
5.00749e-06
3.28758e-09
5.00923e-06
2.79449e-09
5.01023e-06
1.6028e-09
5.0104e-06
-3.48364e-10
5.00902e-06
-2.37227e-09
5.00651e-06
-4.12516e-09
5.00372e-06
-5.09803e-09
5.00161e-06
-5.01886e-09
5.00042e-06
-4.36889e-09
4.99976e-06
-3.49483e-09
4.9992e-06
-3.07067e-09
4.99849e-06
-2.65643e-09
-3.16378e-09
5.00003e-06
1.75979e-10
5.0003e-06
6.47931e-10
5.00082e-06
1.10109e-09
5.00155e-06
1.4489e-09
5.00248e-06
1.71073e-09
5.00362e-06
1.90812e-09
5.00492e-06
2.01653e-09
5.00629e-06
1.94589e-09
5.00754e-06
1.59186e-09
5.00833e-06
8.60442e-10
5.0082e-06
-1.7763e-10
5.00734e-06
-1.46466e-09
5.00571e-06
-2.45981e-09
5.00371e-06
-3.07103e-09
5.00186e-06
-3.13982e-09
5.00042e-06
-2.91499e-09
4.99938e-06
-2.43794e-09
4.99855e-06
-2.22304e-09
4.99776e-06
-1.84742e-09
-2.23789e-09
5e-06
1.01839e-10
5.00025e-06
3.337e-10
5.00075e-06
5.55224e-10
5.00144e-06
7.2137e-10
5.00228e-06
8.40182e-10
5.00325e-06
9.26468e-10
5.0043e-06
9.69673e-10
5.00534e-06
9.31713e-10
5.00622e-06
7.55593e-10
5.00675e-06
3.76799e-10
5.00679e-06
-1.59463e-10
5.00606e-06
-6.79832e-10
5.00478e-06
-1.1366e-09
5.00318e-06
-1.43779e-09
5.00157e-06
-1.48893e-09
5.00013e-06
-1.44499e-09
4.99896e-06
-1.24041e-09
4.99795e-06
-1.19822e-09
4.99709e-06
-9.83858e-10
-1.40357e-09
5.00003e-06
5.00029e-06
5.00079e-06
5.00148e-06
5.00229e-06
5.00321e-06
5.00418e-06
5.00512e-06
5.00592e-06
5.00634e-06
5.00624e-06
5.00561e-06
5.00453e-06
5.00313e-06
5.00168e-06
5.00028e-06
4.99907e-06
4.99788e-06
4.99689e-06
)
;

boundaryField
{
    sides
    {
        type            calculated;
        value           uniform 0;
    }
    inlet
    {
        type            calculated;
        value           nonuniform List<scalar> 
20
(
-5e-06
-5e-06
-5e-06
-5e-06
-5e-06
-5e-06
-5e-06
-5e-06
-5e-06
-5e-06
-5e-06
-5e-06
-5e-06
-5e-06
-5e-06
-5e-06
-5e-06
-5e-06
-5e-06
-5e-06
)
;
    }
    outlet
    {
        type            calculated;
        value           nonuniform List<scalar> 
20
(
5.00198e-06
5.0015e-06
5.00158e-06
5.00152e-06
5.00179e-06
5.00206e-06
5.00285e-06
5.00428e-06
5.0035e-06
4.99521e-06
4.99482e-06
5.00271e-06
5.0028e-06
5.00069e-06
4.9994e-06
4.99841e-06
4.99754e-06
4.99684e-06
4.99626e-06
4.99549e-06
)
;
    }
    frontAndBack
    {
        type            empty;
        value           nonuniform List<scalar> 0();
    }
}


// ************************************************************************* //
