/*--------------------------------*- C++ -*----------------------------------*\
  =========                 |
  \\      /  F ield         | OpenFOAM: The Open Source CFD Toolbox
   \\    /   O peration     | Website:  https://openfoam.org
    \\  /    A nd           | Version:  9
     \\/     M anipulation  |
\*---------------------------------------------------------------------------*/
FoamFile
{
    format      ascii;
    class       volVectorField;
    location    "5";
    object      ddt0(hU);
}
// * * * * * * * * * * * * * * * * * * * * * * * * * * * * * * * * * * * * * //

dimensions      [0 2 -2 0 0 0 0];

internalField   nonuniform List<vector> 
400
(
(3.60982e-08 -4.23283e-07 0)
(-7.02191e-07 -2.85658e-07 0)
(-3.37837e-06 -6.18025e-07 0)
(-3.42296e-06 -5.87495e-07 0)
(-2.77857e-07 1.39922e-07 0)
(4.68395e-06 4.97439e-07 0)
(6.47938e-06 -1.63403e-07 0)
(1.87261e-06 -6.11868e-07 0)
(-3.39717e-06 4.53478e-08 0)
(-1.41738e-06 1.5082e-06 0)
(5.59558e-06 1.52804e-06 0)
(9.65463e-06 -7.16341e-09 0)
(7.35201e-06 -7.59627e-07 0)
(1.96796e-06 -6.29039e-07 0)
(-5.70911e-06 -1.31955e-06 0)
(-1.36837e-05 -9.20164e-07 0)
(-1.46175e-05 2.52941e-07 0)
(-9.89729e-06 1.3617e-08 0)
(-5.57073e-06 4.58874e-07 0)
(1.92943e-06 6.01495e-07 0)
(-1.84806e-07 -1.11392e-06 0)
(-7.91102e-07 -6.05163e-07 0)
(-2.86663e-06 -1.52656e-06 0)
(-2.59231e-06 -1.6407e-06 0)
(1.67446e-07 2.42815e-07 0)
(3.97817e-06 1.44214e-06 0)
(5.88933e-06 -2.58486e-07 0)
(2.67309e-06 -1.59015e-06 0)
(-1.24929e-06 3.0508e-07 0)
(-2.66773e-07 4.16494e-06 0)
(4.23921e-06 4.19196e-06 0)
(7.09252e-06 2.69358e-07 0)
(5.7783e-06 -2.07115e-06 0)
(6.95313e-07 -1.98236e-06 0)
(-5.8278e-06 -3.26582e-06 0)
(-1.18671e-05 -2.14356e-06 0)
(-1.34463e-05 8.84339e-07 0)
(-9.2271e-06 5.25397e-07 0)
(-4.42322e-06 1.40646e-06 0)
(1.33758e-06 1.55965e-06 0)
(-3.03806e-07 -1.37766e-06 0)
(-8.30319e-07 -3.76264e-07 0)
(-2.18985e-06 -1.98911e-06 0)
(-1.57942e-06 -2.37582e-06 0)
(7.33528e-07 3.20084e-07 0)
(2.96962e-06 2.20949e-06 0)
(4.52782e-06 7.0953e-07 0)
(4.04037e-06 -1.32975e-06 0)
(2.22261e-06 7.24302e-07 0)
(1.61885e-06 4.92194e-06 0)
(1.83468e-06 4.88423e-06 0)
(2.45633e-06 2.79529e-07 0)
(2.69746e-06 -3.05174e-06 0)
(-7.1267e-07 -3.45638e-06 0)
(-5.43447e-06 -4.28521e-06 0)
(-9.11495e-06 -2.60259e-06 0)
(-1.10879e-05 1.08284e-06 0)
(-8.4179e-06 1.52941e-06 0)
(-3.37488e-06 2.21043e-06 0)
(4.65104e-07 1.79831e-06 0)
(3.01783e-08 -7.37071e-07 0)
(-7.04447e-07 5.37438e-07 0)
(-1.52999e-06 -2.07941e-06 0)
(-6.24713e-07 -2.69402e-06 0)
(1.07338e-06 7.40834e-07 0)
(2.64297e-06 3.2422e-06 0)
(3.7639e-06 2.34672e-06 0)
(4.78596e-06 -1.08563e-07 0)
(4.3456e-06 7.36047e-07 0)
(2.2192e-06 3.34911e-06 0)
(-8.03853e-07 3.24767e-06 0)
(-2.1986e-06 -4.80698e-07 0)
(-8.60574e-07 -3.71826e-06 0)
(-1.45297e-06 -4.74271e-06 0)
(-4.26983e-06 -4.44399e-06 0)
(-5.67293e-06 -2.02019e-06 0)
(-8.02523e-06 1.43503e-06 0)
(-7.15933e-06 2.99013e-06 0)
(-2.98159e-06 3.08542e-06 0)
(-6.63069e-07 1.68447e-06 0)
(1.18348e-07 8.62256e-07 0)
(-7.9362e-07 2.18396e-06 0)
(-1.33041e-06 -1.38563e-06 0)
(4.45735e-07 -2.17472e-06 0)
(2.02033e-06 1.53677e-06 0)
(2.44236e-06 4.25663e-06 0)
(2.67834e-06 3.55159e-06 0)
(4.4321e-06 6.19608e-07 0)
(4.78672e-06 -3.69884e-07 0)
(1.84975e-06 4.15056e-07 0)
(-2.94627e-06 -1.90837e-07 0)
(-5.77328e-06 -2.27094e-06 0)
(-3.50757e-06 -4.05654e-06 0)
(-1.4685e-06 -5.08975e-06 0)
(-1.72797e-06 -3.84718e-06 0)
(-2.02762e-06 -9.40839e-07 0)
(-4.21154e-06 1.57038e-06 0)
(-6.07086e-06 3.5344e-06 0)
(-3.60569e-06 3.47006e-06 0)
(-2.14182e-06 1.48092e-06 0)
(3.87929e-07 3.57738e-06 0)
(-1.06885e-06 4.65789e-06 0)
(-1.18675e-06 5.9655e-07 0)
(1.24223e-06 -1.1319e-07 0)
(2.68702e-06 2.6804e-06 0)
(2.10168e-06 4.60188e-06 0)
(1.29338e-06 3.68621e-06 0)
(2.54165e-06 3.64264e-07 0)
(3.51965e-06 -2.37296e-06 0)
(5.88446e-07 -3.58322e-06 0)
(-5.32958e-06 -3.90906e-06 0)
(-7.06296e-06 -4.03896e-06 0)
(-4.10471e-06 -3.92408e-06 0)
(-3.34204e-07 -3.96419e-06 0)
(1.02335e-06 -2.2589e-06 0)
(1.22177e-06 6.12339e-08 0)
(-1.38064e-06 1.62224e-06 0)
(-4.41776e-06 3.07939e-06 0)
(-3.80903e-06 3.15448e-06 0)
(-3.29216e-06 1.23182e-06 0)
(2.18397e-07 6.63568e-06 0)
(-1.39493e-06 7.27577e-06 0)
(-6.44649e-07 3.24368e-06 0)
(1.53449e-06 2.08442e-06 0)
(2.31903e-06 3.37885e-06 0)
(1.0403e-06 4.2481e-06 0)
(-7.74702e-07 2.74262e-06 0)
(-4.47253e-07 -5.0214e-07 0)
(1.13777e-06 -4.10364e-06 0)
(-4.0682e-07 -6.74643e-06 0)
(-4.84539e-06 -6.64513e-06 0)
(-6.64284e-06 -5.2895e-06 0)
(-3.12184e-06 -3.91992e-06 0)
(1.75199e-06 -2.87589e-06 0)
(3.79724e-06 -6.04158e-07 0)
(3.88156e-06 1.52472e-06 0)
(8.93276e-07 1.92081e-06 0)
(-3.45928e-06 2.47888e-06 0)
(-4.11874e-06 2.31671e-06 0)
(-4.22996e-06 1.01839e-06 0)
(-3.56675e-07 8.18236e-06 0)
(-1.5072e-06 8.4944e-06 0)
(-7.91983e-07 4.87977e-06 0)
(3.66784e-07 3.16149e-06 0)
(1.2383e-06 3.1369e-06 0)
(-5.5085e-07 3.05014e-06 0)
(-3.05421e-06 1.34669e-06 0)
(-3.2978e-06 -1.41512e-06 0)
(-1.39858e-06 -4.66245e-06 0)
(-1.20509e-06 -7.45048e-06 0)
(-3.80311e-06 -8.60702e-06 0)
(-5.08562e-06 -5.96717e-06 0)
(-1.28802e-06 -3.45756e-06 0)
(4.37591e-06 -1.74023e-06 0)
(7.22151e-06 8.83014e-08 0)
(5.50536e-06 1.79737e-06 0)
(1.02005e-06 1.43923e-06 0)
(-3.22508e-06 1.65495e-06 0)
(-4.27057e-06 1.4992e-06 0)
(-4.66988e-06 6.08515e-07 0)
(-9.60427e-07 6.9817e-06 0)
(-1.68577e-06 7.03264e-06 0)
(-1.27307e-06 4.40928e-06 0)
(-1.03114e-06 2.81041e-06 0)
(-4.42526e-07 2.4076e-06 0)
(-2.30002e-06 1.38404e-06 0)
(-5.09765e-06 -2.43901e-07 0)
(-5.26098e-06 -1.46205e-06 0)
(-2.86921e-06 -4.29452e-06 0)
(-2.33235e-06 -6.91483e-06 0)
(-2.08769e-06 -6.71893e-06 0)
(-1.72876e-06 -4.73097e-06 0)
(1.40709e-06 -3.70065e-06 0)
(6.70195e-06 -2.07023e-06 0)
(8.98315e-06 9.6944e-07 0)
(6.69086e-06 1.97166e-06 0)
(1.84473e-06 1.32169e-06 0)
(-3.09019e-06 5.71171e-07 0)
(-4.79163e-06 3.11047e-07 0)
(-5.27621e-06 2.70197e-07 0)
(-1.4903e-06 2.75856e-06 0)
(-1.85848e-06 2.77284e-06 0)
(-1.5792e-06 1.7361e-06 0)
(-2.30809e-06 1.06243e-06 0)
(-1.42509e-06 1.00683e-06 0)
(-3.44984e-06 2.54237e-07 0)
(-7.05045e-06 -4.37971e-07 0)
(-6.32868e-06 -5.59751e-07 0)
(-3.07703e-06 -2.01538e-06 0)
(-2.72234e-06 -2.95439e-06 0)
(-2.58282e-06 -1.5323e-06 0)
(4.15873e-07 -1.83793e-06 0)
(4.46376e-06 -2.62214e-06 0)
(7.41531e-06 -1.57993e-06 0)
(7.55843e-06 1.38199e-06 0)
(6.47662e-06 1.74887e-06 0)
(4.397e-06 5.22677e-07 0)
(-3.8727e-07 -7.1987e-07 0)
(-5.09732e-06 -1.07905e-06 0)
(-7.10927e-06 -2.99288e-07 0)
(-1.46009e-06 -2.76878e-06 0)
(-1.81916e-06 -2.82933e-06 0)
(-1.62261e-06 -1.85653e-06 0)
(-2.29137e-06 -1.18864e-06 0)
(-1.4541e-06 -1.02058e-06 0)
(-3.53427e-06 -2.02325e-07 0)
(-7.05271e-06 4.89851e-07 0)
(-6.32132e-06 5.79189e-07 0)
(-3.06341e-06 1.96866e-06 0)
(-2.72548e-06 2.93977e-06 0)
(-2.53453e-06 1.49946e-06 0)
(4.30068e-07 1.82031e-06 0)
(4.4235e-06 2.4796e-06 0)
(7.43688e-06 1.3342e-06 0)
(7.60512e-06 -1.76541e-06 0)
(6.2902e-06 -2.29667e-06 0)
(4.20675e-06 -7.51915e-07 0)
(-3.39592e-07 5.34295e-07 0)
(-5.02416e-06 9.14069e-07 0)
(-7.10573e-06 1.79178e-07 0)
(-9.7847e-07 -6.99128e-06 0)
(-1.64948e-06 -7.15289e-06 0)
(-1.34909e-06 -4.56784e-06 0)
(-1.14193e-06 -2.91598e-06 0)
(-4.60837e-07 -2.57596e-06 0)
(-2.39293e-06 -1.40199e-06 0)
(-5.15943e-06 3.19682e-07 0)
(-5.24486e-06 1.53556e-06 0)
(-2.83363e-06 4.34037e-06 0)
(-2.27526e-06 6.90716e-06 0)
(-1.94011e-06 6.579e-06 0)
(-1.68746e-06 4.53901e-06 0)
(1.31355e-06 3.49338e-06 0)
(6.50147e-06 1.75263e-06 0)
(8.76821e-06 -1.38059e-06 0)
(7.21308e-06 -2.11157e-06 0)
(2.14054e-06 -1.22751e-06 0)
(-3.11911e-06 -6.06098e-07 0)
(-4.80356e-06 -4.72231e-07 0)
(-5.24711e-06 -4.39412e-07 0)
(-3.47505e-07 -8.23176e-06 0)
(-1.55531e-06 -8.63692e-06 0)
(-8.3004e-07 -4.97394e-06 0)
(2.64782e-07 -3.25753e-06 0)
(1.05554e-06 -3.22356e-06 0)
(-5.83625e-07 -2.99371e-06 0)
(-3.09515e-06 -1.14052e-06 0)
(-3.27171e-06 1.63593e-06 0)
(-1.35765e-06 4.81983e-06 0)
(-1.24609e-06 7.425e-06 0)
(-3.86877e-06 8.50086e-06 0)
(-4.93186e-06 5.7138e-06 0)
(-1.2688e-06 3.21377e-06 0)
(4.35728e-06 1.58438e-06 0)
(7.23724e-06 -1.25152e-07 0)
(5.77259e-06 -1.6047e-06 0)
(1.30525e-06 -1.80637e-06 0)
(-3.41977e-06 -1.88628e-06 0)
(-4.37387e-06 -1.66013e-06 0)
(-4.51568e-06 -6.90537e-07 0)
(1.6691e-07 -6.74693e-06 0)
(-1.37376e-06 -7.38751e-06 0)
(-6.87783e-07 -3.28819e-06 0)
(1.33302e-06 -2.20535e-06 0)
(2.21724e-06 -3.33599e-06 0)
(1.06757e-06 -4.14233e-06 0)
(-8.03712e-07 -2.54882e-06 0)
(-4.61536e-07 7.17655e-07 0)
(1.12233e-06 4.23038e-06 0)
(-4.42205e-07 6.66227e-06 0)
(-4.89112e-06 6.49758e-06 0)
(-6.78806e-06 5.07005e-06 0)
(-3.13477e-06 3.73052e-06 0)
(1.81624e-06 2.83642e-06 0)
(3.92807e-06 7.3223e-07 0)
(3.66921e-06 -1.66362e-06 0)
(7.15239e-07 -2.13748e-06 0)
(-3.37307e-06 -2.54592e-06 0)
(-3.9512e-06 -2.35707e-06 0)
(-4.06946e-06 -1.03955e-06 0)
(4.12973e-07 -3.68094e-06 0)
(-1.04749e-06 -4.73148e-06 0)
(-1.14409e-06 -7.03106e-07 0)
(1.24298e-06 -6.92826e-08 0)
(2.69283e-06 -2.73206e-06 0)
(2.07797e-06 -4.57486e-06 0)
(1.22606e-06 -3.59036e-06 0)
(2.43794e-06 -2.2509e-07 0)
(3.46482e-06 2.42817e-06 0)
(5.30158e-07 3.51955e-06 0)
(-5.35874e-06 3.6318e-06 0)
(-7.07688e-06 3.86498e-06 0)
(-4.06166e-06 3.92311e-06 0)
(-1.85324e-07 3.98518e-06 0)
(1.14432e-06 2.30311e-06 0)
(1.2918e-06 -5.80078e-08 0)
(-1.17708e-06 -1.49328e-06 0)
(-4.32679e-06 -3.10689e-06 0)
(-3.84503e-06 -3.09674e-06 0)
(-3.17228e-06 -1.28966e-06 0)
(1.418e-07 -8.55292e-07 0)
(-8.39002e-07 -2.25687e-06 0)
(-1.4069e-06 1.18795e-06 0)
(2.32804e-07 2.01518e-06 0)
(2.00757e-06 -1.68121e-06 0)
(2.38882e-06 -4.28631e-06 0)
(2.68243e-06 -3.60479e-06 0)
(4.35947e-06 -6.49976e-07 0)
(4.69413e-06 2.99851e-07 0)
(1.72048e-06 -5.40915e-07 0)
(-2.96497e-06 1.3302e-07 0)
(-5.58307e-06 2.0616e-06 0)
(-3.2807e-06 3.97716e-06 0)
(-1.40379e-06 5.11692e-06 0)
(-1.61517e-06 3.62656e-06 0)
(-1.87184e-06 9.22551e-07 0)
(-4.30652e-06 -1.56964e-06 0)
(-5.75866e-06 -3.61883e-06 0)
(-3.47851e-06 -3.5195e-06 0)
(-2.11613e-06 -1.54248e-06 0)
(4.8104e-08 7.75437e-07 0)
(-7.86763e-07 -5.24048e-07 0)
(-1.68501e-06 2.00432e-06 0)
(-7.12837e-07 2.70997e-06 0)
(9.73266e-07 -8.22218e-07 0)
(2.43226e-06 -3.40613e-06 0)
(3.58627e-06 -2.43669e-06 0)
(4.68901e-06 3.32469e-08 0)
(4.2283e-06 -7.66192e-07 0)
(2.24181e-06 -3.38073e-06 0)
(-9.20535e-07 -3.26745e-06 0)
(-2.18171e-06 5.20565e-07 0)
(-5.7556e-07 3.73917e-06 0)
(-1.44734e-06 4.82026e-06 0)
(-4.24436e-06 4.39257e-06 0)
(-5.72327e-06 2.02555e-06 0)
(-7.76763e-06 -1.36384e-06 0)
(-7.16812e-06 -2.95516e-06 0)
(-2.99009e-06 -3.18275e-06 0)
(-6.18693e-07 -1.60334e-06 0)
(-3.05643e-07 1.37289e-06 0)
(-8.65477e-07 4.33698e-07 0)
(-2.32634e-06 2.08987e-06 0)
(-1.80182e-06 2.41292e-06 0)
(3.57619e-07 -3.63437e-07 0)
(2.81414e-06 -2.29627e-06 0)
(4.54211e-06 -8.03843e-07 0)
(4.17612e-06 1.20017e-06 0)
(2.23847e-06 -8.65809e-07 0)
(1.42364e-06 -4.71379e-06 0)
(1.9744e-06 -4.58125e-06 0)
(2.72012e-06 7.55711e-10 0)
(2.71854e-06 2.96362e-06 0)
(-6.17333e-07 3.20176e-06 0)
(-5.41716e-06 4.36673e-06 0)
(-8.80033e-06 2.40328e-06 0)
(-1.11013e-05 -1.22053e-06 0)
(-8.61699e-06 -1.65501e-06 0)
(-3.19119e-06 -2.30539e-06 0)
(5.32588e-07 -1.80872e-06 0)
(-1.48733e-07 1.11773e-06 0)
(-7.77195e-07 6.18981e-07 0)
(-2.9927e-06 1.4712e-06 0)
(-2.8267e-06 1.5397e-06 0)
(-9.79868e-08 -2.29509e-07 0)
(3.59923e-06 -1.33888e-06 0)
(5.54252e-06 3.54774e-07 0)
(2.52367e-06 1.61977e-06 0)
(-8.25618e-07 -4.02668e-07 0)
(3.96767e-07 -4.304e-06 0)
(4.40131e-06 -4.13759e-06 0)
(6.63888e-06 -2.77959e-07 0)
(5.74103e-06 1.93612e-06 0)
(7.97537e-07 1.68686e-06 0)
(-5.78248e-06 3.33689e-06 0)
(-1.20176e-05 1.91806e-06 0)
(-1.34012e-05 -1.10053e-06 0)
(-9.27093e-06 -5.31986e-07 0)
(-4.36769e-06 -1.44528e-06 0)
(1.31589e-06 -1.77029e-06 0)
(1.33378e-08 4.32355e-07 0)
(-8.53287e-07 2.68561e-07 0)
(-3.524e-06 5.18198e-07 0)
(-3.48167e-06 4.69346e-07 0)
(-3.65025e-07 -1.1998e-07 0)
(4.54098e-06 -4.50143e-07 0)
(6.28979e-06 3.59329e-07 0)
(1.64241e-06 7.69026e-07 0)
(-3.65715e-06 -2.70255e-09 0)
(-1.46545e-06 -1.88597e-06 0)
(5.78323e-06 -1.98638e-06 0)
(1.00438e-05 -2.48562e-07 0)
(7.33446e-06 6.98027e-07 0)
(1.87446e-06 4.88452e-07 0)
(-5.70774e-06 1.21103e-06 0)
(-1.36963e-05 8.03268e-07 0)
(-1.45514e-05 -4.22251e-07 0)
(-9.701e-06 -4.16202e-08 0)
(-5.63007e-06 -5.26013e-07 0)
(1.96935e-06 -8.09036e-07 0)
)
;

boundaryField
{
    sides
    {
        type            calculated;
        value           nonuniform List<vector> 
40
(
(1.33378e-08 0 0)
(-8.53287e-07 0 0)
(-3.524e-06 0 0)
(-3.48167e-06 0 0)
(-3.65025e-07 0 0)
(4.54098e-06 0 0)
(6.28979e-06 0 0)
(1.64241e-06 0 0)
(-3.65715e-06 0 0)
(-1.46545e-06 0 0)
(5.78323e-06 0 0)
(1.00438e-05 0 0)
(7.33446e-06 0 0)
(1.87446e-06 0 0)
(-5.70774e-06 0 0)
(-1.36963e-05 0 0)
(-1.45514e-05 0 0)
(-9.701e-06 0 0)
(-5.63007e-06 0 0)
(1.96935e-06 0 0)
(3.60982e-08 0 0)
(-7.02191e-07 0 0)
(-3.37837e-06 0 0)
(-3.42296e-06 0 0)
(-2.77857e-07 0 0)
(4.68395e-06 0 0)
(6.47938e-06 0 0)
(1.87261e-06 0 0)
(-3.39717e-06 0 0)
(-1.41738e-06 0 0)
(5.59558e-06 0 0)
(9.65463e-06 0 0)
(7.35201e-06 0 0)
(1.96796e-06 0 0)
(-5.70911e-06 0 0)
(-1.36837e-05 0 0)
(-1.46175e-05 0 0)
(-9.89729e-06 0 0)
(-5.57073e-06 0 0)
(1.92943e-06 0 0)
)
;
    }
    inlet
    {
        type            calculated;
        value           uniform (0 0 0);
    }
    outlet
    {
        type            calculated;
        value           nonuniform List<vector> 
20
(
(1.92943e-06 6.01495e-07 0)
(1.33758e-06 1.55965e-06 0)
(4.65104e-07 1.79831e-06 0)
(-6.63069e-07 1.68447e-06 0)
(-2.14182e-06 1.48092e-06 0)
(-3.29216e-06 1.23182e-06 0)
(-4.22996e-06 1.01839e-06 0)
(-4.66988e-06 6.08515e-07 0)
(-5.27621e-06 2.70197e-07 0)
(-7.10927e-06 -2.99288e-07 0)
(-7.10573e-06 1.79178e-07 0)
(-5.24711e-06 -4.39412e-07 0)
(-4.51568e-06 -6.90537e-07 0)
(-4.06946e-06 -1.03955e-06 0)
(-3.17228e-06 -1.28966e-06 0)
(-2.11613e-06 -1.54248e-06 0)
(-6.18693e-07 -1.60334e-06 0)
(5.32588e-07 -1.80872e-06 0)
(1.31589e-06 -1.77029e-06 0)
(1.96935e-06 -8.09036e-07 0)
)
;
    }
    frontAndBack
    {
        type            empty;
    }
}


// ************************************************************************* //
