/*--------------------------------*- C++ -*----------------------------------*\
  =========                 |
  \\      /  F ield         | OpenFOAM: The Open Source CFD Toolbox
   \\    /   O peration     | Website:  https://openfoam.org
    \\  /    A nd           | Version:  9
     \\/     M anipulation  |
\*---------------------------------------------------------------------------*/
FoamFile
{
    format      ascii;
    class       surfaceScalarField;
    location    "5";
    object      ddtCorrDdt0(phi);
}
// * * * * * * * * * * * * * * * * * * * * * * * * * * * * * * * * * * * * * //

dimensions      [0 4 -2 0 0 0 0];

internalField   nonuniform List<scalar> 
760
(
-5.31461e-10
-2.01248e-09
-9.87596e-09
-2.33277e-09
-2.00402e-08
-5.79718e-09
-1.94563e-08
-5.42866e-09
7.98681e-09
1.73167e-09
4.29211e-08
4.46278e-09
3.61828e-08
-3.18318e-09
-1.20809e-08
-6.78383e-09
-3.30688e-08
2.61461e-10
1.20987e-08
1.48485e-08
5.29976e-08
1.49752e-08
4.25224e-08
8.67442e-12
1.87921e-08
-6.72578e-09
5.05199e-11
-2.36949e-09
-5.28616e-08
-1.21217e-08
-8.33696e-08
-8.52763e-09
-5.59662e-08
3.61384e-09
-3.92138e-08
6.13425e-10
-1.09021e-08
4.77423e-09
6.34611e-09
-1.94237e-09
-5.92979e-09
-9.44678e-09
-3.3945e-09
-1.61661e-08
-9.26479e-09
-1.46001e-08
-1.05837e-08
8.50222e-09
1.0346e-09
3.66705e-08
9.08182e-09
3.40734e-08
-1.27732e-09
-3.79472e-09
-1.00238e-08
-1.83355e-08
2.17231e-09
1.17159e-08
2.57432e-08
3.65285e-08
2.5768e-08
3.21968e-08
1.87216e-09
1.67488e-08
-1.02289e-08
-8.56805e-09
-1.29146e-08
-4.83336e-08
-1.94108e-08
-7.01184e-08
-1.29507e-08
-5.66452e-08
5.20931e-09
-3.2618e-08
3.63104e-09
-6.88283e-09
8.20466e-09
8.81039e-09
-3.93193e-09
-6.21203e-09
-7.75357e-09
-1.36344e-09
-1.18262e-08
-1.10192e-08
-8.35005e-09
-1.24943e-08
1.02003e-08
2.9396e-09
2.56747e-08
1.32197e-08
2.89291e-08
8.17588e-09
1.08619e-08
-3.62217e-09
5.22184e-09
4.98894e-09
1.01901e-08
2.33975e-08
9.64752e-09
2.25408e-08
1.17575e-08
-1.17558e-10
1.1757e-08
-1.70116e-08
-1.64069e-08
-2.03433e-08
-4.04696e-08
-2.22539e-08
-4.95131e-08
-1.20083e-08
-5.51928e-08
6.58043e-09
-2.59054e-08
1.17598e-08
-2.86456e-09
1.39137e-08
8.89221e-09
-4.59287e-09
9.70486e-10
-5.70014e-09
5.43585e-09
-7.77544e-09
-1.00664e-08
-2.04581e-09
-1.33138e-08
1.15984e-08
5.52349e-09
2.08143e-08
1.99273e-08
2.17429e-08
1.5579e-08
2.08665e-08
2.44868e-09
2.07173e-08
2.84382e-09
5.75822e-09
1.10609e-08
-1.65631e-08
9.86879e-09
-1.03373e-08
-4.83582e-09
4.86394e-09
-1.96995e-08
-1.88016e-08
-2.66727e-08
-2.82731e-08
-2.21388e-08
-2.7918e-08
-8.41425e-09
-4.68182e-08
7.15301e-09
-2.12586e-08
1.80187e-08
-3.38698e-09
1.68084e-08
7.85838e-09
-5.58824e-09
8.73113e-09
-6.10512e-09
1.51847e-08
-5.22993e-09
-4.22479e-09
6.69424e-09
-7.66202e-09
1.55019e-08
1.06157e-08
1.52443e-08
2.30313e-08
1.24817e-08
2.02217e-08
2.26917e-08
4.02593e-09
2.62792e-08
-6.16779e-09
8.19801e-10
-7.5448e-09
-3.5123e-08
-1.36216e-08
-2.74464e-08
-1.47308e-08
-2.40448e-09
-2.0666e-08
-1.23132e-08
-2.47037e-08
-1.14022e-08
-1.57676e-08
-7.57299e-09
-3.17277e-10
-3.28988e-08
7.56866e-09
-2.12005e-08
1.61032e-08
-9.39042e-09
1.73715e-08
6.52745e-09
-5.25965e-09
2.65098e-08
-7.80337e-09
3.03549e-08
-3.47201e-09
1.02462e-08
1.40838e-08
7.22211e-09
1.69604e-08
1.6664e-08
1.07259e-08
2.31481e-08
-2.05166e-10
1.66432e-08
1.40628e-08
-4.6434e-11
2.40864e-08
-1.7285e-08
-8.92533e-09
-2.78694e-08
-4.52918e-08
-2.76059e-08
-3.15477e-08
-2.22951e-08
-3.63729e-09
-1.98359e-08
-2.15949e-09
-1.72002e-08
6.68021e-09
-6.88529e-09
5.6652e-09
2.02692e-09
-1.88556e-08
9.7891e-09
-1.72097e-08
1.43716e-08
-1.57258e-08
1.35964e-08
5.49762e-09
-5.40977e-09
3.98145e-08
-8.79441e-09
4.22013e-08
-3.38234e-10
2.28121e-08
1.46477e-08
1.40929e-08
1.42668e-08
1.75177e-08
2.73498e-09
1.90027e-08
-1.49138e-08
1.07379e-08
-2.65459e-10
-4.55182e-09
1.35054e-08
-2.21002e-08
-7.46603e-09
-3.78257e-08
-4.20027e-08
-3.69474e-08
-2.71079e-08
-2.7484e-08
1.9236e-09
-1.8132e-08
1.04419e-08
-1.09844e-08
1.98902e-08
-2.36771e-09
1.9216e-08
9.12983e-09
-8.97803e-09
5.22953e-09
-1.63448e-08
1.02882e-08
-2.09737e-08
9.56432e-09
4.04451e-09
-4.38471e-09
4.23377e-08
-1.01442e-08
4.3388e-08
-4.94955e-09
2.66946e-08
9.57686e-09
1.71548e-08
8.44364e-09
1.39854e-08
-6.79787e-09
1.0588e-08
-2.8607e-08
1.89902e-09
-1.52545e-08
-7.82188e-09
3.57603e-09
-2.36939e-08
-7.90276e-09
-3.9783e-08
-3.27598e-08
-3.05033e-08
-1.4964e-08
-2.82025e-08
1.1393e-08
-1.85618e-08
2.35148e-08
-9.90768e-09
3.45478e-08
4.13147e-09
2.13844e-08
1.13793e-08
-4.77315e-09
8.96438e-09
-1.74485e-08
5.53686e-09
-2.39229e-08
4.35234e-09
2.14058e-09
-2.86567e-09
2.79862e-08
-1.26227e-08
2.77165e-08
-1.05028e-08
1.82622e-08
5.80036e-10
1.07414e-08
9.72712e-10
7.85399e-09
-1.63653e-08
2.6331e-09
-3.85172e-08
-2.64042e-09
-2.45119e-08
-5.41765e-09
-2.61511e-09
-1.72946e-08
-1.28938e-08
-2.56356e-08
-1.43203e-08
-2.33009e-08
3.61259e-09
-1.65859e-08
2.23529e-08
-1.4276e-08
3.2056e-08
-7.3592e-09
4.44637e-08
-6.47063e-09
2.5365e-08
8.5613e-09
-2.35043e-09
3.85243e-09
-1.94378e-08
-4.57869e-10
-2.73194e-08
-1.62e-09
2.91684e-11
-2.57676e-09
-4.15959e-11
-1.38628e-08
1.20172e-10
-1.55073e-08
-2.60067e-10
-5.18717e-09
-1.58419e-10
-4.27511e-09
3.51705e-10
-2.5121e-08
3.50724e-10
-4.5593e-08
1.89473e-10
-2.65467e-08
5.68784e-11
-8.41292e-09
-1.81515e-10
-1.27244e-08
-1.65117e-11
-9.68554e-09
-1.71314e-10
1.7963e-08
1.35814e-10
2.99158e-08
-1.39743e-10
3.30249e-08
1.12702e-10
3.93917e-08
-1.88595e-09
3.30485e-08
-1.02858e-09
9.06662e-09
-1.20866e-09
-1.47972e-08
-6.02419e-10
-3.28125e-08
-4.08763e-10
-2.03942e-10
-2.1869e-09
-2.80606e-08
-1.41458e-08
-2.86193e-08
-1.55172e-08
-1.9038e-08
-5.00324e-09
-1.17022e-08
-4.70601e-09
-8.71899e-09
-2.5382e-08
-2.57726e-09
-4.55735e-08
3.02363e-09
-2.65755e-08
5.62164e-09
-8.1923e-09
1.72908e-08
-1.27504e-08
2.56325e-08
-9.326e-09
2.28892e-08
1.75796e-08
1.59015e-08
3.01337e-08
1.31083e-08
3.32571e-08
6.06082e-09
3.86867e-08
-9.46038e-09
3.20034e-08
-1.19462e-08
9.11014e-09
-5.62565e-09
-1.4646e-08
9.50873e-12
-3.25554e-08
9.55792e-10
-7.43973e-10
-2.9234e-09
-4.24144e-08
-1.27328e-08
-4.3795e-08
-1.10152e-08
-2.74754e-08
4.34339e-10
-1.73107e-08
6.3618e-10
-1.49349e-08
-1.68663e-08
-1.07019e-08
-3.87026e-08
-1.09248e-09
-2.44556e-08
8.57029e-09
-2.03755e-09
2.42489e-08
-1.24421e-08
3.97846e-08
-1.36892e-08
2.72678e-08
3.37618e-09
2.6565e-08
2.14189e-08
1.73984e-08
3.08287e-08
8.50618e-09
4.45018e-08
-4.82408e-09
2.93234e-08
-1.06828e-08
-2.62918e-09
-8.43522e-09
-1.9577e-08
-6.0829e-09
-2.73497e-08
-5.16081e-09
-2.9556e-09
-4.49866e-09
-4.01547e-08
-1.06753e-08
-4.32061e-08
-4.7057e-09
-2.30144e-08
8.22347e-09
-1.51702e-08
8.31945e-09
-1.74639e-08
-7.08595e-09
-1.85018e-08
-2.88257e-08
-9.57904e-09
-1.50832e-08
5.82441e-09
4.01835e-09
2.28074e-08
-8.61784e-09
3.77662e-08
-3.22104e-08
3.73438e-08
-1.4602e-08
2.66573e-08
1.1111e-08
1.69685e-08
2.2962e-08
1.05235e-08
3.63526e-08
1.8369e-09
2.27638e-08
-8.9603e-09
-4.99315e-09
-9.63587e-09
-1.82385e-08
-1.16925e-08
-2.40964e-08
-1.02495e-08
-4.04787e-09
-5.88409e-09
-2.72606e-08
-8.4207e-09
-3.04153e-08
-1.17795e-09
-1.04927e-08
1.38118e-08
-7.63823e-09
1.42559e-08
-1.64466e-08
2.67787e-09
-2.27742e-08
-1.51765e-08
-1.58738e-08
-1.3734e-10
1.08257e-09
1.3157e-08
1.77748e-08
-7.26662e-09
2.71439e-08
-4.28054e-08
2.72087e-08
-2.74856e-08
2.15775e-08
2.24231e-09
1.95862e-08
1.02194e-08
1.76166e-08
2.09459e-08
8.8004e-09
1.69173e-08
-2.25251e-09
-8.31734e-09
-8.06893e-09
-1.60297e-08
-1.32192e-08
-2.01023e-08
-1.33551e-08
-5.73462e-09
-5.09909e-09
-9.14968e-09
-7.46217e-09
-1.59024e-08
-3.73143e-09
3.25728e-09
1.4339e-08
6.27189e-09
1.6816e-08
-1.13026e-08
1.05019e-08
-2.31122e-08
-6.40108e-10
-1.99962e-08
1.38737e-08
-3.62732e-09
2.35814e-08
6.00573e-09
-9.32359e-09
6.97434e-09
-4.52682e-08
1.13086e-08
-3.14308e-08
1.39003e-08
-3.15417e-09
2.09472e-08
-1.14048e-09
2.43562e-08
6.63657e-09
1.45024e-08
6.51513e-09
7.69657e-10
-1.77121e-08
-7.73844e-09
-1.76557e-08
-1.78831e-08
-1.53666e-08
-1.70835e-08
-7.00117e-09
-5.85065e-09
5.35798e-10
-6.01019e-09
-5.63017e-09
-6.69332e-09
8.87096e-09
6.70335e-09
1.32038e-08
1.52047e-08
-6.23746e-09
1.50751e-08
-2.01235e-08
1.24055e-08
-1.63746e-08
2.23384e-08
-3.15903e-09
2.56362e-08
-3.41703e-09
-1.16025e-10
-1.17499e-08
-3.43604e-08
-9.185e-09
-2.58762e-08
4.5824e-09
-1.82537e-09
1.9024e-08
-1.24213e-08
2.69249e-08
-9.99248e-09
2.08218e-08
-7.73203e-09
7.81604e-09
-3.28787e-08
-7.12896e-09
-1.92162e-08
-1.727e-08
-9.68135e-09
-1.77071e-08
-8.02007e-09
-5.0993e-09
6.31902e-09
-6.54516e-09
1.56539e-09
-8.09302e-09
1.16277e-08
-2.65569e-09
1.32653e-08
1.12031e-08
-2.83087e-09
1.93237e-08
-1.45215e-08
2.12639e-08
-8.14201e-09
2.0495e-08
3.75784e-09
2.00061e-08
-4.58519e-09
6.17753e-09
-2.30483e-08
-1.78041e-08
-2.32778e-08
-8.82253e-09
1.92298e-09
6.35528e-09
1.73587e-08
-2.04633e-08
2.11876e-08
-2.71421e-08
2.29551e-08
-2.74866e-08
1.27434e-08
-4.64646e-08
-5.88871e-09
-2.12971e-08
-1.17336e-08
-3.27133e-09
-1.37432e-08
-8.12141e-09
-4.45878e-09
5.70461e-09
-8.28691e-09
3.63924e-09
-1.24038e-08
9.53162e-09
-9.86744e-09
1.00938e-08
8.38454e-09
-1.73282e-09
2.56918e-08
-8.88201e-09
2.92142e-08
2.01797e-10
1.14292e-08
8.70323e-09
4.6614e-09
-4.10176e-09
9.53474e-09
-2.41862e-08
1.11059e-08
-2.15191e-08
1.26453e-08
-1.92921e-10
1.27654e-08
1.13389e-08
-1.78851e-08
9.99958e-09
-3.83794e-08
1.99039e-08
-4.88417e-08
1.02798e-08
-5.61249e-08
-7.12118e-09
-2.60021e-08
-4.90172e-09
-1.34199e-09
-9.01021e-09
-9.68684e-09
-1.94014e-09
2.50439e-09
-9.82907e-09
2.48228e-09
-1.70134e-08
5.32765e-09
-1.60582e-08
5.18564e-09
7.24345e-09
-7.90576e-10
3.44016e-08
-4.0851e-09
3.29452e-08
4.24114e-09
-3.8045e-09
8.38792e-09
-1.44919e-08
8.20158e-10
1.41951e-08
-1.80407e-08
3.52854e-08
-1.86845e-08
3.02832e-08
-1.85507e-09
1.69842e-08
1.14635e-09
-6.96312e-09
1.17079e-09
-5.0008e-08
1.22085e-08
-6.95696e-08
8.67044e-09
-5.68657e-08
-3.88723e-09
-3.27032e-08
2.94238e-10
-6.19435e-09
-4.83427e-09
-7.80363e-09
-9.0545e-10
-1.10051e-08
-2.07557e-08
-1.93597e-08
7.16495e-09
4.23803e-08
3.49028e-08
-1.34233e-08
-3.42131e-08
1.31877e-08
5.45053e-08
4.31053e-08
1.79126e-08
1.46851e-09
-5.43339e-08
-8.30303e-08
-5.45457e-08
-3.92985e-08
-1.16968e-08
)
;

boundaryField
{
    sides
    {
        type            calculated;
        value           uniform 0;
    }
    inlet
    {
        type            calculated;
        value           uniform 0;
    }
    outlet
    {
        type            calculated;
        value           nonuniform List<scalar> 
20
(
1.71308e-08
8.27201e-09
-3.92465e-09
-1.41222e-08
-2.26149e-08
-2.70307e-08
-3.01665e-08
-3.11622e-08
-3.28912e-08
-4.10581e-08
-4.11503e-08
-3.25228e-08
-2.95879e-08
-2.93161e-08
-2.62616e-08
-2.19815e-08
-1.38617e-08
-4.92216e-09
7.20119e-09
1.86843e-08
)
;
    }
    frontAndBack
    {
        type            empty;
        value           nonuniform List<scalar> 0();
    }
}


// ************************************************************************* //
