/*--------------------------------*- C++ -*----------------------------------*\
  =========                 |
  \\      /  F ield         | OpenFOAM: The Open Source CFD Toolbox
   \\    /   O peration     | Website:  https://openfoam.org
    \\  /    A nd           | Version:  9
     \\/     M anipulation  |
\*---------------------------------------------------------------------------*/
FoamFile
{
    format      ascii;
    class       volScalarField;
    location    "5";
    object      h_0;
}
// * * * * * * * * * * * * * * * * * * * * * * * * * * * * * * * * * * * * * //

dimensions      [0 1 0 0 0 0 0];

internalField   nonuniform List<scalar> 
400
(
0.01
0.0100006
0.0100023
0.0100055
0.0100091
0.0100086
0.0100023
0.00999608
0.00999659
0.010001
0.0100009
0.00999652
0.00999411
0.00999385
0.00999364
0.00999706
0.0100022
0.0100038
0.0100037
0.010002
0.0100005
0.0100012
0.0100029
0.0100057
0.0100087
0.0100079
0.0100024
0.00999678
0.00999657
0.00999926
0.00999897
0.00999627
0.0099946
0.00999404
0.00999458
0.00999777
0.0100018
0.0100036
0.0100033
0.0100014
0.0100014
0.0100024
0.010004
0.0100062
0.0100082
0.010007
0.0100026
0.00999804
0.00999651
0.00999635
0.00999586
0.00999571
0.00999556
0.00999485
0.00999616
0.00999894
0.0100013
0.0100034
0.0100026
0.0100006
0.0100025
0.0100038
0.0100052
0.0100067
0.0100074
0.0100056
0.010002
0.00999876
0.00999619
0.0099936
0.00999283
0.00999504
0.00999661
0.00999623
0.00999805
0.0100001
0.0100007
0.0100023
0.0100015
0.00999986
0.0100033
0.0100048
0.0100061
0.0100071
0.0100063
0.0100036
0.0100007
0.00999885
0.00999601
0.00999198
0.00999081
0.00999442
0.00999757
0.00999822
0.0100001
0.0100012
0.0100002
0.0100008
0.01
0.00999925
0.0100035
0.0100049
0.0100063
0.0100068
0.0100047
0.0100015
0.00999909
0.0099987
0.00999654
0.00999202
0.00999084
0.0099948
0.00999845
0.00999992
0.0100017
0.0100015
0.0099997
0.00999918
0.00999842
0.00999879
0.0100023
0.0100034
0.0100048
0.010005
0.0100027
0.00999956
0.00999798
0.00999899
0.00999777
0.00999343
0.00999137
0.00999505
0.00999938
0.0100021
0.0100037
0.0100024
0.00999897
0.00999756
0.00999717
0.0099985
0.00999993
0.0100004
0.0100019
0.0100026
0.0100007
0.00999825
0.00999772
0.0100002
0.0100004
0.00999622
0.00999196
0.00999379
0.00999848
0.0100033
0.0100057
0.010003
0.00999848
0.00999624
0.00999635
0.00999839
0.00999719
0.00999686
0.00999854
0.0100002
0.00999961
0.00999817
0.00999857
0.0100013
0.0100007
0.00999519
0.009993
0.00999665
0.0100035
0.0100072
0.0100067
0.0100014
0.00999672
0.00999526
0.00999609
0.00999839
0.00999523
0.00999444
0.00999623
0.00999868
0.0099993
0.0099999
0.0100035
0.0100107
0.0100118
0.00898689
0.00896171
0.00998505
0.0100155
0.0100218
0.0100121
0.0100008
0.00999491
0.00999485
0.00999653
0.00999865
0.00999513
0.00999431
0.00999614
0.00999859
0.00999918
0.00999981
0.0100035
0.0100107
0.0100118
0.00898687
0.00896169
0.00998498
0.0100155
0.0100218
0.010012
0.0100008
0.00999501
0.00999488
0.00999654
0.00999865
0.00999688
0.00999658
0.00999829
0.00999995
0.0099994
0.009998
0.00999848
0.0100013
0.0100007
0.00999508
0.00999285
0.00999651
0.0100035
0.0100074
0.010007
0.0100017
0.00999671
0.00999528
0.00999614
0.00999843
0.00999942
0.00999993
0.0100015
0.0100022
0.0100005
0.00999797
0.00999751
0.0100001
0.0100003
0.00999606
0.00999188
0.00999369
0.00999845
0.0100034
0.0100059
0.010003
0.00999836
0.00999623
0.0099964
0.00999846
0.0100016
0.0100028
0.0100042
0.0100044
0.0100022
0.00999912
0.00999761
0.0099987
0.00999751
0.00999323
0.00999117
0.00999496
0.00999937
0.0100021
0.0100039
0.0100024
0.00999916
0.00999763
0.00999723
0.00999852
0.0100026
0.0100041
0.0100055
0.0100061
0.0100041
0.0100009
0.00999859
0.00999827
0.00999618
0.0099918
0.00999075
0.00999474
0.00999839
0.00999983
0.0100015
0.0100014
0.00999962
0.00999906
0.00999842
0.0099988
0.0100022
0.0100039
0.0100052
0.0100064
0.0100056
0.010003
0.0100002
0.00999834
0.0099956
0.00999172
0.00999073
0.00999431
0.00999733
0.00999798
0.00999996
0.0100009
0.0100001
0.0100007
0.00999989
0.00999925
0.0100012
0.0100027
0.0100042
0.0100058
0.0100066
0.0100048
0.0100014
0.00999827
0.00999579
0.00999335
0.0099926
0.00999494
0.00999636
0.00999587
0.00999794
0.00999987
0.0100004
0.0100022
0.0100014
0.00999983
0.0099999
0.0100011
0.0100027
0.0100051
0.0100072
0.0100062
0.0100019
0.00999745
0.00999598
0.00999594
0.00999556
0.00999533
0.00999506
0.00999427
0.00999584
0.00999851
0.0100009
0.0100031
0.0100025
0.0100005
0.00999882
0.00999965
0.0100015
0.0100045
0.0100076
0.010007
0.0100017
0.00999627
0.00999615
0.00999859
0.00999818
0.00999565
0.00999422
0.0099937
0.0099941
0.0099975
0.0100015
0.0100034
0.0100031
0.0100013
0.00999814
0.00999882
0.0100007
0.0100041
0.0100078
0.0100074
0.0100012
0.00999521
0.0099959
0.0100005
0.0100002
0.00999583
0.00999354
0.00999337
0.00999297
0.0099966
0.0100018
0.0100033
0.0100034
0.0100019
)
;

boundaryField
{
    sides
    {
        type            zeroGradient;
    }
    inlet
    {
        type            zeroGradient;
    }
    outlet
    {
        type            fixedValue;
        value           uniform 0.01;
    }
    frontAndBack
    {
        type            empty;
    }
}


// ************************************************************************* //
