/*--------------------------------*- C++ -*----------------------------------*\
  =========                 |
  \\      /  F ield         | OpenFOAM: The Open Source CFD Toolbox
   \\    /   O peration     | Website:  https://openfoam.org
    \\  /    A nd           | Version:  9
     \\/     M anipulation  |
\*---------------------------------------------------------------------------*/
FoamFile
{
    format      ascii;
    class       volScalarField;
    location    "5";
    object      hTotal;
}
// * * * * * * * * * * * * * * * * * * * * * * * * * * * * * * * * * * * * * //

dimensions      [0 1 0 0 0 0 0];

internalField   nonuniform List<scalar> 
400
(
0.0100004
0.0100016
0.0100042
0.0100078
0.0100099
0.0100072
0.0100001
0.00999588
0.00999848
0.010002
0.0100008
0.00999858
0.00999738
0.009995
0.00999304
0.00999459
0.00999709
0.0099987
0.00999925
0.00999959
0.0100008
0.0100022
0.0100048
0.0100078
0.0100095
0.0100066
0.0100005
0.00999669
0.00999819
0.0100002
0.00999933
0.00999798
0.00999686
0.00999469
0.00999384
0.00999526
0.0099971
0.00999888
0.00999923
0.00999936
0.0100018
0.0100033
0.0100057
0.010008
0.0100086
0.0100057
0.010001
0.00999804
0.00999758
0.00999733
0.00999682
0.00999686
0.00999628
0.0099948
0.00999529
0.00999633
0.00999735
0.009999
0.009999
0.00999911
0.0100033
0.0100047
0.0100066
0.0100078
0.0100072
0.0100044
0.0100011
0.00999896
0.00999646
0.00999392
0.00999391
0.00999557
0.00999592
0.00999583
0.00999724
0.00999782
0.00999761
0.00999854
0.00999829
0.0099988
0.0100043
0.0100057
0.010007
0.0100073
0.0100054
0.0100024
0.0100004
0.00999927
0.00999562
0.00999146
0.00999164
0.00999448
0.00999621
0.00999754
0.00999947
0.00999934
0.00999828
0.00999768
0.0099973
0.00999851
0.0100044
0.0100055
0.0100065
0.0100062
0.0100033
0.0100002
0.00999929
0.00999928
0.0099955
0.00999073
0.00999049
0.0099943
0.00999703
0.00999962
0.0100014
0.0100006
0.00999868
0.00999688
0.00999637
0.00999832
0.0100029
0.0100037
0.0100047
0.0100042
0.0100011
0.00999839
0.00999847
0.00999956
0.00999666
0.00999162
0.00999053
0.00999409
0.00999815
0.0100024
0.0100044
0.0100025
0.00999909
0.00999599
0.00999559
0.00999826
0.00999976
0.0100003
0.0100018
0.0100016
0.00999924
0.00999715
0.00999834
0.0100009
0.00999951
0.00999454
0.00999068
0.00999229
0.00999742
0.0100042
0.0100072
0.0100041
0.00999897
0.00999508
0.00999498
0.0099982
0.00999615
0.0099966
0.00999857
0.00999948
0.00999825
0.00999711
0.00999912
0.0100021
0.0100005
0.00999419
0.00999242
0.00999511
0.0100026
0.0100087
0.0100087
0.0100033
0.00999814
0.00999451
0.00999491
0.00999824
0.00999362
0.00999407
0.00999643
0.00999823
0.00999821
0.00999895
0.0100039
0.0100114
0.0100119
0.00998628
0.00996057
0.009983
0.0100145
0.0100233
0.0100144
0.0100029
0.00999651
0.00999429
0.00999548
0.00999854
0.00999352
0.00999399
0.00999634
0.00999814
0.00999811
0.00999886
0.0100039
0.0100114
0.0100119
0.00998623
0.00996056
0.00998297
0.0100145
0.0100233
0.0100145
0.010003
0.00999648
0.00999426
0.00999547
0.00999852
0.00999585
0.00999637
0.00999832
0.00999922
0.00999806
0.00999698
0.00999908
0.0100021
0.0100004
0.00999405
0.00999226
0.00999507
0.0100027
0.0100089
0.0100089
0.0100037
0.00999808
0.00999452
0.00999495
0.00999825
0.00999928
0.00999991
0.0100014
0.0100012
0.0099989
0.00999689
0.00999817
0.0100008
0.00999938
0.00999439
0.00999064
0.00999233
0.00999752
0.0100045
0.0100072
0.010004
0.00999907
0.00999506
0.009995
0.00999823
0.0100022
0.0100031
0.0100041
0.0100036
0.0100007
0.00999803
0.00999817
0.00999933
0.00999645
0.00999143
0.00999039
0.00999399
0.00999815
0.0100025
0.0100045
0.0100024
0.00999905
0.00999594
0.00999564
0.00999829
0.0100036
0.0100047
0.0100058
0.0100056
0.0100028
0.00999977
0.00999885
0.00999888
0.00999523
0.0099906
0.00999044
0.00999421
0.00999693
0.00999955
0.0100014
0.0100006
0.00999867
0.00999686
0.00999636
0.00999835
0.0100033
0.0100047
0.0100062
0.0100066
0.0100047
0.0100018
0.00999991
0.00999883
0.0099953
0.0099913
0.00999154
0.00999428
0.00999602
0.00999736
0.00999933
0.00999919
0.00999813
0.00999773
0.00999725
0.0099985
0.0100021
0.0100037
0.0100056
0.0100069
0.0100064
0.0100037
0.0100006
0.00999849
0.00999609
0.00999369
0.00999368
0.00999543
0.00999561
0.00999551
0.00999707
0.00999743
0.0099975
0.0099984
0.00999819
0.00999877
0.0100004
0.0100021
0.0100045
0.0100069
0.0100077
0.010005
0.0100005
0.00999762
0.00999717
0.00999688
0.00999648
0.00999644
0.00999566
0.0099944
0.00999495
0.00999601
0.009997
0.00999864
0.00999883
0.00999906
0.00999922
0.0100007
0.0100035
0.0100067
0.0100085
0.0100058
0.00999984
0.00999615
0.0099978
0.00999974
0.00999877
0.00999736
0.00999656
0.00999425
0.00999338
0.00999484
0.00999671
0.00999856
0.00999901
0.00999925
0.00999853
0.00999987
0.0100027
0.0100065
0.0100088
0.0100061
0.00999914
0.0099951
0.00999778
0.0100013
0.0100001
0.00999807
0.00999681
0.00999427
0.00999233
0.00999413
0.00999654
0.00999827
0.00999898
0.00999943
)
;

boundaryField
{
    sides
    {
        type            calculated;
        value           nonuniform List<scalar> 
40
(
0.00999853
0.00999987
0.0100027
0.0100065
0.0100088
0.0100061
0.00999914
0.0099951
0.00999778
0.0100013
0.0100001
0.00999807
0.00999681
0.00999427
0.00999233
0.00999413
0.00999654
0.00999827
0.00999898
0.00999943
0.0100004
0.0100016
0.0100042
0.0100078
0.0100099
0.0100072
0.0100001
0.00999588
0.00999848
0.010002
0.0100008
0.00999858
0.00999738
0.009995
0.00999304
0.00999459
0.00999709
0.0099987
0.00999925
0.00999959
)
;
    }
    inlet
    {
        type            calculated;
        value           nonuniform List<scalar> 
20
(
0.0100004
0.0100008
0.0100018
0.0100033
0.0100043
0.0100044
0.0100029
0.00999976
0.00999615
0.00999362
0.00999352
0.00999585
0.00999928
0.0100022
0.0100036
0.0100033
0.0100021
0.0100004
0.00999922
0.00999853
)
;
    }
    outlet
    {
        type            calculated;
        value           uniform 0.01;
    }
    frontAndBack
    {
        type            empty;
    }
}


// ************************************************************************* //
