/*--------------------------------*- C++ -*----------------------------------*\
  =========                 |
  \\      /  F ield         | OpenFOAM: The Open Source CFD Toolbox
   \\    /   O peration     | Website:  https://openfoam.org
    \\  /    A nd           | Version:  9
     \\/     M anipulation  |
\*---------------------------------------------------------------------------*/
FoamFile
{
    format      ascii;
    class       volVectorField;
    location    "5";
    object      hU;
}
// * * * * * * * * * * * * * * * * * * * * * * * * * * * * * * * * * * * * * //

dimensions      [0 2 -1 0 0 0 0];

internalField   nonuniform List<vector> 
400
(
(0.00100011 -3.08945e-08 0)
(0.000999376 -2.5925e-07 0)
(0.000999391 -4.83286e-07 0)
(0.000999633 -3.90114e-07 0)
(0.000999332 -2.12181e-07 0)
(0.000999687 -1.67778e-07 0)
(0.00100069 -2.63859e-07 0)
(0.00100131 -3.96208e-07 0)
(0.0010014 -4.52698e-07 0)
(0.00100157 -3.40523e-07 0)
(0.00100191 -2.44394e-07 0)
(0.00100174 -2.89139e-07 0)
(0.00100075 -3.06018e-07 0)
(0.000999654 -2.02105e-07 0)
(0.000999028 -1.15882e-07 0)
(0.0009992 -3.70765e-08 0)
(0.00100063 9.45486e-08 0)
(0.00100277 7.3686e-08 0)
(0.00100493 9.04069e-08 0)
(0.00100669 -4.38635e-08 0)
(0.0010001 -1.57203e-08 0)
(0.000999371 -6.62489e-07 0)
(0.000999448 -1.24398e-06 0)
(0.0009997 -9.3269e-07 0)
(0.000999421 -3.68456e-07 0)
(0.000999767 -1.80357e-07 0)
(0.00100077 -4.21409e-07 0)
(0.0010014 -7.45615e-07 0)
(0.00100153 -8.25568e-07 0)
(0.00100165 -5.03942e-07 0)
(0.00100184 -2.07614e-07 0)
(0.00100162 -2.76508e-07 0)
(0.00100079 -2.8057e-07 0)
(0.000999812 4.28694e-08 0)
(0.000999279 3.13196e-07 0)
(0.000999466 5.41355e-07 0)
(0.00100076 8.03604e-07 0)
(0.00100276 6.98428e-07 0)
(0.00100487 6.25144e-07 0)
(0.00100633 2.99236e-07 0)
(0.00100009 2.49605e-08 0)
(0.000999357 -1.13378e-06 0)
(0.000999467 -2.05017e-06 0)
(0.000999718 -1.55926e-06 0)
(0.000999527 -7.15756e-07 0)
(0.000999854 -4.3384e-07 0)
(0.0010008 -7.6082e-07 0)
(0.00100151 -1.27766e-06 0)
(0.00100172 -1.44498e-06 0)
(0.00100178 -1.0592e-06 0)
(0.00100176 -5.91275e-07 0)
(0.00100149 -5.23953e-07 0)
(0.00100096 -4.10519e-07 0)
(0.00100023 4.77538e-08 0)
(0.000999753 4.23341e-07 0)
(0.000999856 7.22729e-07 0)
(0.00100083 1.04088e-06 0)
(0.0010026 9.61457e-07 0)
(0.00100459 8.55723e-07 0)
(0.00100586 4.07727e-07 0)
(0.00100009 5.03423e-08 0)
(0.000999323 -1.59454e-06 0)
(0.000999472 -2.66659e-06 0)
(0.000999749 -1.97979e-06 0)
(0.000999701 -9.14851e-07 0)
(0.00100012 -5.80355e-07 0)
(0.00100095 -9.2963e-07 0)
(0.00100158 -1.53453e-06 0)
(0.00100186 -1.81053e-06 0)
(0.00100198 -1.43802e-06 0)
(0.00100187 -7.85832e-07 0)
(0.00100156 -3.01184e-07 0)
(0.00100127 2.10855e-07 0)
(0.00100077 8.25497e-07 0)
(0.00100029 1.23178e-06 0)
(0.00100033 1.38034e-06 0)
(0.00100107 1.43045e-06 0)
(0.00100253 1.29393e-06 0)
(0.00100431 1.11292e-06 0)
(0.00100522 5.24602e-07 0)
(0.00100006 4.46883e-08 0)
(0.000999342 -2.00161e-06 0)
(0.000999447 -3.07076e-06 0)
(0.000999743 -2.2507e-06 0)
(0.000999871 -1.09147e-06 0)
(0.00100033 -8.26e-07 0)
(0.00100103 -1.29543e-06 0)
(0.0010016 -1.95943e-06 0)
(0.001002 -2.2725e-06 0)
(0.00100236 -1.97274e-06 0)
(0.00100243 -1.22269e-06 0)
(0.00100225 -2.82111e-07 0)
(0.00100208 6.68362e-07 0)
(0.00100153 1.43074e-06 0)
(0.00100073 1.86512e-06 0)
(0.00100034 1.91548e-06 0)
(0.00100085 1.79651e-06 0)
(0.00100214 1.63388e-06 0)
(0.00100375 1.48644e-06 0)
(0.00100452 7.8453e-07 0)
(0.00100003 6.61177e-08 0)
(0.00099941 -2.20118e-06 0)
(0.000999395 -3.08546e-06 0)
(0.00099968 -2.1442e-06 0)
(0.000999978 -1.09762e-06 0)
(0.00100046 -1.04834e-06 0)
(0.00100107 -1.71064e-06 0)
(0.00100164 -2.50944e-06 0)
(0.00100222 -2.83885e-06 0)
(0.00100288 -2.31438e-06 0)
(0.00100327 -9.49269e-07 0)
(0.00100334 7.76332e-07 0)
(0.0010031 2.12576e-06 0)
(0.00100235 2.5851e-06 0)
(0.0010012 2.22555e-06 0)
(0.00100054 1.56794e-06 0)
(0.0010009 1.28703e-06 0)
(0.00100204 1.37233e-06 0)
(0.0010034 1.38257e-06 0)
(0.00100374 6.55159e-07 0)
(0.000999942 8.39703e-08 0)
(0.000999585 -2.14126e-06 0)
(0.000999394 -2.71591e-06 0)
(0.000999486 -1.8315e-06 0)
(0.000999809 -1.04883e-06 0)
(0.00100031 -1.34981e-06 0)
(0.00100088 -2.21228e-06 0)
(0.00100157 -3.30471e-06 0)
(0.00100281 -3.94966e-06 0)
(0.00100445 -3.74199e-06 0)
(0.00100547 -1.59421e-06 0)
(0.00100531 1.68984e-06 0)
(0.00100408 4.53163e-06 0)
(0.0010021 5.33366e-06 0)
(0.00100017 4.18579e-06 0)
(0.000999689 2.37413e-06 0)
(0.00100071 1.53407e-06 0)
(0.00100205 1.63208e-06 0)
(0.00100297 1.77225e-06 0)
(0.00100308 9.9522e-07 0)
(0.000999816 6.97994e-08 0)
(0.000999806 -1.78846e-06 0)
(0.000999276 -2.11333e-06 0)
(0.000999142 -1.39255e-06 0)
(0.000999454 -1.11578e-06 0)
(0.000999965 -1.73862e-06 0)
(0.00100045 -3.04771e-06 0)
(0.00100113 -4.13051e-06 0)
(0.00100268 -4.70362e-06 0)
(0.00100587 -3.06159e-06 0)
(0.00100887 2.29731e-07 0)
(0.00100936 3.66515e-06 0)
(0.00100686 4.5255e-06 0)
(0.00100253 3.25178e-06 0)
(0.000998842 1.54406e-06 0)
(0.000998268 6.53319e-07 0)
(0.00100023 7.66261e-07 0)
(0.00100217 1.20445e-06 0)
(0.00100272 1.19255e-06 0)
(0.00100246 5.42886e-07 0)
(0.000999688 6.73589e-08 0)
(0.000999994 -1.15942e-06 0)
(0.000999119 -1.31509e-06 0)
(0.000998624 -7.57688e-07 0)
(0.000998751 -8.52503e-07 0)
(0.000999103 -2.05547e-06 0)
(0.000999745 -4.19671e-06 0)
(0.00100115 -8.01396e-06 0)
(0.00100467 -1.35751e-05 0)
(0.00100976 -1.49372e-05 0)
(0.00101216 3.70998e-06 0)
(0.00100948 1.80816e-05 0)
(0.00100393 1.53628e-05 0)
(0.000999495 6.30972e-06 0)
(0.000997592 6.96813e-07 0)
(0.000998508 -4.49413e-07 0)
(0.00100068 5.48611e-07 0)
(0.00100202 1.13255e-06 0)
(0.00100202 1.09756e-06 0)
(0.00100206 5.01027e-07 0)
(0.000999382 4.30641e-08 0)
(0.00100048 -3.56536e-07 0)
(0.00099853 -4.13451e-07 0)
(0.000998904 -8.7271e-08 0)
(0.000997095 -2.74191e-07 0)
(0.000998601 -8.61509e-07 0)
(0.000993392 -2.50054e-06 0)
(0.000997674 -5.52154e-06 0)
(0.000991455 -1.17528e-05 0)
(0.000915725 -1.25431e-05 0)
(0.000952113 2.29879e-07 0)
(0.00101156 1.39349e-05 0)
(0.000992542 1.26564e-05 0)
(0.000985393 5.72771e-06 0)
(0.000990779 1.10357e-06 0)
(0.00099791 -5.98251e-07 0)
(0.00100052 -3.91081e-07 0)
(0.000999576 -6.1885e-08 0)
(0.000997515 3.60274e-07 0)
(0.000999375 4.05469e-07 0)
(0.000999384 -1.90409e-08 0)
(0.00100047 4.5477e-07 0)
(0.000998519 5.88352e-07 0)
(0.000998901 3.3964e-07 0)
(0.000997093 5.92117e-07 0)
(0.000998599 1.17004e-06 0)
(0.000993386 2.72452e-06 0)
(0.000997657 5.61796e-06 0)
(0.00099143 1.17122e-05 0)
(0.000915697 1.24347e-05 0)
(0.000952083 -3.96314e-07 0)
(0.00101154 -1.41641e-05 0)
(0.000992523 -1.29386e-05 0)
(0.000985393 -6.07864e-06 0)
(0.00099075 -1.5421e-06 0)
(0.000997847 6.83741e-08 0)
(0.00100051 -1.52955e-07 0)
(0.000999582 -5.90536e-07 0)
(0.000997513 -1.03772e-06 0)
(0.00099934 -1.25739e-06 0)
(0.000999688 -4.57981e-08 0)
(0.000999984 1.24669e-06 0)
(0.000999091 1.48407e-06 0)
(0.000998608 1.0111e-06 0)
(0.000998741 1.15081e-06 0)
(0.000999091 2.35451e-06 0)
(0.000999741 4.42686e-06 0)
(0.00100115 8.12154e-06 0)
(0.00100467 1.3556e-05 0)
(0.00100978 1.4812e-05 0)
(0.00101217 -3.90096e-06 0)
(0.00100945 -1.83188e-05 0)
(0.00100385 -1.56445e-05 0)
(0.000999365 -6.66203e-06 0)
(0.000997487 -1.11441e-06 0)
(0.000998506 1.85268e-08 0)
(0.00100058 -1.00442e-06 0)
(0.00100186 -1.74156e-06 0)
(0.00100185 -1.74432e-06 0)
(0.0010019 -1.32918e-06 0)
(0.000999816 -5.16265e-08 0)
(0.000999784 1.87605e-06 0)
(0.000999247 2.28687e-06 0)
(0.00099911 1.63703e-06 0)
(0.000999428 1.40716e-06 0)
(0.000999953 2.04367e-06 0)
(0.00100042 3.28428e-06 0)
(0.00100109 4.23984e-06 0)
(0.00100262 4.68365e-06 0)
(0.00100579 2.93357e-06 0)
(0.00100881 -4.52612e-07 0)
(0.00100929 -3.95104e-06 0)
(0.00100675 -4.84431e-06 0)
(0.0010024 -3.58359e-06 0)
(0.000998728 -1.87097e-06 0)
(0.000998132 -1.06903e-06 0)
(0.00100006 -1.27903e-06 0)
(0.00100196 -1.80246e-06 0)
(0.00100253 -1.79193e-06 0)
(0.00100224 -1.31457e-06 0)
(0.000999943 -6.56321e-08 0)
(0.000999563 2.23148e-06 0)
(0.000999341 2.88942e-06 0)
(0.000999432 2.06396e-06 0)
(0.00099979 1.33651e-06 0)
(0.0010003 1.62919e-06 0)
(0.00100085 2.42042e-06 0)
(0.00100154 3.40099e-06 0)
(0.00100278 3.93642e-06 0)
(0.0010044 3.63323e-06 0)
(0.00100539 1.41148e-06 0)
(0.00100521 -1.93959e-06 0)
(0.00100397 -4.81654e-06 0)
(0.00100195 -5.6427e-06 0)
(0.000999976 -4.52924e-06 0)
(0.00099944 -2.81528e-06 0)
(0.00100045 -2.01336e-06 0)
(0.00100177 -2.19053e-06 0)
(0.00100267 -2.35565e-06 0)
(0.00100272 -1.76876e-06 0)
(0.00100004 -3.68894e-08 0)
(0.000999387 2.29931e-06 0)
(0.000999354 3.23529e-06 0)
(0.000999636 2.34595e-06 0)
(0.000999948 1.35315e-06 0)
(0.00100044 1.29522e-06 0)
(0.00100104 1.89662e-06 0)
(0.00100158 2.59557e-06 0)
(0.00100215 2.81379e-06 0)
(0.00100278 2.1795e-06 0)
(0.00100315 7.29414e-07 0)
(0.00100319 -1.04648e-06 0)
(0.00100292 -2.42695e-06 0)
(0.00100214 -2.9145e-06 0)
(0.00100095 -2.55809e-06 0)
(0.00100026 -1.93539e-06 0)
(0.00100063 -1.64579e-06 0)
(0.00100171 -1.85264e-06 0)
(0.00100301 -1.87838e-06 0)
(0.00100329 -1.34498e-06 0)
(0.00100007 -1.90933e-09 0)
(0.000999299 2.09608e-06 0)
(0.000999372 3.19638e-06 0)
(0.000999686 2.42076e-06 0)
(0.000999848 1.28885e-06 0)
(0.0010003 1.01263e-06 0)
(0.001001 1.41654e-06 0)
(0.00100155 1.99001e-06 0)
(0.00100192 2.19941e-06 0)
(0.00100225 1.82031e-06 0)
(0.0010023 1.01377e-06 0)
(0.0010021 2.399e-08 0)
(0.00100191 -9.23007e-07 0)
(0.00100132 -1.70226e-06 0)
(0.00100048 -2.17966e-06 0)
(0.00100005 -2.28198e-06 0)
(0.00100049 -2.20145e-06 0)
(0.0010017 -2.16299e-06 0)
(0.00100327 -2.03856e-06 0)
(0.00100391 -1.51108e-06 0)
(0.00100009 -7.90952e-09 0)
(0.000999273 1.68587e-06 0)
(0.000999394 2.79161e-06 0)
(0.000999677 2.159e-06 0)
(0.000999642 1.11262e-06 0)
(0.00100007 7.70904e-07 0)
(0.0010009 1.08139e-06 0)
(0.00100152 1.62491e-06 0)
(0.00100177 1.83135e-06 0)
(0.00100186 1.39522e-06 0)
(0.00100169 7.01351e-07 0)
(0.00100139 1.96879e-07 0)
(0.00100107 -3.47196e-07 0)
(0.00100048 -9.81609e-07 0)
(0.000999951 -1.42109e-06 0)
(0.000999917 -1.63297e-06 0)
(0.00100064 -1.69876e-06 0)
(0.001002 -1.65398e-06 0)
(0.00100376 -1.46989e-06 0)
(0.00100455 -1.06078e-06 0)
(0.00100009 -3.50688e-09 0)
(0.000999301 1.20171e-06 0)
(0.000999385 2.14656e-06 0)
(0.000999652 1.6586e-06 0)
(0.000999473 8.06282e-07 0)
(0.000999823 5.01075e-07 0)
(0.00100079 7.74868e-07 0)
(0.00100149 1.21595e-06 0)
(0.00100165 1.31373e-06 0)
(0.00100165 8.89803e-07 0)
(0.00100162 4.06801e-07 0)
(0.00100129 3.18098e-07 0)
(0.00100071 1.35879e-07 0)
(0.000999938 -3.73738e-07 0)
(0.000999403 -7.27855e-07 0)
(0.000999447 -1.07622e-06 0)
(0.00100036 -1.40335e-06 0)
(0.001002 -1.41339e-06 0)
(0.00100397 -1.30106e-06 0)
(0.00100501 -1.02046e-06 0)
(0.0010001 2.81449e-08 0)
(0.000999321 7.19757e-07 0)
(0.000999337 1.35683e-06 0)
(0.000999571 1.08077e-06 0)
(0.000999312 5.43537e-07 0)
(0.000999671 3.72768e-07 0)
(0.00100068 6.15911e-07 0)
(0.00100132 9.15253e-07 0)
(0.00100146 9.56193e-07 0)
(0.00100155 6.21147e-07 0)
(0.00100165 3.37856e-07 0)
(0.00100134 4.03355e-07 0)
(0.00100049 3.92402e-07 0)
(0.000999477 3.78319e-09 0)
(0.000998891 -2.54871e-07 0)
(0.000998978 -5.33108e-07 0)
(0.00100022 -8.02833e-07 0)
(0.00100211 -7.58089e-07 0)
(0.00100418 -6.70704e-07 0)
(0.00100544 -5.3783e-07 0)
(0.0010001 3.58323e-09 0)
(0.000999325 1.861e-07 0)
(0.000999326 3.76288e-07 0)
(0.000999575 2.68448e-07 0)
(0.000999276 8.07158e-08 0)
(0.000999635 1.10951e-08 0)
(0.00100064 7.91293e-08 0)
(0.00100125 1.63486e-07 0)
(0.00100131 1.67892e-07 0)
(0.00100147 3.8368e-09 0)
(0.00100177 -9.99403e-08 0)
(0.00100153 -2.74666e-08 0)
(0.00100043 4.93177e-09 0)
(0.000999265 -1.1763e-07 0)
(0.000998621 -2.02034e-07 0)
(0.000998696 -2.92699e-07 0)
(0.00100011 -4.01972e-07 0)
(0.00100207 -4.03314e-07 0)
(0.0010042 -3.91061e-07 0)
(0.00100558 -4.04789e-07 0)
)
;

boundaryField
{
    sides
    {
        type            slip;
    }
    inlet
    {
        type            fixedValue;
        value           uniform (0.001 0 0);
    }
    outlet
    {
        type            zeroGradient;
    }
    frontAndBack
    {
        type            empty;
    }
}


// ************************************************************************* //
