/*--------------------------------*- C++ -*----------------------------------*\
  =========                 |
  \\      /  F ield         | OpenFOAM: The Open Source CFD Toolbox
   \\    /   O peration     | Website:  https://openfoam.org
    \\  /    A nd           | Version:  9
     \\/     M anipulation  |
\*---------------------------------------------------------------------------*/
FoamFile
{
    format      ascii;
    class       surfaceScalarField;
    location    "5";
    object      phi;
}
// * * * * * * * * * * * * * * * * * * * * * * * * * * * * * * * * * * * * * //

dimensions      [0 4 -1 0 0 0 0];

internalField   nonuniform List<scalar> 
760
(
4.99902e-06
-1.03808e-10
4.99832e-06
-2.29339e-09
4.99731e-06
-4.37478e-09
4.99498e-06
-3.25661e-09
4.99561e-06
-1.29116e-09
5.00147e-06
-6.77911e-10
5.00775e-06
-1.65135e-09
5.00844e-06
-2.81395e-09
5.00608e-06
-3.01733e-09
5.0078e-06
-1.63349e-09
5.01057e-06
-7.07004e-10
5.0068e-06
-1.31948e-09
4.99982e-06
-1.46942e-09
4.99636e-06
-3.02291e-10
4.99457e-06
3.63745e-10
4.99752e-06
1.3051e-09
5.00841e-06
2.40712e-09
5.01958e-06
2.04871e-09
5.02996e-06
1.92431e-09
7.35078e-10
4.99887e-06
-9.92395e-11
4.99835e-06
-4.61469e-09
4.99748e-06
-8.52535e-09
4.99551e-06
-6.45462e-09
4.99636e-06
-2.89046e-09
5.00189e-06
-1.60291e-09
5.00778e-06
-3.21097e-09
5.00866e-06
-5.37969e-09
5.00717e-06
-5.83206e-09
5.00831e-06
-3.42999e-09
5.00961e-06
-1.60354e-09
5.00622e-06
-1.91785e-09
5.00066e-06
-1.72008e-09
4.99722e-06
1.15521e-10
4.99573e-06
1.57519e-09
4.99902e-06
2.96409e-09
5.0086e-06
4.48041e-09
5.0195e-06
3.97431e-09
5.02911e-06
3.55951e-09
1.81361e-09
4.9985e-06
-3.85528e-12
4.99826e-06
-6.82147e-09
4.99731e-06
-1.19776e-08
4.996e-06
-9.14731e-09
4.99743e-06
-4.26369e-09
5.00231e-06
-2.67056e-09
5.00751e-06
-4.28025e-09
5.0089e-06
-7.19334e-09
5.00877e-06
-8.23445e-09
5.0093e-06
-6.11756e-09
5.00833e-06
-3.13613e-09
5.00568e-06
-1.97184e-09
5.00266e-06
-4.4575e-10
4.99917e-06
2.07577e-09
4.99756e-06
4.18928e-09
5.00095e-06
5.41482e-09
5.00826e-06
6.37616e-09
5.01856e-06
5.8453e-09
5.02733e-06
4.99222e-09
2.41266e-09
4.99797e-06
1.55529e-10
4.99803e-06
-9.00724e-09
4.99721e-06
-1.4553e-08
4.99681e-06
-1.09838e-08
4.9991e-06
-5.23937e-09
5.00348e-06
-3.54195e-09
5.00732e-06
-5.58997e-09
5.009e-06
-8.83818e-09
5.01048e-06
-1.03776e-08
5.01086e-06
-8.57929e-09
5.00817e-06
-4.49553e-09
5.00605e-06
-1.14069e-09
5.00493e-06
2.40176e-09
5.00144e-06
5.35669e-09
5.0001e-06
7.24943e-09
5.00354e-06
7.69124e-09
5.00882e-06
7.78175e-09
5.01784e-06
7.25171e-09
5.02494e-06
6.50775e-09
3.28871e-09
4.99772e-06
1.04463e-10
4.9977e-06
-1.07195e-08
4.99693e-06
-1.54936e-08
4.99751e-06
-1.12237e-08
5.00058e-06
-5.51232e-09
5.0045e-06
-4.54587e-09
5.0069e-06
-7.07746e-09
5.00878e-06
-1.07912e-08
5.01239e-06
-1.31459e-08
5.01416e-06
-1.12995e-08
5.01145e-06
-6.05849e-09
5.00931e-06
7.31681e-10
5.00807e-06
7.4913e-09
5.00345e-06
1.12903e-08
5.00132e-06
1.15347e-08
5.00421e-06
9.62688e-09
5.00815e-06
7.89508e-09
5.01537e-06
7.72663e-09
5.02135e-06
7.46464e-09
3.71437e-09
4.99794e-06
3.40184e-10
4.99731e-06
-1.09317e-08
4.99655e-06
-1.44045e-08
4.9979e-06
-9.65831e-09
5.00137e-06
-5.15759e-09
5.00519e-06
-5.79179e-09
5.00668e-06
-9.54494e-09
5.00923e-06
-1.38089e-08
5.01441e-06
-1.59236e-08
5.01823e-06
-1.45087e-08
5.01707e-06
-6.53452e-09
5.01418e-06
4.97942e-09
5.01118e-06
1.47586e-08
5.00569e-06
1.8127e-08
5.00379e-06
1.49553e-08
5.00606e-06
9.58937e-09
5.00857e-06
7.18268e-09
5.01386e-06
7.79848e-09
5.01794e-06
8.11063e-09
4.17084e-09
4.99883e-06
3.60694e-10
4.99747e-06
-9.83642e-09
4.996e-06
-1.17712e-08
4.99702e-06
-7.58289e-09
5.00057e-06
-4.96822e-09
5.00383e-06
-7.1136e-09
5.00511e-06
-1.28854e-08
5.01069e-06
-2.00527e-08
5.02237e-06
-2.45201e-08
5.03045e-06
-1.98872e-08
5.02732e-06
-3.25825e-09
5.01773e-06
1.71258e-08
5.00862e-06
2.7816e-08
5.00232e-06
2.46027e-08
5.00331e-06
1.33407e-08
5.00649e-06
6.38454e-09
5.00743e-06
5.13827e-09
5.01104e-06
7.25235e-09
5.01469e-06
7.68715e-09
3.78952e-09
5.00027e-06
4.28331e-10
4.99751e-06
-7.20566e-09
4.9947e-06
-8.2197e-09
4.99527e-06
-5.01956e-09
4.99872e-06
-4.93004e-09
5.00167e-06
-8.64246e-09
5.00189e-06
-1.58003e-08
5.00645e-06
-2.55751e-08
5.02349e-06
-3.85954e-08
5.05522e-06
-4.82933e-08
5.04974e-06
4.81428e-09
5.02703e-06
4.4076e-08
5.00621e-06
5.20784e-08
5.00032e-06
2.91296e-08
5.00342e-06
7.85188e-09
5.00592e-06
8.49929e-10
5.00513e-06
3.77455e-09
5.00795e-06
6.17307e-09
5.01211e-06
6.00165e-09
2.76148e-09
5.00174e-06
4.24262e-10
4.99761e-06
-3.6009e-09
4.99302e-06
-3.91317e-09
4.99184e-06
-1.8831e-09
4.99329e-06
-3.35601e-09
4.99521e-06
-9.34379e-09
4.99837e-06
-2.14468e-08
5.01473e-06
-4.30951e-08
5.05476e-06
-7.67446e-08
5.06829e-06
-5.9249e-08
5.05077e-06
2.39954e-08
5.00246e-06
9.72263e-08
4.99889e-06
5.86122e-08
5.00363e-06
2.18354e-08
5.00473e-06
2.47579e-09
5.00284e-06
-2.60309e-09
5.00151e-06
7.22051e-10
5.00563e-06
2.50061e-09
5.01051e-06
2.98732e-09
1.95343e-09
5.00286e-06
6.57128e-11
4.99812e-06
2.75382e-10
4.99248e-06
4.56524e-10
4.99105e-06
6.54522e-10
4.98925e-06
8.34277e-10
4.98011e-06
8.24386e-10
4.95625e-06
6.04347e-10
4.91219e-06
2.57747e-10
4.83696e-06
-1.19095e-10
4.78058e-06
-3.03823e-10
4.80927e-06
-4.79851e-10
4.91374e-06
-5.76309e-10
4.97645e-06
-6.31576e-10
4.9962e-06
-7.09158e-10
4.99436e-06
-9.70218e-10
4.9871e-06
-1.24503e-09
4.98446e-06
-1.50642e-09
4.98857e-06
-1.6427e-09
4.99464e-06
-1.64163e-09
-2.0917e-09
5.00288e-06
-2.99515e-10
4.99806e-06
4.06506e-09
4.99245e-06
4.78946e-09
4.99105e-06
3.14833e-09
4.98923e-06
4.91595e-09
4.9801e-06
1.09474e-08
4.95619e-06
2.26637e-08
4.91207e-06
4.36303e-08
4.83684e-06
7.65782e-08
4.78039e-06
5.87345e-08
4.80922e-06
-2.51232e-08
4.91361e-06
-9.84561e-08
4.97638e-06
-5.9978e-08
4.99621e-06
-2.34548e-08
4.99402e-06
-4.5447e-09
4.98689e-06
-1.0388e-10
4.98453e-06
-3.72235e-09
4.98862e-06
-5.60969e-09
4.99455e-06
-6.08851e-09
-6.01774e-09
5.00172e-06
-3.2388e-10
4.99749e-06
7.68258e-09
4.99293e-06
9.07775e-09
4.99176e-06
6.38031e-09
4.99324e-06
6.42984e-09
4.99518e-06
1.01366e-08
4.99837e-06
1.69188e-08
5.01471e-06
2.6087e-08
5.05477e-06
3.85088e-08
5.06855e-06
4.75901e-08
5.05067e-06
-5.34452e-09
5.00211e-06
-4.53432e-08
4.99837e-06
-5.35337e-08
5.00302e-06
-3.08501e-08
5.00448e-06
-9.80125e-09
5.00268e-06
-3.35816e-09
5.00077e-06
-6.26148e-09
5.00478e-06
-9.14706e-09
5.00972e-06
-9.14109e-09
-6.82993e-09
5.0002e-06
-2.75851e-10
4.99739e-06
1.02466e-08
4.99459e-06
1.26846e-08
4.99507e-06
8.90146e-09
4.99867e-06
6.46317e-09
5.00159e-06
8.58577e-09
5.00171e-06
1.4013e-08
5.00617e-06
2.06173e-08
5.02321e-06
2.44783e-08
5.05481e-06
1.92574e-08
5.04945e-06
2.37711e-09
5.02661e-06
-1.85212e-08
5.00564e-06
-2.94414e-08
4.99957e-06
-2.63277e-08
5.00289e-06
-1.51564e-08
5.00526e-06
-8.6021e-09
5.00403e-06
-7.68551e-09
5.00694e-06
-1.03928e-08
5.01108e-06
-1.07075e-08
-7.61036e-09
4.99872e-06
-2.33853e-10
4.9973e-06
1.14678e-08
4.99573e-06
1.53112e-08
4.99688e-06
1.08569e-08
5.00049e-06
6.57393e-09
5.00371e-06
7.12509e-09
5.00496e-06
1.05035e-08
5.01055e-06
1.42373e-08
5.02214e-06
1.5821e-08
5.03012e-06
1.39155e-08
5.02693e-06
5.48304e-09
5.01723e-06
-6.27306e-09
5.00796e-06
-1.62288e-08
5.00136e-06
-1.96987e-08
5.00229e-06
-1.64753e-08
5.00512e-06
-1.13878e-08
5.00619e-06
-9.16226e-09
5.00951e-06
-1.03323e-08
5.01303e-06
-1.08701e-08
-7.8646e-09
4.99784e-06
8.00512e-11
4.99723e-06
1.11836e-08
4.99631e-06
1.62535e-08
4.99775e-06
1.20625e-08
5.00121e-06
6.60537e-09
5.00502e-06
5.61567e-09
5.00645e-06
7.88791e-09
5.00894e-06
1.11509e-08
5.01395e-06
1.29641e-08
5.01765e-06
1.06344e-08
5.01635e-06
5.01315e-09
5.01336e-06
-1.84571e-09
5.01025e-06
-8.7677e-09
5.0046e-06
-1.27817e-08
5.00247e-06
-1.32085e-08
5.0047e-06
-1.14428e-08
5.00708e-06
-9.89004e-09
5.01198e-06
-1.02242e-08
5.01588e-06
-1.00334e-08
-7.24884e-09
4.99754e-06
3.36391e-11
4.99744e-06
9.53706e-09
4.99663e-06
1.50945e-08
4.99734e-06
1.17709e-08
5.00042e-06
6.15122e-09
5.00431e-06
4.44303e-09
5.00666e-06
6.17752e-09
5.00851e-06
9.00241e-09
5.01195e-06
1.01185e-08
5.0135e-06
7.89889e-09
5.01069e-06
3.76876e-09
5.00855e-06
4.00612e-10
5.00715e-06
-3.62697e-09
5.00229e-06
-6.72999e-09
4.99995e-06
-8.72375e-09
5.00256e-06
-9.41464e-09
5.00612e-06
-9.45367e-09
5.01309e-06
-9.46709e-09
5.01862e-06
-8.87008e-09
-6.48306e-09
4.99777e-06
1.5955e-10
4.99773e-06
7.24477e-09
4.99687e-06
1.25802e-08
4.99647e-06
9.86265e-09
4.99882e-06
5.06944e-09
5.0032e-06
3.34369e-09
5.00704e-06
4.81349e-09
5.00863e-06
7.39422e-09
5.00993e-06
8.07358e-09
5.01008e-06
5.71638e-09
5.00721e-06
2.44999e-09
5.00526e-06
1.22298e-09
5.00379e-06
-2.39752e-10
4.99968e-06
-3.06738e-09
4.99824e-06
-5.21989e-09
5.0015e-06
-6.73085e-09
5.00642e-06
-7.86072e-09
5.0151e-06
-7.79661e-09
5.02193e-06
-7.00963e-09
-5.20642e-09
4.99831e-06
1.54949e-10
4.99795e-06
4.87312e-09
4.99703e-06
8.91439e-09
4.99564e-06
6.98385e-09
4.99716e-06
3.42059e-09
5.00223e-06
2.08677e-09
5.00742e-06
3.46619e-09
5.00868e-06
5.3341e-09
5.00828e-06
5.55853e-09
5.00861e-06
3.233e-09
5.00748e-06
1.42717e-09
5.00447e-06
1.62819e-09
5.00145e-06
1.16663e-09
4.99741e-06
-1.07838e-09
4.99579e-06
-2.46759e-09
4.99877e-06
-4.16806e-09
5.00553e-06
-5.70308e-09
5.01552e-06
-5.48586e-09
5.02378e-06
-5.01964e-09
-4.01325e-09
4.99872e-06
1.1127e-10
4.99797e-06
2.47985e-09
4.99691e-06
4.62312e-09
4.99493e-06
3.50342e-09
4.99581e-06
1.69119e-09
5.00139e-06
9.822e-10
5.0074e-06
1.95564e-09
5.00825e-06
2.95226e-09
5.00679e-06
2.89986e-09
5.00761e-06
1.18731e-09
5.00837e-06
1.83004e-10
5.00468e-06
1.00313e-09
4.9991e-06
8.72129e-10
4.99554e-06
-2.89073e-10
4.99345e-06
-8.13981e-10
4.99649e-06
-1.79476e-09
5.00562e-06
-2.91869e-09
5.01614e-06
-2.85138e-09
5.02521e-06
-2.62849e-09
-2.44458e-09
4.99889e-06
4.99809e-06
4.99702e-06
4.99466e-06
4.99529e-06
5.00122e-06
5.00748e-06
5.00803e-06
5.00553e-06
5.00729e-06
5.0098e-06
5.00545e-06
4.9979e-06
4.99453e-06
4.99228e-06
4.9949e-06
5.00562e-06
5.01584e-06
5.02549e-06
)
;

boundaryField
{
    sides
    {
        type            calculated;
        value           uniform 0;
    }
    inlet
    {
        type            calculated;
        value           nonuniform List<scalar> 
20
(
-5e-06
-5e-06
-5e-06
-5e-06
-5e-06
-5e-06
-5e-06
-5e-06
-5e-06
-5e-06
-5e-06
-5e-06
-5e-06
-5e-06
-5e-06
-5e-06
-5e-06
-5e-06
-5e-06
-5e-06
)
;
    }
    outlet
    {
        type            calculated;
        value           nonuniform List<scalar> 
20
(
5.03612e-06
5.03352e-06
5.0304e-06
5.02632e-06
5.0223e-06
5.01825e-06
5.0154e-06
5.01332e-06
5.01143e-06
4.99868e-06
4.99847e-06
5.01072e-06
5.01222e-06
5.0136e-06
5.01601e-06
5.01927e-06
5.02294e-06
5.02592e-06
5.02902e-06
5.03031e-06
)
;
    }
    frontAndBack
    {
        type            empty;
        value           nonuniform List<scalar> 0();
    }
}


// ************************************************************************* //
