/*--------------------------------*- C++ -*----------------------------------*\
  =========                 |
  \\      /  F ield         | OpenFOAM: The Open Source CFD Toolbox
   \\    /   O peration     | Website:  https://openfoam.org
    \\  /    A nd           | Version:  9
     \\/     M anipulation  |
\*---------------------------------------------------------------------------*/
FoamFile
{
    format      ascii;
    class       volVectorField;
    location    "5";
    object      U;
}
// * * * * * * * * * * * * * * * * * * * * * * * * * * * * * * * * * * * * * //

dimensions      [0 1 -1 0 0 0 0];

internalField   nonuniform List<vector> 
400
(
(0.100007 -3.08934e-06 0)
(0.099922 -2.5921e-05 0)
(0.0998975 -4.83085e-05 0)
(0.0998857 -3.89812e-05 0)
(0.0998339 -2.1197e-05 0)
(0.0998971 -1.67658e-05 0)
(0.100068 -2.63856e-05 0)
(0.100172 -3.96371e-05 0)
(0.100155 -4.52766e-05 0)
(0.100137 -3.40454e-05 0)
(0.100183 -2.44374e-05 0)
(0.100188 -2.89181e-05 0)
(0.100101 -3.06098e-05 0)
(0.100015 -2.02206e-05 0)
(0.0999724 -1.15962e-05 0)
(0.0999741 -3.70966e-06 0)
(0.100092 9.45761e-06 0)
(0.10029 7.36956e-06 0)
(0.100501 9.04136e-06 0)
(0.100673 -4.38653e-06 0)
(0.100002 -1.5719e-06 0)
(0.0999154 -6.62345e-05 0)
(0.0998972 -0.000124339 0)
(0.0998916 -9.31958e-05 0)
(0.0998475 -3.68108e-05 0)
(0.0999106 -1.80237e-05 0)
(0.100072 -4.21386e-05 0)
(0.100173 -7.45862e-05 0)
(0.100171 -8.25718e-05 0)
(0.100163 -5.03931e-05 0)
(0.100191 -2.07628e-05 0)
(0.100182 -2.76563e-05 0)
(0.10011 -2.80658e-05 0)
(0.100034 4.28921e-06 0)
(0.0999896 3.1339e-05 0)
(0.099994 5.41611e-05 0)
(0.100105 8.03837e-05 0)
(0.100287 6.98506e-05 0)
(0.100495 6.25192e-05 0)
(0.100639 2.99255e-05 0)
(0.0999905 2.49559e-06 0)
(0.0999026 -0.00011334 0)
(0.09989 -0.0002049 0)
(0.0998922 -0.000155802 0)
(0.0998668 -7.15141e-05 0)
(0.0999283 -4.33592e-05 0)
(0.10007 -7.6074e-05 0)
(0.100171 -0.000127792 0)
(0.100196 -0.000144533 0)
(0.100205 -0.000105948 0)
(0.100208 -5.91464e-05 0)
(0.10018 -5.24117e-05 0)
(0.100133 -4.10671e-05 0)
(0.100075 4.77786e-06 0)
(0.100022 4.2354e-05 0)
(0.100022 7.22995e-05 0)
(0.100109 0.000104115 0)
(0.10027 9.61553e-05 0)
(0.100469 8.55809e-05 0)
(0.100595 4.07763e-05 0)
(0.0999762 5.03259e-06 0)
(0.0998851 -0.000159379 0)
(0.0998814 -0.000266483 0)
(0.0998969 -0.000197825 0)
(0.0998987 -9.14197e-05 0)
(0.0999684 -5.80101e-05 0)
(0.100084 -9.29528e-05 0)
(0.100169 -0.000153469 0)
(0.100222 -0.000181117 0)
(0.100259 -0.00014389 0)
(0.100248 -7.86311e-05 0)
(0.100201 -3.01317e-05 0)
(0.100168 2.10941e-05 0)
(0.100118 8.25841e-05 0)
(0.100057 0.000123212 0)
(0.100055 0.000138064 0)
(0.100131 0.000143079 0)
(0.100267 0.000129412 0)
(0.100448 0.000111311 0)
(0.100534 5.24665e-05 0)
(0.0999636 4.46693e-06 0)
(0.0998773 -0.000200047 0)
(0.0998749 -0.000306862 0)
(0.0999009 -0.000224905 0)
(0.0999332 -0.000109088 0)
(0.100009 -8.25798e-05 0)
(0.100099 -0.000129538 0)
(0.100167 -0.000195958 0)
(0.100244 -0.00022735 0)
(0.100321 -0.000197443 0)
(0.100327 -0.000122371 0)
(0.100281 -2.82267e-05 0)
(0.100246 6.68615e-05 0)
(0.100178 0.000143109 0)
(0.100078 0.000186522 0)
(0.100041 0.00019156 0)
(0.100102 0.000179681 0)
(0.100238 0.000163425 0)
(0.100403 0.000148684 0)
(0.100467 7.84646e-05 0)
(0.0999587 6.60884e-06 0)
(0.0998859 -0.000219997 0)
(0.0998745 -0.000308346 0)
(0.0999062 -0.000214287 0)
(0.0999648 -0.000109726 0)
(0.100044 -0.000104831 0)
(0.100114 -0.000171077 0)
(0.100171 -0.000250962 0)
(0.100267 -0.000284012 0)
(0.100381 -0.000231652 0)
(0.100423 -9.50173e-05 0)
(0.100391 7.76775e-05 0)
(0.10034 0.00021264 0)
(0.100239 0.000258519 0)
(0.100105 0.000222523 0)
(0.100047 0.000156783 0)
(0.100103 0.00012872 0)
(0.100236 0.000137276 0)
(0.100376 0.000138307 0)
(0.100391 6.55269e-05 0)
(0.0999652 8.39459e-06 0)
(0.0999219 -0.000214048 0)
(0.0998924 -0.000271463 0)
(0.099907 -0.000183074 0)
(0.0999696 -0.000104872 0)
(0.100047 -0.000135003 0)
(0.100103 -0.000221262 0)
(0.100161 -0.000330485 0)
(0.100315 -0.000395098 0)
(0.100529 -0.000374513 0)
(0.100642 -0.000159572 0)
(0.10059 0.000169084 0)
(0.100427 0.000453246 0)
(0.100187 0.000533239 0)
(0.0999731 0.000418396 0)
(0.0999437 0.000237353 0)
(0.10008 0.000153421 0)
(0.100246 0.000163274 0)
(0.100342 0.000177303 0)
(0.100326 9.95393e-05 0)
(0.099984 6.98011e-06 0)
(0.0999771 -0.000178839 0)
(0.0999099 -0.000211295 0)
(0.0998982 -0.000139233 0)
(0.0999531 -0.000111586 0)
(0.100025 -0.000173911 0)
(0.100061 -0.000304822 0)
(0.100104 -0.000413014 0)
(0.100273 -0.000470385 0)
(0.100642 -0.000306326 0)
(0.100981 2.29945e-05 0)
(0.101014 0.000366798 0)
(0.100712 0.000452667 0)
(0.10021 0.00032504 0)
(0.0998127 0.000154296 0)
(0.0997861 6.53053e-05 0)
(0.100033 7.6634e-05 0)
(0.100266 0.000120505 0)
(0.100323 0.000119315 0)
(0.100264 5.42984e-05 0)
(0.100007 6.73849e-06 0)
(0.100033 -0.000115982 0)
(0.0999262 -0.000131528 0)
(0.0998676 -7.57728e-05 0)
(0.0998926 -8.52653e-05 0)
(0.0999392 -0.000205607 0)
(0.0999833 -0.000419708 0)
(0.100093 -0.000801224 0)
(0.100462 -0.00135744 0)
(0.101034 -0.00149459 0)
(0.101293 0.00037128 0)
(0.100998 0.00180904 0)
(0.100367 0.00153588 0)
(0.0998626 0.000630424 0)
(0.0996723 6.96206e-05 0)
(0.0998178 -4.49264e-05 0)
(0.100087 5.48713e-05 0)
(0.100257 0.000113318 0)
(0.100253 0.000109812 0)
(0.100223 5.01115e-05 0)
(0.100002 4.30915e-06 0)
(0.100107 -3.56748e-05 0)
(0.0998887 -4.13599e-05 0)
(0.0999081 -8.72865e-06 0)
(0.0997274 -2.7424e-05 0)
(0.0998706 -8.616e-05 0)
(0.0993005 -0.000249957 0)
(0.0996535 -0.000551523 0)
(0.0990275 -0.00117388 0)
(0.101903 -0.00139581 0)
(0.106256 2.56545e-05 0)
(0.101328 0.00139587 0)
(0.0991105 0.00126381 0)
(0.0983097 0.000571437 0)
(0.0989354 0.000110199 0)
(0.099762 -5.98077e-05 0)
(0.100087 -3.91217e-05 0)
(0.100015 -6.19203e-06 0)
(0.0997966 3.60436e-05 0)
(0.0999521 4.05528e-05 0)
(0.100003 -1.90532e-06 0)
(0.100108 4.55044e-05 0)
(0.0998885 5.88567e-05 0)
(0.0999087 3.39704e-05 0)
(0.0997282 5.92229e-05 0)
(0.0998712 0.000117018 0)
(0.0993001 0.000272347 0)
(0.0996519 0.000561155 0)
(0.0990252 0.00116982 0)
(0.1019 0.00138375 0)
(0.106253 -4.42287e-05 0)
(0.101326 -0.00141882 0)
(0.0991089 -0.00129199 0)
(0.0983102 -0.000606451 0)
(0.0989317 -0.000153987 0)
(0.0997549 6.83537e-06 0)
(0.100086 -1.53009e-05 0)
(0.100016 -5.90875e-05 0)
(0.0997965 -0.000103819 0)
(0.0999488 -0.000125757 0)
(0.10001 -4.58171e-06 0)
(0.100035 0.000124715 0)
(0.0999259 0.000148432 0)
(0.0998686 0.000101118 0)
(0.0998935 0.000115103 0)
(0.0999393 0.000235523 0)
(0.0999833 0.000442727 0)
(0.100094 0.000811979 0)
(0.100463 0.00135554 0)
(0.101038 0.00148208 0)
(0.101295 -0.000390398 0)
(0.100995 -0.00183278 0)
(0.100359 -0.00156403 0)
(0.0998473 -0.000665609 0)
(0.0996596 -0.000111341 0)
(0.0998139 1.852e-06 0)
(0.100077 -0.000100461 0)
(0.100241 -0.000174251 0)
(0.100236 -0.000174521 0)
(0.100208 -0.000132942 0)
(0.0999888 -5.16302e-06 0)
(0.0999793 0.000187607 0)
(0.0999111 0.000228656 0)
(0.0998989 0.000163683 0)
(0.0999537 0.000140731 0)
(0.100026 0.00020443 0)
(0.100061 0.000328488 0)
(0.100101 0.00042395 0)
(0.100268 0.000468394 0)
(0.100636 0.000293521 0)
(0.100975 -4.53036e-05 0)
(0.101006 -0.000395408 0)
(0.1007 -0.000484551 0)
(0.100196 -0.0003582 0)
(0.0998008 -0.000186962 0)
(0.0997736 -0.000106861 0)
(0.100016 -0.000127915 0)
(0.100245 -0.000180335 0)
(0.100303 -0.000179283 0)
(0.100241 -0.00013148 0)
(0.0999718 -6.56174e-06 0)
(0.0999257 0.00022308 0)
(0.099893 0.000288823 0)
(0.0999071 0.000206321 0)
(0.0999723 0.000133642 0)
(0.10005 0.000162951 0)
(0.100103 0.000242086 0)
(0.10016 0.000340121 0)
(0.100313 0.000393782 0)
(0.100526 0.000363634 0)
(0.100636 0.000141284 0)
(0.100581 -0.000194075 0)
(0.100415 -0.000481743 0)
(0.10017 -0.000564129 0)
(0.0999527 -0.00045272 0)
(0.0999196 -0.00028146 0)
(0.100055 -0.000201355 0)
(0.100218 -0.000219142 0)
(0.100311 -0.000235668 0)
(0.100289 -0.000176906 0)
(0.0999675 -3.6876e-06 0)
(0.0998917 0.000229822 0)
(0.0998773 0.000323341 0)
(0.0999076 0.000234463 0)
(0.099967 0.000135277 0)
(0.100046 0.000129525 0)
(0.100115 0.000189683 0)
(0.100169 0.000259586 0)
(0.100262 0.000281514 0)
(0.100372 0.000218155 0)
(0.100411 7.30112e-05 0)
(0.100377 -0.000104709 0)
(0.100323 -0.00024277 0)
(0.100219 -0.000291463 0)
(0.100081 -0.000255773 0)
(0.10002 -0.000193526 0)
(0.100076 -0.000164601 0)
(0.100202 -0.000185322 0)
(0.100338 -0.000187907 0)
(0.100346 -0.00013452 0)
(0.099974 -1.9087e-07 0)
(0.0998826 0.000209508 0)
(0.0998755 0.000319441 0)
(0.0999029 0.000241917 0)
(0.0999377 0.000128824 0)
(0.100012 0.000101244 0)
(0.100101 0.000141655 0)
(0.100166 0.000199025 0)
(0.100239 0.000220045 0)
(0.100312 0.00018219 0)
(0.100315 0.000101462 0)
(0.100267 2.40038e-06 0)
(0.100231 -9.23374e-05 0)
(0.100158 -0.000170271 0)
(0.100055 -0.000217981 0)
(0.100013 -0.000228217 0)
(0.100067 -0.000220186 0)
(0.100193 -0.000216348 0)
(0.100355 -0.000203912 0)
(0.100407 -0.000151131 0)
(0.0999879 -7.90788e-07 0)
(0.0998903 0.000168524 0)
(0.0998833 0.000279004 0)
(0.0998984 0.000215751 0)
(0.0999006 0.000111191 0)
(0.0999699 7.7062e-05 0)
(0.100084 0.000108133 0)
(0.100167 0.000162516 0)
(0.100217 0.000183207 0)
(0.10025 0.00013961 0)
(0.100233 7.01795e-05 0)
(0.100185 1.96969e-05 0)
(0.100151 -3.47348e-05 0)
(0.100092 -9.8205e-05 0)
(0.100024 -0.000142151 0)
(0.100017 -0.000163339 0)
(0.100089 -0.000169918 0)
(0.100216 -0.000165424 0)
(0.100394 -0.000147016 0)
(0.100468 -0.000106092 0)
(0.100004 -3.50672e-07 0)
(0.0999093 0.000120146 0)
(0.0998933 0.000214559 0)
(0.0998963 0.000165745 0)
(0.0998709 8.05665e-05 0)
(0.0999323 5.00825e-05 0)
(0.100074 7.7483e-05 0)
(0.100173 0.000121624 0)
(0.100193 0.000131411 0)
(0.100197 8.90081e-05 0)
(0.100197 4.06944e-05 0)
(0.100165 3.18211e-05 0)
(0.100114 1.35938e-05 0)
(0.10005 -3.73947e-05 0)
(0.0999908 -7.28223e-05 0)
(0.0999846 -0.000107665 0)
(0.100066 -0.000140377 0)
(0.100213 -0.000141358 0)
(0.100409 -0.000130121 0)
(0.100511 -0.000102055 0)
(0.100018 2.81471e-06 0)
(0.0999249 7.19705e-05 0)
(0.0998991 0.000135636 0)
(0.09989 0.000108005 0)
(0.0998464 5.43076e-05 0)
(0.0999096 3.72553e-05 0)
(0.10007 6.15921e-05 0)
(0.10017 9.15605e-05 0)
(0.100168 9.56403e-05 0)
(0.100158 6.21163e-05 0)
(0.100177 3.37897e-05 0)
(0.10016 4.03461e-05 0)
(0.100083 3.92537e-05 0)
(0.100005 3.78536e-07 0)
(0.0999552 -2.5504e-05 0)
(0.0999494 -5.33383e-05 0)
(0.100055 -8.03097e-05 0)
(0.100225 -7.58198e-05 0)
(0.100428 -6.7077e-05 0)
(0.100552 -5.3787e-05 0)
(0.100025 3.58376e-07 0)
(0.0999338 1.86102e-05 0)
(0.0999052 3.76184e-05 0)
(0.0998925 2.68273e-05 0)
(0.09984 8.06451e-06 0)
(0.0999027 1.10883e-06 0)
(0.100072 7.91361e-06 0)
(0.100174 1.63566e-05 0)
(0.100154 1.67929e-05 0)
(0.100134 3.8363e-07 0)
(0.100177 -9.99394e-06 0)
(0.100172 -2.74719e-06 0)
(0.100075 4.93334e-07 0)
(0.0999838 -1.17698e-05 0)
(0.0999387 -2.02188e-05 0)
(0.0999283 -2.92871e-05 0)
(0.100046 -4.02111e-05 0)
(0.100224 -4.03384e-05 0)
(0.10043 -3.91101e-05 0)
(0.100564 -4.04812e-05 0)
)
;

boundaryField
{
    sides
    {
        type            calculated;
        value           nonuniform List<vector> 
40
(
(0.100025 0 0)
(0.0999338 0 0)
(0.0999052 0 0)
(0.0998925 0 0)
(0.09984 0 0)
(0.0999027 0 0)
(0.100072 0 0)
(0.100174 0 0)
(0.100154 0 0)
(0.100134 0 0)
(0.100177 0 0)
(0.100172 0 0)
(0.100075 0 0)
(0.0999838 0 0)
(0.0999387 0 0)
(0.0999283 0 0)
(0.100046 0 0)
(0.100224 0 0)
(0.10043 0 0)
(0.100564 0 0)
(0.100007 0 0)
(0.099922 0 0)
(0.0998975 0 0)
(0.0998857 0 0)
(0.0998339 0 0)
(0.0998971 0 0)
(0.100068 0 0)
(0.100172 0 0)
(0.100155 0 0)
(0.100137 0 0)
(0.100183 0 0)
(0.100188 0 0)
(0.100101 0 0)
(0.100015 0 0)
(0.0999724 0 0)
(0.0999741 0 0)
(0.100092 0 0)
(0.10029 0 0)
(0.100501 0 0)
(0.100673 0 0)
)
;
    }
    inlet
    {
        type            calculated;
        value           nonuniform List<vector> 
20
(
(0.0999965 0 0)
(0.099992 0 0)
(0.0999816 0 0)
(0.0999675 0 0)
(0.0999575 0 0)
(0.0999556 0 0)
(0.099971 0 0)
(0.100002 0 0)
(0.100039 0 0)
(0.100064 0 0)
(0.100065 0 0)
(0.100042 0 0)
(0.100007 0 0)
(0.0999775 0 0)
(0.0999637 0 0)
(0.0999671 0 0)
(0.0999793 0 0)
(0.0999956 0 0)
(0.100008 0 0)
(0.100015 0 0)
)
;
    }
    outlet
    {
        type            calculated;
        value           nonuniform List<vector> 
20
(
(0.100669 -4.38635e-06 0)
(0.100633 2.99236e-05 0)
(0.100586 4.07727e-05 0)
(0.100522 5.24602e-05 0)
(0.100452 7.8453e-05 0)
(0.100374 6.55159e-05 0)
(0.100308 9.9522e-05 0)
(0.100246 5.42886e-05 0)
(0.100206 5.01027e-05 0)
(0.0999375 4.05469e-05 0)
(0.099934 -0.000125739 0)
(0.10019 -0.000132918 0)
(0.100224 -0.000131457 0)
(0.100272 -0.000176876 0)
(0.100329 -0.000134498 0)
(0.100391 -0.000151108 0)
(0.100455 -0.000106078 0)
(0.100501 -0.000102046 0)
(0.100544 -5.3783e-05 0)
(0.100558 -4.04789e-05 0)
)
;
    }
    frontAndBack
    {
        type            empty;
    }
}


// ************************************************************************* //
