/*--------------------------------*- C++ -*----------------------------------*\
  =========                 |
  \\      /  F ield         | OpenFOAM: The Open Source CFD Toolbox
   \\    /   O peration     | Website:  https://openfoam.org
    \\  /    A nd           | Version:  9
     \\/     M anipulation  |
\*---------------------------------------------------------------------------*/
FoamFile
{
    format      ascii;
    class       surfaceScalarField;
    location    "81";
    object      ddtCorrDdt0(phi);
}
// * * * * * * * * * * * * * * * * * * * * * * * * * * * * * * * * * * * * * //

dimensions      [0 4 -2 0 0 0 0];

internalField   nonuniform List<scalar> 
760
(
1.60129e-11
2.1e-12
-7.09451e-12
-1.08878e-11
-1.115e-11
-3.01256e-12
7.20036e-12
2.44703e-11
7.90444e-12
1.56071e-11
1.8795e-11
5.26766e-12
1.36305e-11
1.01062e-11
-4.6369e-13
-2.91388e-12
-1.8137e-11
-4.31594e-12
-3.03613e-13
5.49778e-12
-6.33387e-12
-1.08605e-11
1.40205e-11
-2.48658e-13
-1.36906e-11
-3.05557e-11
-1.82902e-11
-1.46519e-11
-4.10899e-12
-4.52712e-12
-4.73579e-12
-8.2449e-12
1.45898e-11
-1.19978e-11
8.62071e-12
-2.57471e-11
-2.53393e-11
-3.81039e-11
-1.78718e-11
-1.43968e-11
-1.03435e-11
-1.47758e-11
-1.40052e-11
2.72668e-12
7.00067e-12
1.8268e-12
2.7407e-11
-6.17821e-13
1.04105e-11
2.36066e-11
2.10101e-11
3.22195e-12
2.45102e-12
7.47383e-12
3.52476e-12
-7.19835e-12
-1.75896e-11
-1.13664e-11
2.76597e-12
8.26591e-12
1.33761e-11
-1.04199e-11
-2.76917e-11
-4.22256e-13
-1.63121e-11
-1.26059e-11
-2.69006e-11
-6.98301e-12
-8.45491e-12
-1.63561e-12
-2.31452e-12
-9.49137e-12
-7.85379e-12
-1.09165e-11
-2.58036e-11
-8.57898e-12
-3.40017e-11
-1.89197e-11
-2.79773e-11
-1.38043e-11
-3.74382e-12
9.38508e-13
1.47781e-11
1.49261e-11
-1.56335e-11
2.22438e-12
6.32275e-12
1.0593e-11
4.8648e-12
1.11066e-11
5.66628e-12
-3.31755e-13
-7.11475e-12
-1.3154e-11
1.56198e-11
1.68797e-11
-1.85447e-11
-2.76589e-11
2.129e-12
4.63601e-11
8.71653e-13
-1.78571e-11
-1.41646e-11
-1.37244e-11
1.15968e-12
7.36504e-12
-4.23374e-12
-8.09594e-13
1.43417e-13
-5.68932e-13
-8.96329e-12
-5.27934e-12
-1.93501e-11
-9.26118e-12
1.07693e-11
-4.66944e-12
-1.92149e-12
-2.20142e-11
-7.62721e-12
8.81895e-12
1.27548e-11
4.2207e-12
1.28373e-11
-1.00925e-11
-1.82897e-12
6.03789e-12
-4.30149e-12
-8.81438e-12
-1.07346e-11
-6.18879e-12
-1.39168e-11
1.59681e-11
6.92209e-12
-2.44516e-11
7.13649e-12
6.23037e-11
3.99135e-11
-5.89646e-11
-1.3105e-10
2.99123e-12
7.46502e-11
9.97563e-12
-1.5691e-11
-1.42955e-11
1.05292e-12
-2.9739e-12
3.44881e-11
5.76857e-13
1.79921e-11
-1.59413e-11
5.66914e-12
-1.78182e-11
1.44888e-11
1.92711e-11
2.528e-11
1.36459e-11
-6.87758e-12
-1.34239e-12
1.06337e-11
1.08846e-11
-3.68126e-12
1.38254e-11
-4.51269e-12
-9.54577e-13
1.8617e-12
-1.29457e-11
-1.44538e-11
-1.89404e-11
-1.89405e-12
-1.2224e-11
1.76256e-11
3.96657e-11
-2.61077e-12
-4.83485e-11
-7.46788e-11
8.6133e-11
1.49464e-10
-2.08598e-11
-9.64085e-11
-1.58292e-10
2.56374e-11
7.91601e-11
3.86858e-11
2.06405e-12
-1.44301e-11
-1.70173e-11
-1.42308e-11
1.67406e-11
-1.3054e-11
2.60909e-11
-1.22853e-11
3.49353e-11
1.76305e-12
4.23348e-11
1.95431e-11
3.60695e-12
2.99192e-12
1.1532e-11
6.96643e-12
-1.06816e-11
5.6921e-12
-5.57312e-12
-3.0468e-13
3.65538e-12
-8.6952e-12
-1.93606e-11
-1.05059e-11
4.47035e-11
3.07313e-11
-7.94098e-11
-4.68632e-11
1.4316e-10
1.36083e-10
-2.02594e-10
-4.19664e-10
9.1813e-11
5.02391e-10
1.48974e-10
-2.29674e-10
-6.75945e-11
-1.70077e-10
1.934e-11
2.69442e-11
3.16323e-11
-3.40577e-12
1.11974e-13
-1.55288e-11
-8.15388e-12
6.10077e-12
-1.32937e-11
2.61094e-11
-2.13696e-11
3.40747e-11
1.53765e-11
7.52337e-12
6.50726e-12
6.73285e-12
-4.37395e-13
-1.41284e-11
-2.72296e-12
-4.86376e-12
-2.18275e-12
2.51315e-12
5.15379e-12
1.98191e-11
2.17802e-11
-3.02685e-11
-6.61004e-12
7.23158e-11
4.48647e-11
-2.59783e-10
-1.73185e-10
5.69977e-10
4.20457e-11
-7.41979e-10
-3.09464e-09
1.67524e-10
5.11397e-10
1.49631e-10
-2.35096e-11
7.75836e-12
-9.26945e-11
2.14782e-11
-3.35781e-11
2.93767e-11
-2.65416e-11
1.48386e-11
-1.75836e-11
-8.42735e-12
-5.95792e-12
-3.71444e-11
5.81418e-12
3.19269e-12
1.93363e-12
4.55643e-12
3.62686e-13
-3.93347e-12
-1.39303e-11
-9.65617e-12
1.36797e-12
5.94024e-12
2.21307e-11
1.82179e-11
-7.23933e-12
1.8984e-11
2.20624e-11
5.2384e-12
-2.70159e-11
-9.29709e-11
-4.18232e-10
1.73826e-10
5.10455e-10
6.45191e-10
5.597e-10
4.33382e-08
-3.02607e-10
-5.57446e-10
9.58623e-11
3.35067e-10
8.13444e-11
1.16801e-10
3.1054e-11
6.94637e-12
4.39796e-11
-2.02781e-11
3.38202e-11
-4.55823e-11
2.03623e-12
-3.84255e-11
-3.55045e-11
-2.41123e-11
-9.2775e-12
-5.21832e-12
3.20549e-13
-8.54587e-12
-6.24337e-12
-3.94899e-12
-3.90286e-12
1.28953e-11
1.15734e-11
2.31321e-11
2.2861e-11
-1.68054e-12
-4.87746e-12
-5.93293e-11
-2.94693e-11
-3.21523e-12
3.28026e-11
4.32385e-10
-1.37709e-10
-5.62328e-10
1.65759e-10
-5.24502e-10
-2.45865e-09
2.7674e-10
5.59799e-10
-1.61068e-10
6.12518e-11
-1.04267e-10
2.24832e-11
-1.37204e-11
1.99028e-11
4.59846e-11
5.82574e-12
4.94868e-11
1.9169e-09
1.62358e-11
-4.31963e-11
-1.36191e-11
-2.64693e-11
2.26096e-10
-1.04271e-11
-4.68678e-12
-9.95215e-12
-1.61557e-13
6.22299e-12
2.47341e-12
2.31532e-11
1.48338e-11
1.09143e-11
3.48477e-12
-3.55157e-11
-1.51715e-11
-5.16672e-12
-1.57983e-11
-5.8456e-11
-2.06542e-11
2.54162e-10
2.11503e-10
-4.82742e-10
-3.90642e-10
6.86974e-10
5.37032e-10
-1.81836e-10
-2.28947e-10
-1.85561e-10
-1.80252e-10
-6.67312e-11
4.09117e-11
-5.18719e-11
3.002e-11
-1.72131e-11
2.37979e-11
2.24441e-11
1.05427e-11
2.75053e-11
-3.68385e-12
5.77883e-12
-1.05214e-11
-7.93185e-12
-5.51148e-12
-7.97451e-12
-9.253e-12
7.35433e-12
1.68918e-11
9.46383e-12
1.72096e-11
-9.4658e-13
-4.57882e-12
-7.80086e-12
-3.43203e-11
-2.07061e-11
-3.21937e-11
1.73021e-11
1.4408e-10
2.17407e-11
-1.90137e-10
-1.01503e-10
3.23347e-10
3.15972e-10
-1.0276e-10
5.18448e-10
-1.41763e-10
-6.99756e-11
1.0027e-10
1.33228e-10
-5.60567e-11
1.72609e-11
-6.66706e-11
-5.49298e-12
-3.32623e-11
2.59005e-11
3.83009e-12
3.04889e-11
1.07458e-11
1.58752e-11
1.04312e-11
8.53194e-12
1.64212e-12
9.20621e-12
-8.48651e-12
-4.44392e-12
1.00251e-11
1.05435e-11
1.19166e-11
1.07193e-11
-1.10147e-11
-1.68277e-11
-2.44021e-11
-8.84128e-12
3.11986e-12
-1.37967e-11
2.47658e-11
1.64693e-11
3.47555e-12
1.6175e-10
-4.45715e-12
6.54032e-10
-3.49342e-10
6.49721e-10
-5.05089e-08
-2.15155e-11
-1.62562e-10
-6.75133e-11
-1.15901e-10
-5.38333e-11
-6.74496e-11
-4.33378e-11
-2.80055e-11
-2.85118e-11
5.76486e-12
-4.37881e-12
2.64881e-11
5.50208e-12
2.47378e-11
4.28013e-12
2.04421e-11
7.98528e-12
2.5626e-11
-6.77851e-12
3.72567e-12
3.03322e-12
-6.28155e-12
8.6428e-12
-6.92863e-12
-7.40501e-12
-3.40415e-12
-1.88728e-11
1.74897e-11
-6.81058e-12
-4.4215e-12
2.68232e-11
-2.25566e-11
3.17068e-11
-1.09787e-10
-7.49207e-11
-5.29849e-10
2.45313e-10
-8.92414e-10
-5.6383e-10
1.10796e-10
8.81776e-11
1.73209e-11
-2.90766e-11
2.43735e-12
-6.73604e-11
3.08937e-11
-1.28914e-11
9.28359e-12
2.1238e-11
1.8939e-12
2.49975e-11
9.08886e-12
1.7809e-11
-3.74604e-12
7.33676e-12
1.71529e-12
3.18549e-11
-2.62538e-12
1.40063e-11
-1.11244e-11
-1.99991e-11
-7.16578e-13
-2.24547e-11
1.1598e-11
-2.88988e-12
6.86831e-13
4.43271e-11
-4.78835e-12
6.83328e-12
-9.00795e-12
-1.06813e-10
3.08669e-11
1.20744e-10
1.05388e-10
-3.08658e-10
-1.85157e-10
1.89704e-10
2.13229e-10
-4.57298e-11
-5.45233e-11
-5.76778e-11
-7.21156e-11
5.99545e-11
1.27554e-11
6.97647e-11
3.2281e-11
2.34745e-11
3.23048e-11
-5.03546e-12
1.4683e-11
3.10055e-12
-1.14237e-11
-1.19504e-11
-2.79616e-11
-1.50299e-11
2.14976e-11
2.45417e-12
2.39813e-11
-1.45739e-11
-1.21475e-11
-1.66739e-11
-3.8117e-11
1.74415e-11
-1.20312e-11
3.06807e-11
3.28727e-11
4.7601e-12
3.08361e-11
-3.01001e-11
-3.02315e-11
-1.90668e-11
-6.76881e-11
2.81646e-11
2.13155e-11
9.31782e-11
-1.26623e-11
1.06799e-10
-3.81631e-11
3.60617e-11
5.7943e-11
7.32369e-11
8.7722e-11
5.96982e-11
6.25839e-11
4.24916e-11
-2.0459e-12
1.2936e-11
-3.51399e-11
-8.25933e-12
-1.76478e-11
-3.08844e-11
-9.52745e-12
-4.77158e-11
-2.49182e-11
6.0678e-12
8.80368e-12
2.13636e-11
-5.08885e-12
1.12938e-11
-2.27373e-11
-3.10375e-11
-6.58752e-12
-3.22413e-11
3.09315e-11
6.27007e-12
2.37919e-11
3.58839e-11
-1.74495e-11
-3.1182e-12
-5.4361e-11
-1.61079e-11
-2.8051e-11
5.25473e-11
2.26889e-11
-3.52984e-11
2.21103e-11
1.83728e-11
6.08108e-11
5.23223e-11
5.59276e-11
6.21098e-11
4.37317e-11
1.59157e-11
3.89168e-12
-3.94732e-11
-2.34559e-11
-6.3512e-11
-2.44054e-11
-3.48849e-11
-2.14459e-11
7.72846e-12
-2.62325e-11
-1.36968e-11
-3.16637e-12
1.40314e-11
7.6388e-12
5.20651e-12
2.30481e-11
-1.70784e-11
-2.34719e-12
-2.93856e-11
-3.55848e-11
-1.37466e-12
-1.87478e-11
2.30451e-11
9.73731e-12
1.25362e-11
1.70785e-11
-2.308e-11
1.02485e-12
-3.74549e-11
2.68028e-12
-3.39638e-11
-7.17338e-12
-2.14629e-11
4.51274e-12
-5.19174e-12
2.47596e-11
4.90936e-12
3.70061e-12
-1.24291e-11
-3.2399e-11
-4.03329e-11
-5.56819e-11
-4.50251e-11
-6.19685e-11
-2.04325e-11
-2.82366e-11
1.09031e-11
2.82963e-11
1.94281e-11
8.28572e-12
-6.4528e-12
1.73381e-11
-9.2355e-12
4.93112e-12
1.4282e-11
-4.80358e-12
2.0507e-11
-2.89272e-11
-1.49826e-11
-3.13267e-11
-2.11643e-11
-1.98038e-12
-8.66308e-12
1.8808e-11
1.267e-11
1.75331e-11
-3.91271e-13
-2.97275e-12
-6.3987e-12
-1.48981e-11
5.90205e-12
-1.31839e-11
6.51728e-12
-1.54469e-11
1.52749e-14
-9.6653e-12
-3.08719e-11
-2.58714e-11
-4.28733e-11
-3.74612e-11
-3.61344e-11
-2.57319e-11
-2.72978e-11
6.33687e-12
-5.38811e-12
4.31432e-11
3.20964e-11
5.4108e-11
2.49686e-11
-1.25532e-11
1.59204e-11
-1.65765e-11
2.66426e-12
-2.50461e-12
5.81894e-14
2.00128e-11
-1.36456e-11
8.99865e-12
-3.02028e-11
-4.55747e-12
-1.33904e-11
-6.28199e-12
6.99391e-12
7.77919e-13
2.17561e-11
-6.22325e-12
1.45134e-11
-8.73294e-12
7.25631e-12
3.45178e-12
-6.63059e-13
1.51766e-11
3.27118e-13
-6.52581e-12
2.63172e-12
-3.01819e-11
-7.99713e-12
-2.16803e-11
-1.15232e-11
2.94395e-12
-1.657e-12
1.68234e-11
1.77451e-11
1.2918e-11
3.91513e-11
8.0629e-12
4.37495e-11
1.98184e-11
-2.36e-11
-2.32106e-11
-1.21664e-11
9.29655e-12
2.36491e-11
9.95341e-12
3.78837e-12
-5.25402e-12
-1.01872e-11
-1.24873e-11
4.63449e-12
2.16061e-11
-5.40164e-12
-2.11337e-11
-4.11271e-12
2.66687e-11
3.86404e-11
1.36544e-11
-1.84972e-11
)
;

boundaryField
{
    sides
    {
        type            calculated;
        value           uniform 0;
    }
    inlet
    {
        type            calculated;
        value           uniform 0;
    }
    outlet
    {
        type            calculated;
        value           nonuniform List<scalar> 
20
(
-4.51021e-11
2.62478e-12
3.40864e-11
4.26322e-11
1.22754e-11
-2.51363e-11
-4.91336e-11
-4.92537e-11
-8.55246e-12
-2.07944e-11
6.10843e-12
3.14301e-13
-1.69509e-11
-3.01591e-11
-1.73195e-11
2.24357e-11
5.59342e-11
5.32696e-11
9.26925e-12
-3.08684e-11
)
;
    }
    frontAndBack
    {
        type            empty;
        value           nonuniform List<scalar> 0();
    }
}


// ************************************************************************* //
