/*--------------------------------*- C++ -*----------------------------------*\
  =========                 |
  \\      /  F ield         | OpenFOAM: The Open Source CFD Toolbox
   \\    /   O peration     | Website:  https://openfoam.org
    \\  /    A nd           | Version:  9
     \\/     M anipulation  |
\*---------------------------------------------------------------------------*/
FoamFile
{
    format      ascii;
    class       volVectorField;
    location    "81";
    object      ddtCorrDdt0(hU);
}
// * * * * * * * * * * * * * * * * * * * * * * * * * * * * * * * * * * * * * //

dimensions      [0 2 -2 0 0 0 0];

internalField   nonuniform List<vector> 
400
(
(-2.59023e-09 1.96672e-09 0)
(1.50058e-09 -4.04269e-10 0)
(-4.74457e-10 -9.39536e-10 0)
(-3.82136e-10 1.3253e-09 0)
(8.62677e-10 1.25651e-09 0)
(3.35926e-09 5.85588e-10 0)
(2.63574e-09 1.17341e-09 0)
(2.04242e-09 1.66768e-10 0)
(-2.58564e-09 4.33349e-10 0)
(-1.47523e-09 7.50272e-10 0)
(-8.18043e-10 -1.01904e-09 0)
(-7.80219e-11 -1.48581e-10 0)
(4.91929e-10 -2.9648e-09 0)
(-3.33473e-09 -1.59992e-09 0)
(-1.18494e-09 -7.79028e-10 0)
(-3.69141e-10 -9.63686e-10 0)
(-4.37614e-10 -1.14586e-09 0)
(1.24411e-09 -3.95945e-09 0)
(-3.62229e-10 -5.6641e-09 0)
(-7.10952e-09 -3.09419e-09 0)
(-3.08073e-09 1.19543e-09 0)
(-2.01828e-09 -1.56534e-09 0)
(-8.90819e-10 -4.73038e-10 0)
(-3.76962e-10 3.75507e-09 0)
(6.82394e-10 2.28988e-09 0)
(2.08623e-09 2.59341e-09 0)
(2.89471e-09 1.49651e-09 0)
(8.42985e-10 6.36316e-10 0)
(5.77202e-10 -9.78548e-10 0)
(-2.63307e-09 8.75028e-10 0)
(3.62541e-10 -2.20362e-09 0)
(-8.25469e-10 -2.58242e-09 0)
(-1.30507e-09 -4.48623e-09 0)
(-6.07567e-10 -4.23431e-09 0)
(-2.14653e-09 -1.67369e-09 0)
(-6.24996e-10 -1.38803e-09 0)
(-1.09911e-09 -1.78847e-09 0)
(-2.53449e-09 -5.3207e-09 0)
(-2.18429e-09 -8.20238e-09 0)
(-1.77032e-10 -4.38366e-09 0)
(-7.41064e-10 -2.1307e-09 0)
(-2.66622e-09 -1.04859e-09 0)
(-2.13604e-10 1.96924e-09 0)
(-4.19982e-10 2.76741e-09 0)
(-7.70757e-12 1.9779e-09 0)
(2.17003e-11 3.02182e-09 0)
(1.97805e-09 2.61874e-10 0)
(-3.86119e-10 -6.35594e-10 0)
(1.0624e-09 1.1307e-10 0)
(2.61829e-10 -2.53919e-09 0)
(-3.28765e-09 3.11086e-09 0)
(1.93042e-09 -4.14292e-09 0)
(-2.02567e-09 -2.93399e-09 0)
(-1.04576e-09 -1.70531e-09 0)
(-6.07723e-10 -1.09983e-09 0)
(-8.36646e-10 -5.0173e-10 0)
(-5.59649e-10 -1.16265e-09 0)
(-2.39358e-09 -2.81516e-09 0)
(-8.43466e-10 -3.77963e-09 0)
(4.17867e-09 -1.69531e-09 0)
(1.35451e-09 -2.17293e-09 0)
(-1.65316e-09 1.26452e-09 0)
(6.8413e-11 2.816e-09 0)
(-7.81649e-11 2.57418e-10 0)
(-9.95882e-10 6.24502e-10 0)
(-3.65359e-10 -2.29182e-11 0)
(-1.36138e-09 -1.32092e-09 0)
(2.24213e-09 -5.97012e-10 0)
(-2.53311e-09 2.28034e-09 0)
(4.6619e-09 1.18118e-09 0)
(1.32474e-09 -6.53099e-09 0)
(-8.1697e-09 5.7176e-09 0)
(4.25066e-09 -3.19092e-09 0)
(-1.53279e-09 8.26442e-10 0)
(-2.79115e-09 3.62725e-09 0)
(-2.64696e-10 1.90455e-09 0)
(-8.77143e-10 -5.75359e-11 0)
(-2.64558e-09 -1.17821e-10 0)
(-2.38281e-10 1.70594e-09 0)
(5.93879e-09 1.0614e-09 0)
(1.89146e-09 -1.00811e-09 0)
(-3.35782e-10 2.13292e-09 0)
(4.38367e-10 2.64582e-09 0)
(-4.4897e-10 -1.13732e-10 0)
(-6.26579e-10 -1.50596e-09 0)
(-2.03659e-09 -2.7202e-09 0)
(4.06158e-10 -2.67803e-09 0)
(-2.17535e-09 4.33089e-09 0)
(7.78705e-09 -4.17863e-09 0)
(-1.68385e-08 1.1446e-08 0)
(1.57091e-08 -1.53752e-08 0)
(3.44249e-09 -4.23713e-09 0)
(-9.89847e-09 7.18824e-09 0)
(9.53682e-09 -5.06301e-12 0)
(1.29087e-09 2.74023e-09 0)
(-3.82561e-09 4.14571e-09 0)
(-1.94427e-09 3.09111e-09 0)
(-1.81213e-09 4.91257e-09 0)
(-1.73775e-09 7.29912e-09 0)
(1.44251e-09 3.6007e-09 0)
(1.30995e-09 8.91599e-11 0)
(8.73139e-10 1.61809e-09 0)
(4.50256e-11 1.88259e-09 0)
(-4.63843e-10 -7.68056e-11 0)
(-1.20038e-09 -1.94335e-09 0)
(-5.40376e-10 -2.75775e-09 0)
(2.919e-10 1.53747e-09 0)
(-1.13249e-09 -2.85907e-10 0)
(2.06037e-09 5.92702e-09 0)
(2.85021e-09 -2.67925e-08 0)
(-2.53607e-08 4.04312e-08 0)
(3.88057e-08 -3.57823e-08 0)
(3.42665e-09 -7.51642e-09 0)
(-7.89513e-09 2.25103e-09 0)
(7.29659e-09 -1.89834e-09 0)
(3.30949e-09 5.04675e-10 0)
(-1.0704e-09 3.29018e-09 0)
(-1.94599e-09 6.24287e-09 0)
(-4.06317e-09 7.84785e-09 0)
(-4.36461e-09 3.71928e-09 0)
(7.05194e-10 9.57869e-10 0)
(7.45969e-10 6.16668e-10 0)
(-4.10803e-10 2.67171e-10 0)
(-9.27172e-10 -2.27853e-10 0)
(-2.42634e-11 -3.67096e-10 0)
(1.08209e-09 1.02342e-09 0)
(-1.28308e-09 2.34277e-09 0)
(4.47786e-09 -5.8825e-10 0)
(-2.6669e-08 9.29358e-10 0)
(5.79889e-08 -4.49893e-08 0)
(-4.05582e-08 -1.11522e-08 0)
(-6.45914e-08 9.13721e-10 0)
(4.7005e-08 -2.66355e-08 0)
(1.33188e-08 -6.4027e-09 0)
(1.01951e-09 -3.14064e-09 0)
(5.90652e-09 -4.23592e-09 0)
(4.51662e-09 -1.12367e-09 0)
(5.93784e-10 2.44359e-09 0)
(-5.16826e-09 4.27934e-09 0)
(-8.33345e-09 2.00386e-09 0)
(-2.76623e-10 1.1997e-09 0)
(-2.01559e-10 -3.68945e-10 0)
(-1.01482e-09 -1.23786e-09 0)
(9.17685e-12 2.40867e-10 0)
(1.39234e-09 2.1308e-09 0)
(1.51031e-09 3.86082e-09 0)
(5.24843e-11 5.03271e-10 0)
(-4.1423e-09 -2.88532e-09 0)
(-1.94184e-08 -8.29842e-09 0)
(-7.23377e-08 5.61864e-08 0)
(2.26065e-07 -2.07672e-08 0)
(-4.29796e-08 3.03415e-08 0)
(-1.47309e-08 2.95452e-08 0)
(2.34999e-08 1.56114e-09 0)
(1.00883e-08 -4.45223e-09 0)
(7.18667e-09 -7.32307e-09 0)
(8.01812e-09 -6.38598e-09 0)
(3.55917e-09 -3.90908e-09 0)
(-3.68499e-09 -1.67831e-09 0)
(-8.42794e-09 -7.66342e-10 0)
(-1.13313e-09 5.82653e-10 0)
(-1.37614e-09 -9.19722e-10 0)
(-7.04757e-10 -1.35426e-09 0)
(1.16541e-09 1.444e-09 0)
(3.05865e-09 3.86267e-09 0)
(4.51898e-10 1.97295e-09 0)
(-3.11779e-09 -2.17548e-09 0)
(-1.69959e-09 -4.92221e-09 0)
(1.7513e-08 -3.80238e-09 0)
(6.89563e-08 5.94907e-08 0)
(-2.30432e-07 -6.53332e-09 0)
(4.62049e-08 3.72124e-08 0)
(3.57736e-09 3.6225e-08 0)
(-3.28454e-08 1.07825e-08 0)
(-1.01595e-08 2.34761e-09 0)
(3.60068e-09 -3.8169e-09 0)
(1.10731e-08 -8.60991e-09 0)
(6.17159e-09 -8.64649e-09 0)
(-6.02706e-10 -5.78215e-09 0)
(-1.67511e-09 -1.57249e-09 0)
(-1.72598e-09 -4.15885e-10 0)
(-1.49384e-09 -5.95687e-10 0)
(-4.93872e-11 -1.79164e-10 0)
(2.47049e-09 2.40171e-09 0)
(2.28214e-09 2.66216e-09 0)
(-1.39577e-09 -1.19137e-09 0)
(-3.29515e-09 -4.78234e-09 0)
(-5.17618e-09 -1.18766e-09 0)
(2.54648e-08 1.17161e-08 0)
(-4.71635e-08 -3.44865e-08 0)
(4.00679e-08 7.38351e-09 0)
(6.11646e-08 8.12014e-09 0)
(-5.24728e-08 -1.93339e-08 0)
(-2.39698e-08 6.64118e-09 0)
(-1.01665e-08 7.89282e-09 0)
(-6.17537e-09 3.29573e-09 0)
(-3.21738e-10 -2.87307e-09 0)
(5.44708e-09 -5.42353e-09 0)
(4.26918e-09 -4.74344e-09 0)
(-2.32939e-09 -1.42511e-09 0)
(-1.64043e-09 -1.38021e-09 0)
(-5.46448e-10 6.32436e-10 0)
(8.18036e-10 1.17037e-09 0)
(2.32729e-09 1.42502e-09 0)
(1.13884e-09 -2.28424e-10 0)
(-3.1341e-09 -3.24873e-09 0)
(-3.11025e-09 -3.29849e-10 0)
(5.5394e-09 -1.34063e-10 0)
(-1.24026e-09 9.19253e-09 0)
(-3.25191e-10 -9.16229e-09 0)
(5.23391e-08 4.26082e-08 0)
(-5.14179e-08 -1.06013e-08 0)
(6.67575e-09 -3.17366e-09 0)
(4.94849e-09 4.18288e-09 0)
(-1.4687e-08 3.63144e-09 0)
(-9.66197e-09 4.35653e-09 0)
(-2.85123e-09 3.37984e-09 0)
(1.20516e-09 1.10682e-09 0)
(2.34512e-09 -4.53285e-10 0)
(1.75812e-09 -7.72208e-10 0)
(-6.61857e-10 -1.86365e-09 0)
(1.17285e-09 1.5822e-09 0)
(9.8866e-10 2.26943e-09 0)
(1.01851e-09 -8.04686e-10 0)
(-8.41544e-11 -3.16299e-09 0)
(-1.79775e-09 -2.06088e-09 0)
(-1.9379e-09 3.90426e-09 0)
(2.11507e-09 5.11184e-09 0)
(1.11476e-08 -1.36822e-08 0)
(2.07875e-08 -4.45945e-09 0)
(2.54395e-07 -2.42768e-08 0)
(1.2636e-08 -3.49588e-08 0)
(-1.88395e-08 -4.18518e-09 0)
(-1.13625e-08 -1.12064e-08 0)
(-9.28586e-09 -5.0402e-09 0)
(-6.96615e-09 3.31058e-09 0)
(-3.22593e-09 6.09322e-09 0)
(-4.95434e-10 4.6218e-09 0)
(1.28756e-09 3.29709e-09 0)
(6.2585e-10 1.18901e-09 0)
(9.72844e-10 -1.59008e-09 0)
(3.0954e-09 1.25459e-09 0)
(2.52891e-10 2.2148e-09 0)
(-1.18406e-09 -1.51832e-09 0)
(-7.93914e-10 -4.23756e-09 0)
(9.54112e-10 -1.08058e-09 0)
(-1.03031e-10 5.22043e-09 0)
(-8.6929e-10 5.80305e-09 0)
(-1.46326e-08 -1.0732e-08 0)
(8.72139e-09 -1.25676e-08 0)
(-2.78872e-07 -4.2757e-08 0)
(-2.2452e-08 -2.47497e-08 0)
(2.42436e-08 -1.8826e-08 0)
(-1.39431e-09 -1.66114e-08 0)
(3.15423e-09 -6.41774e-09 0)
(5.21024e-09 3.293e-09 0)
(1.12595e-09 6.98788e-09 0)
(2.42962e-10 4.97684e-09 0)
(7.27146e-10 3.0728e-09 0)
(-1.96092e-09 1.10425e-09 0)
(2.96363e-09 -7.9229e-10 0)
(3.97471e-09 -6.19283e-10 0)
(-2.1259e-10 8.00742e-10 0)
(-3.33681e-09 4.20613e-10 0)
(-1.95396e-09 -1.74404e-09 0)
(2.55314e-09 -1.27873e-09 0)
(2.68725e-09 1.54651e-09 0)
(-7.32327e-09 5.5534e-09 0)
(4.34591e-09 4.20174e-09 0)
(-1.70738e-08 5.38036e-09 0)
(-2.46084e-08 -3.83548e-09 0)
(2.78041e-08 1.77198e-08 0)
(-1.82209e-08 -6.04574e-09 0)
(1.46043e-09 -3.89759e-09 0)
(1.43621e-08 2.8533e-09 0)
(9.71954e-09 5.47863e-09 0)
(2.09419e-09 4.71746e-09 0)
(-5.81809e-10 8.21152e-10 0)
(-1.3195e-09 -2.17277e-09 0)
(-3.96946e-09 -1.45923e-09 0)
(4.08192e-09 1.38464e-10 0)
(3.85057e-09 -2.27326e-09 0)
(3.17054e-10 -1.72134e-09 0)
(-3.74386e-09 2.64461e-09 0)
(-4.15017e-09 3.03065e-09 0)
(1.32743e-09 2.77334e-10 0)
(3.35645e-09 -3.67093e-09 0)
(4.27535e-10 3.2176e-10 0)
(-4.90872e-09 1.22808e-08 0)
(-8.89618e-09 -2.13857e-09 0)
(5.24918e-09 2.73196e-08 0)
(-1.04184e-08 2.33925e-10 0)
(3.62877e-09 3.25737e-09 0)
(1.56099e-08 9.25597e-09 0)
(1.50017e-08 8.08688e-09 0)
(5.8989e-09 4.46096e-09 0)
(-3.12831e-09 4.00741e-10 0)
(-5.25261e-09 -4.36227e-09 0)
(-3.8594e-09 -7.81511e-09 0)
(-2.13761e-09 -4.2273e-09 0)
(3.79169e-09 1.15984e-09 0)
(2.55068e-09 -1.86705e-09 0)
(1.73776e-09 -3.86909e-09 0)
(-2.13582e-09 8.39016e-10 0)
(-4.60663e-09 5.84752e-09 0)
(-2.52185e-09 3.08471e-09 0)
(2.61839e-09 -4.18904e-09 0)
(2.1178e-09 -7.16046e-09 0)
(-9.36981e-10 -2.46173e-10 0)
(4.3383e-09 9.44856e-09 0)
(2.60914e-09 9.83906e-09 0)
(-3.12813e-09 9.86484e-09 0)
(7.9961e-09 1.25567e-08 0)
(1.21216e-08 9.9332e-09 0)
(7.1723e-09 4.20155e-09 0)
(-2.97617e-09 -1.75691e-09 0)
(-9.64732e-09 -4.00673e-09 0)
(-9.51931e-09 -5.59392e-09 0)
(-3.8627e-09 -7.41914e-09 0)
(3.58909e-09 -3.89542e-09 0)
(2.03582e-09 2.27973e-09 0)
(8.57108e-10 -1.44944e-10 0)
(2.13451e-09 -3.95611e-09 0)
(6.67866e-10 -3.55712e-09 0)
(-2.82647e-09 2.74572e-09 0)
(-4.25536e-09 4.5832e-09 0)
(-9.66532e-10 -2.74267e-10 0)
(1.22273e-09 -7.27208e-09 0)
(2.09972e-09 -5.99176e-09 0)
(5.73808e-10 -1.68689e-09 0)
(-8.13504e-10 -3.34186e-09 0)
(2.96493e-10 4.12293e-09 0)
(3.52559e-09 5.20386e-09 0)
(3.07332e-09 2.46731e-09 0)
(-3.67457e-09 -3.96187e-09 0)
(-9.28547e-09 -7.22368e-09 0)
(-1.16109e-08 -4.9246e-09 0)
(-8.75384e-09 -1.33207e-09 0)
(-7.02206e-11 -5.72429e-10 0)
(8.51829e-09 -3.63754e-10 0)
(-1.42325e-10 3.02907e-09 0)
(-1.06112e-09 7.08074e-10 0)
(7.57917e-10 -2.25529e-09 0)
(1.90412e-09 -5.47101e-09 0)
(3.92244e-10 -3.04025e-09 0)
(-2.41643e-09 1.88235e-09 0)
(-2.24023e-09 2.72204e-09 0)
(-1.46396e-10 -5.63846e-10 0)
(5.81411e-10 -3.43228e-09 0)
(-8.72658e-10 -4.12242e-09 0)
(4.74569e-10 -4.51265e-09 0)
(1.23688e-09 -2.55636e-09 0)
(9.80546e-10 -7.49739e-10 0)
(-3.08797e-09 -3.68788e-09 0)
(-7.60717e-09 -7.35109e-09 0)
(-8.38045e-09 -6.65088e-09 0)
(-6.9742e-09 -1.0858e-09 0)
(-3.02728e-09 5.60793e-09 0)
(3.78907e-09 7.52459e-09 0)
(7.99718e-09 3.49424e-09 0)
(-1.98632e-09 3.60522e-09 0)
(-2.61763e-09 7.79381e-10 0)
(-1.44174e-09 -6.57021e-10 0)
(1.14744e-09 -3.91254e-09 0)
(2.37177e-09 -5.65887e-09 0)
(1.20125e-09 -1.74694e-09 0)
(-5.55898e-10 1.83193e-09 0)
(-6.59177e-10 3.2622e-09 0)
(-1.29479e-09 1.32281e-09 0)
(-1.3083e-09 1.21947e-10 0)
(-3.24687e-10 -4.1147e-10 0)
(1.62798e-09 -6.11995e-10 0)
(7.74405e-10 5.30496e-11 0)
(-3.30943e-09 -2.25569e-09 0)
(-4.71951e-09 -3.63813e-09 0)
(-2.53325e-09 -1.75334e-09 0)
(9.38942e-10 3.2364e-09 0)
(3.34035e-09 8.70512e-09 0)
(3.44032e-09 9.71715e-09 0)
(9.3964e-10 4.35996e-09 0)
(-3.60093e-09 1.9931e-09 0)
(-4.41006e-09 4.69501e-10 0)
(-3.52522e-09 -1.16285e-10 0)
(-9.42801e-11 -1.28718e-09 0)
(3.0609e-09 -2.78217e-09 0)
(3.80107e-09 -1.45442e-09 0)
(1.59353e-09 2.91522e-10 0)
(-3.45176e-10 1.72527e-09 0)
(-2.20854e-09 1.40129e-09 0)
(-1.93911e-09 1.08696e-09 0)
(-6.05821e-10 7.21018e-10 0)
(2.15109e-09 6.63738e-10 0)
(1.2052e-09 7.65783e-10 0)
(-1.7822e-09 -9.23067e-11 0)
(-1.52216e-09 -3.9909e-10 0)
(1.37849e-09 3.87527e-10 0)
(5.35491e-09 2.21206e-09 0)
(5.69454e-09 4.09934e-09 0)
(5.11344e-10 4.15934e-09 0)
(-5.59961e-09 1.8097e-09 0)
)
;

boundaryField
{
    sides
    {
        type            calculated;
        value           nonuniform List<vector> 
40
(
(-3.60093e-09 0 0)
(-4.41006e-09 0 0)
(-3.52522e-09 0 0)
(-9.42801e-11 0 0)
(3.0609e-09 0 0)
(3.80107e-09 0 0)
(1.59353e-09 0 0)
(-3.45176e-10 0 0)
(-2.20854e-09 0 0)
(-1.93911e-09 0 0)
(-6.05821e-10 0 0)
(2.15109e-09 0 0)
(1.2052e-09 0 0)
(-1.7822e-09 0 0)
(-1.52216e-09 0 0)
(1.37849e-09 0 0)
(5.35491e-09 0 0)
(5.69454e-09 0 0)
(5.11344e-10 0 0)
(-5.59961e-09 0 0)
(-2.59023e-09 0 0)
(1.50058e-09 0 0)
(-4.74457e-10 0 0)
(-3.82136e-10 0 0)
(8.62677e-10 0 0)
(3.35926e-09 0 0)
(2.63574e-09 0 0)
(2.04242e-09 0 0)
(-2.58564e-09 0 0)
(-1.47523e-09 0 0)
(-8.18043e-10 0 0)
(-7.80219e-11 0 0)
(4.91929e-10 0 0)
(-3.33473e-09 0 0)
(-1.18494e-09 0 0)
(-3.69141e-10 0 0)
(-4.37614e-10 0 0)
(1.24411e-09 0 0)
(-3.62229e-10 0 0)
(-7.10952e-09 0 0)
)
;
    }
    inlet
    {
        type            calculated;
        value           uniform (0 0 0);
    }
    outlet
    {
        type            calculated;
        value           nonuniform List<vector> 
20
(
(-7.10952e-09 -3.09419e-09 0)
(-1.77032e-10 -4.38366e-09 0)
(4.17867e-09 -1.69531e-09 0)
(5.93879e-09 1.0614e-09 0)
(1.44251e-09 3.6007e-09 0)
(-4.36461e-09 3.71928e-09 0)
(-8.33345e-09 2.00386e-09 0)
(-8.42794e-09 -7.66342e-10 0)
(-1.67511e-09 -1.57249e-09 0)
(-2.32939e-09 -1.42511e-09 0)
(1.75812e-09 -7.72208e-10 0)
(6.2585e-10 1.18901e-09 0)
(-1.96092e-09 1.10425e-09 0)
(-3.96946e-09 -1.45923e-09 0)
(-2.13761e-09 -4.2273e-09 0)
(3.58909e-09 -3.89542e-09 0)
(8.51829e-09 -3.63754e-10 0)
(7.99718e-09 3.49424e-09 0)
(9.3964e-10 4.35996e-09 0)
(-5.59961e-09 1.8097e-09 0)
)
;
    }
    frontAndBack
    {
        type            empty;
    }
}


// ************************************************************************* //
