/*--------------------------------*- C++ -*----------------------------------*\
  =========                 |
  \\      /  F ield         | OpenFOAM: The Open Source CFD Toolbox
   \\    /   O peration     | Website:  https://openfoam.org
    \\  /    A nd           | Version:  9
     \\/     M anipulation  |
\*---------------------------------------------------------------------------*/
FoamFile
{
    format      ascii;
    class       volVectorField;
    location    "81";
    object      hU;
}
// * * * * * * * * * * * * * * * * * * * * * * * * * * * * * * * * * * * * * //

dimensions      [0 2 -1 0 0 0 0];

internalField   nonuniform List<vector> 
400
(
(0.001 -2.36632e-08 0)
(0.00100004 -7.03526e-08 0)
(0.00100012 -1.13445e-07 0)
(0.00100024 -1.52608e-07 0)
(0.00100039 -1.87427e-07 0)
(0.00100058 -2.16785e-07 0)
(0.00100078 -2.36754e-07 0)
(0.00100099 -2.45129e-07 0)
(0.00100118 -2.35977e-07 0)
(0.00100133 -2.10772e-07 0)
(0.0010014 -1.67897e-07 0)
(0.0010014 -1.28034e-07 0)
(0.00100129 -9.88433e-08 0)
(0.00100111 -9.30027e-08 0)
(0.00100087 -9.9719e-08 0)
(0.00100064 -1.35564e-07 0)
(0.00100044 -1.56264e-07 0)
(0.00100034 -2.01136e-07 0)
(0.00100026 -1.89105e-07 0)
(0.00100033 -2.68668e-07 0)
(0.001 -2.56475e-08 0)
(0.00100005 -7.84484e-08 0)
(0.00100013 -1.28593e-07 0)
(0.00100026 -1.74406e-07 0)
(0.00100042 -2.13623e-07 0)
(0.00100062 -2.40336e-07 0)
(0.00100084 -2.45545e-07 0)
(0.00100108 -2.19852e-07 0)
(0.0010013 -1.53938e-07 0)
(0.00100147 -4.68165e-08 0)
(0.00100156 9.46402e-08 0)
(0.00100154 2.4854e-07 0)
(0.00100141 3.90209e-07 0)
(0.00100119 4.76933e-07 0)
(0.00100092 5.05111e-07 0)
(0.00100067 4.521e-07 0)
(0.00100048 3.79131e-07 0)
(0.00100036 2.57799e-07 0)
(0.00100033 2.05186e-07 0)
(0.00100029 8.07084e-08 0)
(0.001 -5.18331e-08 0)
(0.00100004 -1.58635e-07 0)
(0.00100013 -2.6686e-07 0)
(0.00100026 -3.73937e-07 0)
(0.00100043 -4.73919e-07 0)
(0.00100064 -5.55524e-07 0)
(0.0010009 -6.03354e-07 0)
(0.00100117 -5.97235e-07 0)
(0.00100143 -5.17433e-07 0)
(0.00100164 -3.51211e-07 0)
(0.00100176 -1.08835e-07 0)
(0.00100176 1.63596e-07 0)
(0.00100159 4.02933e-07 0)
(0.0010013 5.2082e-07 0)
(0.00100095 4.99935e-07 0)
(0.00100062 3.54374e-07 0)
(0.00100037 2.04056e-07 0)
(0.00100026 4.7228e-08 0)
(0.00100022 -2.69457e-09 0)
(0.0010003 -1.17251e-07 0)
(0.001 -7.31871e-08 0)
(0.00100004 -2.21804e-07 0)
(0.00100013 -3.74477e-07 0)
(0.00100026 -5.30558e-07 0)
(0.00100045 -6.80959e-07 0)
(0.00100069 -8.10165e-07 0)
(0.001001 -8.89154e-07 0)
(0.00100134 -8.85498e-07 0)
(0.00100171 -7.55197e-07 0)
(0.00100203 -4.74689e-07 0)
(0.00100222 -2.27823e-08 0)
(0.00100219 4.94253e-07 0)
(0.00100192 9.37953e-07 0)
(0.00100146 1.14078e-06 0)
(0.00100097 1.05562e-06 0)
(0.00100058 7.43754e-07 0)
(0.00100041 4.24509e-07 0)
(0.00100035 1.70848e-07 0)
(0.0010004 1.02401e-07 0)
(0.00100035 2.79328e-10 0)
(0.001 -9.08453e-08 0)
(0.00100004 -2.77448e-07 0)
(0.00100012 -4.76396e-07 0)
(0.00100025 -6.93823e-07 0)
(0.00100044 -9.20965e-07 0)
(0.00100072 -1.13952e-06 0)
(0.00100109 -1.29908e-06 0)
(0.00100155 -1.33682e-06 0)
(0.00100207 -1.17545e-06 0)
(0.00100257 -7.78068e-07 0)
(0.0010029 -1.71557e-07 0)
(0.00100288 5.79144e-07 0)
(0.00100244 1.23207e-06 0)
(0.00100167 1.51234e-06 0)
(0.00100086 1.37587e-06 0)
(0.00100031 9.65121e-07 0)
(0.00100013 5.8169e-07 0)
(0.00100021 3.14996e-07 0)
(0.00100036 2.62706e-07 0)
(0.00100043 1.67894e-07 0)
(0.001 -1.03274e-07 0)
(0.00100003 -3.18052e-07 0)
(0.00100009 -5.61604e-07 0)
(0.00100019 -8.44506e-07 0)
(0.00100038 -1.17297e-06 0)
(0.00100068 -1.52529e-06 0)
(0.00100115 -1.85892e-06 0)
(0.00100179 -2.05368e-06 0)
(0.00100254 -1.91158e-06 0)
(0.00100326 -1.20253e-06 0)
(0.00100377 8.43008e-08 0)
(0.00100378 1.53882e-06 0)
(0.00100309 2.43297e-06 0)
(0.00100192 2.30504e-06 0)
(0.00100082 1.43006e-06 0)
(0.00100019 4.9233e-07 0)
(0.00100017 1.31711e-08 0)
(0.00100037 -8.49655e-08 0)
(0.00100064 6.07331e-08 0)
(0.00100054 5.00377e-08 0)
(0.001 -1.02528e-07 0)
(0.001 -3.33169e-07 0)
(0.00100002 -6.01664e-07 0)
(0.00100008 -9.62078e-07 0)
(0.00100021 -1.39268e-06 0)
(0.00100048 -1.94626e-06 0)
(0.001001 -2.48871e-06 0)
(0.00100188 -3.08369e-06 0)
(0.00100321 -3.23359e-06 0)
(0.00100473 -2.8841e-06 0)
(0.00100573 -6.73351e-07 0)
(0.00100535 2.5528e-06 0)
(0.0010035 4.82595e-06 0)
(0.00100112 4.73605e-06 0)
(0.000999609 3.02794e-06 0)
(0.000999372 1.26326e-06 0)
(0.00100001 4.30567e-07 0)
(0.00100056 3.26789e-07 0)
(0.00100092 5.62295e-07 0)
(0.00100066 5.33841e-07 0)
(0.000999996 -9.24879e-08 0)
(0.000999968 -2.88568e-07 0)
(0.000999907 -5.77052e-07 0)
(0.000999876 -9.57105e-07 0)
(0.000999878 -1.57771e-06 0)
(0.0010001 -2.34457e-06 0)
(0.0010005 -3.40197e-06 0)
(0.00100152 -4.12478e-06 0)
(0.00100308 -4.37386e-06 0)
(0.00100601 -2.5459e-06 0)
(0.0010091 7.55393e-07 0)
(0.00100915 4.27188e-06 0)
(0.00100551 4.72138e-06 0)
(0.00100074 2.78243e-06 0)
(0.000998152 7.34358e-07 0)
(0.000998275 -2.75865e-07 0)
(0.000999798 -2.86773e-07 0)
(0.00100087 -1.02607e-08 0)
(0.00100133 2.11724e-07 0)
(0.00100085 1.02526e-07 0)
(0.000999995 -4.91909e-08 0)
(0.000999915 -2.03714e-07 0)
(0.000999756 -3.86697e-07 0)
(0.000999531 -7.35246e-07 0)
(0.000999287 -1.33848e-06 0)
(0.00099921 -2.48113e-06 0)
(0.000999706 -4.68745e-06 0)
(0.00100139 -8.0691e-06 0)
(0.00100491 -1.32864e-05 0)
(0.00100958 -1.49088e-05 0)
(0.00101189 3.84473e-06 0)
(0.00100893 1.87352e-05 0)
(0.00100221 1.57847e-05 0)
(0.000997564 5.74274e-06 0)
(0.000996885 -3.16372e-07 0)
(0.000998462 -1.26442e-06 0)
(0.00100027 -9.57875e-08 0)
(0.001001 6.33557e-07 0)
(0.00100107 6.51085e-07 0)
(0.00100054 2.43444e-07 0)
(0.000999804 -1.98297e-08 0)
(0.00100017 -6.65708e-08 0)
(0.000999216 -1.51428e-07 0)
(0.000999904 -2.48646e-07 0)
(0.000997521 -5.92053e-07 0)
(0.000998843 -1.13144e-06 0)
(0.000993346 -2.88427e-06 0)
(0.00099753 -5.59345e-06 0)
(0.000991668 -1.15417e-05 0)
(0.00091583 -1.27082e-05 0)
(0.00095147 2.72814e-07 0)
(0.00101023 1.46388e-05 0)
(0.000990944 1.30843e-05 0)
(0.000983971 5.1422e-06 0)
(0.000989585 1.95104e-07 0)
(0.000996281 -7.81417e-07 0)
(0.000999237 -1.12363e-07 0)
(0.000999413 2.47449e-07 0)
(0.000998648 1.73462e-07 0)
(0.000998505 -1.85217e-07 0)
(0.000999804 1.29913e-08 0)
(0.00100017 4.60845e-08 0)
(0.000999215 1.17701e-07 0)
(0.000999903 2.00252e-07 0)
(0.000997519 5.29431e-07 0)
(0.000998837 1.05081e-06 0)
(0.000993338 2.78577e-06 0)
(0.000997519 5.47308e-06 0)
(0.000991651 1.13973e-05 0)
(0.00091581 1.25482e-05 0)
(0.000951433 -4.72585e-07 0)
(0.0010102 -1.49083e-05 0)
(0.000990945 -1.34087e-05 0)
(0.000983965 -5.53505e-06 0)
(0.000989565 -6.47668e-07 0)
(0.000996242 2.48727e-07 0)
(0.000999195 -4.72088e-07 0)
(0.000999367 -1.0025e-06 0)
(0.000998634 -9.88987e-07 0)
(0.000998455 -8.88956e-07 0)
(0.000999995 4.26551e-08 0)
(0.000999915 1.84085e-07 0)
(0.000999755 3.53824e-07 0)
(0.000999531 6.87614e-07 0)
(0.000999285 1.27624e-06 0)
(0.00099921 2.40062e-06 0)
(0.000999701 4.58853e-06 0)
(0.00100139 7.94306e-06 0)
(0.0010049 1.31309e-05 0)
(0.00100958 1.47165e-05 0)
(0.00101191 -4.06731e-06 0)
(0.0010089 -1.90102e-05 0)
(0.00100214 -1.60978e-05 0)
(0.000997476 -6.12427e-06 0)
(0.000996813 -8.44241e-08 0)
(0.0009984 7.76305e-07 0)
(0.00100017 -4.26192e-07 0)
(0.00100085 -1.30446e-06 0)
(0.00100088 -1.3791e-06 0)
(0.00100037 -1.25076e-06 0)
(0.000999996 8.64539e-08 0)
(0.000999968 2.7011e-07 0)
(0.000999906 5.45088e-07 0)
(0.000999871 9.10434e-07 0)
(0.00099987 1.51319e-06 0)
(0.00100008 2.26044e-06 0)
(0.00100048 3.29317e-06 0)
(0.00100149 3.9916e-06 0)
(0.00100303 4.21103e-06 0)
(0.00100594 2.36259e-06 0)
(0.001009 -9.81613e-07 0)
(0.00100906 -4.54394e-06 0)
(0.00100543 -5.02248e-06 0)
(0.00100066 -3.13114e-06 0)
(0.000998059 -1.13147e-06 0)
(0.000998135 -2.5031e-07 0)
(0.000999622 -3.21423e-07 0)
(0.00100064 -7.40827e-07 0)
(0.00100106 -9.67054e-07 0)
(0.00100055 -1.07388e-06 0)
(0.001 9.69803e-08 0)
(0.001 3.15399e-07 0)
(0.00100002 5.71387e-07 0)
(0.00100007 9.17647e-07 0)
(0.0010002 1.33337e-06 0)
(0.00100046 1.87e-06 0)
(0.00100097 2.39788e-06 0)
(0.00100185 2.9752e-06 0)
(0.00100318 3.11274e-06 0)
(0.00100468 2.7342e-06 0)
(0.00100568 5.07639e-07 0)
(0.00100527 -2.74977e-06 0)
(0.00100338 -5.07647e-06 0)
(0.00100097 -5.06985e-06 0)
(0.000999411 -3.44842e-06 0)
(0.000999123 -1.79314e-06 0)
(0.000999744 -1.02022e-06 0)
(0.00100025 -1.05914e-06 0)
(0.00100061 -1.30762e-06 0)
(0.00100024 -1.51578e-06 0)
(0.001 9.81612e-08 0)
(0.00100003 3.02062e-07 0)
(0.00100008 5.34693e-07 0)
(0.00100018 8.05661e-07 0)
(0.00100036 1.1217e-06 0)
(0.00100066 1.45893e-06 0)
(0.00100112 1.77711e-06 0)
(0.00100174 1.9502e-06 0)
(0.00100248 1.78379e-06 0)
(0.00100317 1.03677e-06 0)
(0.00100366 -2.75712e-07 0)
(0.00100363 -1.77921e-06 0)
(0.00100292 -2.70806e-06 0)
(0.00100171 -2.62969e-06 0)
(0.00100058 -1.7777e-06 0)
(0.000999905 -8.94843e-07 0)
(0.000999858 -4.27244e-07 0)
(0.000999981 -4.48746e-07 0)
(0.00100022 -6.17535e-07 0)
(0.00100001 -8.49035e-07 0)
(0.001 8.60529e-08 0)
(0.00100004 2.63567e-07 0)
(0.00100011 4.53219e-07 0)
(0.00100024 6.61163e-07 0)
(0.00100043 8.7813e-07 0)
(0.0010007 1.08457e-06 0)
(0.00100106 1.22924e-06 0)
(0.0010015 1.25159e-06 0)
(0.001002 1.07312e-06 0)
(0.00100248 6.57681e-07 0)
(0.0010028 1.9398e-08 0)
(0.00100274 -7.69009e-07 0)
(0.00100228 -1.44869e-06 0)
(0.00100146 -1.77349e-06 0)
(0.00100062 -1.6679e-06 0)
(0.00100001 -1.3486e-06 0)
(0.000999793 -1.03019e-06 0)
(0.000999765 -9.38106e-07 0)
(0.000999885 -9.46354e-07 0)
(0.000999768 -1.10875e-06 0)
(0.001 6.89852e-08 0)
(0.00100004 2.09264e-07 0)
(0.00100012 3.53387e-07 0)
(0.00100025 5.00832e-07 0)
(0.00100043 6.44169e-07 0)
(0.00100066 7.66056e-07 0)
(0.00100095 8.37404e-07 0)
(0.00100129 8.24962e-07 0)
(0.00100163 6.90283e-07 0)
(0.00100191 4.0569e-07 0)
(0.00100206 -4.7618e-08 0)
(0.001002 -5.76306e-07 0)
(0.00100171 -1.03585e-06 0)
(0.0010012 -1.28168e-06 0)
(0.00100065 -1.23018e-06 0)
(0.00100016 -9.95171e-07 0)
(0.000999914 -7.02925e-07 0)
(0.00099974 -5.57604e-07 0)
(0.000999753 -4.87569e-07 0)
(0.000999562 -5.98201e-07 0)
(0.001 5.00686e-08 0)
(0.00100004 1.4952e-07 0)
(0.00100012 2.46543e-07 0)
(0.00100025 3.38397e-07 0)
(0.00100041 4.212e-07 0)
(0.00100062 4.83162e-07 0)
(0.00100086 5.08577e-07 0)
(0.00100112 4.73125e-07 0)
(0.00100137 3.61032e-07 0)
(0.00100157 1.55302e-07 0)
(0.00100167 -1.17711e-07 0)
(0.00100161 -4.22199e-07 0)
(0.00100139 -6.8234e-07 0)
(0.00100103 -8.42802e-07 0)
(0.00100064 -8.50616e-07 0)
(0.00100022 -7.71262e-07 0)
(0.000999951 -6.38399e-07 0)
(0.00099969 -5.96866e-07 0)
(0.000999629 -5.61084e-07 0)
(0.000999388 -6.84292e-07 0)
(0.001 3.44419e-08 0)
(0.00100004 1.04491e-07 0)
(0.00100011 1.7451e-07 0)
(0.00100023 2.41597e-07 0)
(0.00100038 3.01636e-07 0)
(0.00100056 3.49173e-07 0)
(0.00100077 3.75024e-07 0)
(0.00100097 3.68875e-07 0)
(0.00100116 3.19961e-07 0)
(0.0010013 2.24035e-07 0)
(0.00100136 8.57149e-08 0)
(0.00100131 -7.1115e-08 0)
(0.00100115 -2.06424e-07 0)
(0.00100086 -2.97162e-07 0)
(0.00100054 -3.12008e-07 0)
(0.00100017 -2.81595e-07 0)
(0.000999902 -2.02641e-07 0)
(0.000999614 -1.68643e-07 0)
(0.000999518 -1.18201e-07 0)
(0.000999249 -1.97995e-07 0)
(0.001 -4.08738e-09 0)
(0.00100004 -9.9853e-09 0)
(0.00100012 -1.29436e-08 0)
(0.00100024 -1.47992e-08 0)
(0.00100039 -1.73873e-08 0)
(0.00100056 -2.32123e-08 0)
(0.00100075 -3.39902e-08 0)
(0.00100094 -5.3452e-08 0)
(0.00100111 -8.17553e-08 0)
(0.00100123 -1.22206e-07 0)
(0.00100128 -1.70101e-07 0)
(0.00100122 -2.31538e-07 0)
(0.00100107 -2.90503e-07 0)
(0.00100081 -3.40995e-07 0)
(0.00100053 -3.59292e-07 0)
(0.00100018 -3.67712e-07 0)
(0.000999947 -3.42286e-07 0)
(0.000999611 -3.52837e-07 0)
(0.000999522 -3.27826e-07 0)
(0.00099913 -4.10491e-07 0)
)
;

boundaryField
{
    sides
    {
        type            slip;
    }
    inlet
    {
        type            fixedValue;
        value           uniform (0.001 0 0);
    }
    outlet
    {
        type            zeroGradient;
    }
    frontAndBack
    {
        type            empty;
    }
}


// ************************************************************************* //
