/*--------------------------------*- C++ -*----------------------------------*\
  =========                 |
  \\      /  F ield         | OpenFOAM: The Open Source CFD Toolbox
   \\    /   O peration     | Website:  https://openfoam.org
    \\  /    A nd           | Version:  9
     \\/     M anipulation  |
\*---------------------------------------------------------------------------*/
FoamFile
{
    format      ascii;
    class       surfaceScalarField;
    location    "81";
    object      phi;
}
// * * * * * * * * * * * * * * * * * * * * * * * * * * * * * * * * * * * * * //

dimensions      [0 4 -1 0 0 0 0];

internalField   nonuniform List<scalar> 
760
(
5.0001e-06
-8.94355e-11
5.0004e-06
-3.05248e-10
5.00091e-06
-5.14588e-10
5.00162e-06
-7.06274e-10
5.00249e-06
-8.75121e-10
5.0035e-06
-1.00331e-09
5.00455e-06
-1.0574e-09
5.00556e-06
-1.01132e-09
5.0064e-06
-8.29214e-10
5.00692e-06
-5.205e-10
5.00705e-06
-1.22034e-10
5.00665e-06
4.00006e-10
5.0058e-06
8.54325e-10
5.00469e-06
1.10249e-09
5.00352e-06
1.1707e-09
5.00257e-06
9.52165e-10
5.00186e-06
7.15882e-10
5.00161e-06
2.44636e-10
5.0015e-06
1.03925e-10
-3.9456e-10
5.00012e-06
-2.09703e-10
5.00045e-06
-6.32386e-10
5.00098e-06
-1.04667e-09
5.00172e-06
-1.44465e-09
5.00265e-06
-1.80785e-09
5.00374e-06
-2.09309e-09
5.00493e-06
-2.24385e-09
5.00611e-06
-2.18842e-09
5.00713e-06
-1.85079e-09
5.00777e-06
-1.16615e-09
5.00774e-06
-8.90676e-11
5.00725e-06
8.88738e-10
5.00626e-06
1.8452e-09
5.00495e-06
2.41395e-09
5.00368e-06
2.4437e-09
5.00277e-06
1.85794e-09
5.00225e-06
1.24664e-09
5.00191e-06
5.81019e-10
5.00165e-06
3.65814e-10
-1.49903e-10
5.0001e-06
-3.19544e-10
5.00042e-06
-9.50304e-10
5.00096e-06
-1.57534e-09
5.00172e-06
-2.20702e-09
5.00272e-06
-2.80738e-09
5.00394e-06
-3.31547e-09
5.00532e-06
-3.62237e-09
5.00672e-06
-3.59163e-09
5.00793e-06
-3.05697e-09
5.00872e-06
-1.96116e-09
5.00893e-06
-3.0153e-10
5.00825e-06
1.57081e-09
5.00687e-06
3.22876e-09
5.00515e-06
4.13527e-09
5.00351e-06
4.09249e-09
5.00231e-06
3.05641e-09
5.00166e-06
1.89026e-09
5.00147e-06
7.70658e-10
5.00145e-06
3.96735e-10
-2.23121e-10
5.00009e-06
-4.20627e-10
5.0004e-06
-1.2586e-09
5.00094e-06
-2.10944e-09
5.00175e-06
-3.00826e-09
5.00285e-06
-3.91332e-09
5.00429e-06
-4.7493e-09
5.00601e-06
-5.35181e-09
5.00795e-06
-5.52718e-09
5.00984e-06
-4.94818e-09
5.01108e-06
-3.1925e-09
5.01119e-06
-4.38715e-10
5.00999e-06
2.7793e-09
5.00765e-06
5.57225e-09
5.00514e-06
6.64136e-09
5.00347e-06
5.76651e-09
5.0027e-06
3.83079e-09
5.00248e-06
2.11135e-09
5.00231e-06
9.39478e-10
5.002e-06
7.11991e-10
3.39494e-10
5.00008e-06
-5.02808e-10
5.00034e-06
-1.51808e-09
5.00083e-06
-2.60294e-09
5.00163e-06
-3.80943e-09
5.00286e-06
-5.13435e-09
5.00457e-06
-6.46622e-09
5.0068e-06
-7.57489e-09
5.00942e-06
-8.14357e-09
5.01239e-06
-7.92161e-09
5.01478e-06
-5.58742e-09
5.01483e-06
-4.79799e-10
5.01284e-06
4.73837e-09
5.00867e-06
9.7514e-09
5.00459e-06
1.07158e-08
5.00224e-06
8.11916e-09
5.00174e-06
4.32616e-09
5.00204e-06
1.80862e-09
5.00225e-06
7.3049e-10
5.00201e-06
9.57294e-10
6.28609e-10
5.00004e-06
-5.44222e-10
5.0002e-06
-1.67521e-09
5.00054e-06
-2.94489e-09
5.00121e-06
-4.4823e-09
5.00241e-06
-6.33353e-09
5.00452e-06
-8.57723e-09
5.0076e-06
-1.06482e-08
5.01167e-06
-1.22178e-08
5.01553e-06
-1.17679e-08
5.01899e-06
-9.10464e-09
5.02022e-06
-1.66101e-09
5.01603e-06
8.91746e-09
5.0095e-06
1.62438e-08
5.00421e-06
1.60069e-08
5.00217e-06
1.01587e-08
5.00249e-06
3.99903e-09
5.00326e-06
1.03234e-09
5.00339e-06
6.04102e-10
5.0028e-06
1.55321e-09
1.42439e-09
4.99998e-06
-5.24108e-10
4.99994e-06
-1.63418e-09
5.00003e-06
-3.03902e-09
5.00036e-06
-4.8137e-09
5.00122e-06
-7.19328e-09
5.00292e-06
-1.02744e-08
5.0068e-06
-1.45303e-08
5.01393e-06
-1.93319e-08
5.02373e-06
-2.16167e-08
5.03095e-06
-1.62577e-08
5.02869e-06
4.76393e-10
5.01675e-06
2.09585e-08
5.0042e-06
2.88066e-08
4.99874e-06
2.14511e-08
5.00058e-06
8.31139e-09
5.00285e-06
1.7253e-09
5.00371e-06
1.60487e-10
5.00366e-06
6.54292e-10
5.00304e-06
2.16672e-09
1.68207e-09
4.99987e-06
-3.89985e-10
4.99955e-06
-1.32056e-09
4.99912e-06
-2.6132e-09
4.99885e-06
-4.54417e-09
4.99933e-06
-7.66698e-09
5.00036e-06
-1.13023e-08
5.00365e-06
-1.78213e-08
5.00982e-06
-2.55199e-08
5.02485e-06
-3.66556e-08
5.05612e-06
-4.74189e-08
5.05003e-06
7.19787e-09
5.02318e-06
4.78073e-08
4.99819e-06
5.3849e-08
4.9935e-06
2.61502e-08
4.99947e-06
2.34204e-09
5.00407e-06
-2.88232e-09
5.00491e-06
-6.74897e-10
5.00372e-06
1.83214e-09
5.0035e-06
2.37959e-09
9.68789e-10
4.99977e-06
-1.5845e-10
4.99915e-06
-7.05248e-10
4.99792e-06
-1.3803e-09
4.99611e-06
-2.73254e-09
4.99402e-06
-5.57548e-09
4.99374e-06
-1.10268e-08
4.99944e-06
-2.35359e-08
5.01713e-06
-4.31994e-08
5.05574e-06
-7.52438e-08
5.06682e-06
-5.86046e-08
5.04973e-06
2.36748e-08
4.99649e-06
1.01057e-07
4.98929e-06
6.10125e-08
4.9959e-06
1.95417e-08
5.00019e-06
-1.93588e-09
5.00293e-06
-5.61757e-09
5.00252e-06
-2.53671e-10
5.00184e-06
2.51108e-09
5.00254e-06
1.67421e-09
8.15929e-11
4.99986e-06
-1.68983e-11
4.9992e-06
-5.13044e-11
4.99791e-06
-8.59284e-11
4.99531e-06
-1.26081e-10
4.9899e-06
-1.67313e-10
4.97908e-06
-2.20211e-10
4.95582e-06
-2.7339e-10
4.91295e-06
-3.37265e-10
4.83815e-06
-3.96327e-10
4.77996e-06
-4.75824e-10
4.80432e-06
-5.74922e-10
4.90601e-06
-7.41954e-10
4.96776e-06
-7.51219e-10
4.98822e-06
-8.95668e-10
4.98745e-06
-1.1592e-09
4.98326e-06
-1.42543e-09
4.98456e-06
-1.55827e-09
4.98891e-06
-1.8304e-09
4.99248e-06
-1.8989e-09
-2.58716e-09
4.99986e-06
1.25334e-10
4.9992e-06
6.02328e-10
4.99791e-06
1.21332e-09
4.9953e-06
2.48442e-09
4.98988e-06
5.25043e-09
4.97905e-06
1.05974e-08
4.95577e-06
2.30094e-08
4.9129e-06
4.25425e-08
4.83803e-06
7.44526e-08
4.77976e-06
5.78597e-08
4.80424e-06
-2.51709e-08
4.90598e-06
-1.02478e-07
4.96776e-06
-6.25136e-08
4.98806e-06
-2.11997e-08
4.98735e-06
-4.51409e-10
4.98293e-06
3.00105e-09
4.98443e-06
-3.04896e-09
4.98889e-06
-6.28538e-09
4.99235e-06
-5.35923e-09
-4.98509e-09
4.99977e-06
3.57927e-10
4.99915e-06
1.22319e-09
4.99792e-06
2.44526e-09
4.9961e-06
4.29781e-09
4.99402e-06
7.3311e-09
4.99373e-06
1.08825e-08
4.99942e-06
1.73142e-08
5.01707e-06
2.48965e-08
5.05564e-06
3.59074e-08
5.0671e-06
4.63307e-08
5.04954e-06
-7.77743e-09
4.99609e-06
-4.91177e-08
4.98883e-06
-5.5284e-08
4.99568e-06
-2.80553e-08
5.0001e-06
-4.86593e-09
5.00231e-06
7.92924e-10
5.00165e-06
-2.38655e-09
5.0009e-06
-5.53209e-09
5.00168e-06
-6.1375e-09
-5.95194e-09
4.99987e-06
4.9422e-10
4.99955e-06
1.5408e-09
4.99911e-06
2.87961e-09
4.99883e-06
4.57931e-09
4.99927e-06
6.88591e-09
5.00027e-06
9.88811e-09
5.00348e-06
1.41019e-08
5.0096e-06
1.87705e-08
5.02458e-06
2.09173e-08
5.05555e-06
1.54273e-08
5.04967e-06
-1.77136e-09
5.02283e-06
-2.21667e-08
4.99787e-06
-3.03121e-08
4.99316e-06
-2.33378e-08
4.99864e-06
-1.03437e-08
5.00345e-06
-4.01635e-09
5.00373e-06
-2.66751e-09
5.00235e-06
-4.16139e-09
5.00216e-06
-5.94763e-09
-6.53727e-09
4.99998e-06
5.16974e-10
4.99993e-06
1.58887e-09
5e-06
2.80016e-09
5.0003e-06
4.27596e-09
5.00113e-06
6.06363e-09
5.0028e-06
8.22899e-09
5.00668e-06
1.02123e-08
5.01377e-06
1.16653e-08
5.02357e-06
1.11373e-08
5.03069e-06
8.27843e-09
5.0284e-06
6.52091e-10
5.01625e-06
-1.00239e-08
5.0035e-06
-1.75533e-08
4.99778e-06
-1.76023e-08
4.99942e-06
-1.19793e-08
5.00161e-06
-6.21344e-09
5.0024e-06
-3.46502e-09
5.00213e-06
-3.89476e-09
5.00119e-06
-5.01584e-09
-5.98081e-09
5.00004e-06
4.78063e-10
5.00018e-06
1.44311e-09
5.0005e-06
2.4769e-09
5.00114e-06
3.62921e-09
5.00231e-06
4.89717e-09
5.0044e-06
6.15898e-09
5.00742e-06
7.19212e-09
5.01139e-06
7.68108e-09
5.01513e-06
7.38723e-09
5.01853e-06
4.89054e-09
5.01956e-06
-3.92792e-10
5.01523e-06
-5.6898e-09
5.00855e-06
-1.08592e-08
5.00312e-06
-1.21707e-08
5.00088e-06
-9.74976e-09
5.001e-06
-6.34948e-09
5.00154e-06
-4.01431e-09
5.00131e-06
-3.6602e-09
5.00035e-06
-4.05474e-09
-4.98091e-09
5.00007e-06
3.97876e-10
5.00032e-06
1.19733e-09
5.00079e-06
2.00699e-09
5.00156e-06
2.85589e-09
5.00274e-06
3.7153e-09
5.00441e-06
4.50203e-09
5.00656e-06
5.04885e-09
5.0091e-06
5.14444e-09
5.01203e-06
4.44474e-09
5.0144e-06
2.50759e-09
5.01414e-06
-1.39746e-10
5.01208e-06
-3.63644e-09
5.00775e-06
-6.53661e-09
5.00349e-06
-7.91202e-09
5.00092e-06
-7.19435e-09
5.00012e-06
-5.55698e-09
5.0001e-06
-3.99089e-09
4.99987e-06
-3.42855e-09
4.99917e-06
-3.34646e-09
-4.17385e-09
5.0001e-06
2.97842e-10
5.00039e-06
9.00162e-10
5.00091e-06
1.49828e-09
5.00167e-06
2.08923e-09
5.00273e-06
2.65049e-09
5.00412e-06
3.11617e-09
5.00579e-06
3.38393e-09
5.00763e-06
3.30855e-09
5.00933e-06
2.74878e-09
5.01027e-06
1.5655e-09
5.01043e-06
-3.08622e-10
5.00903e-06
-2.24198e-09
5.0065e-06
-4.0154e-09
5.00367e-06
-5.08634e-09
5.00154e-06
-5.06532e-09
5.00034e-06
-4.35873e-09
4.9997e-06
-3.34735e-09
4.99917e-06
-2.88828e-09
4.99846e-06
-2.62404e-09
-3.21444e-09
5.0001e-06
1.95467e-10
5.00041e-06
5.92034e-10
5.00093e-06
9.84171e-10
5.00166e-06
1.35714e-09
5.00262e-06
1.69284e-09
5.00378e-06
1.95014e-09
5.00509e-06
2.06707e-09
5.00645e-06
1.95703e-09
5.00765e-06
1.5562e-09
5.00839e-06
8.27396e-10
5.00821e-06
-1.32457e-10
5.00733e-06
-1.3629e-09
5.0057e-06
-2.37906e-09
5.00368e-06
-3.06564e-09
5.00179e-06
-3.16917e-09
5.00033e-06
-2.89716e-09
4.99932e-06
-2.32357e-09
4.99852e-06
-2.09019e-09
4.99773e-06
-1.8276e-09
-2.27573e-09
5.00008e-06
1.1279e-10
5.00037e-06
3.03093e-10
5.00086e-06
4.93331e-10
5.00155e-06
6.7455e-10
5.00241e-06
8.31532e-10
5.00341e-06
9.46722e-10
5.00448e-06
9.93458e-10
5.0055e-06
9.34752e-10
5.00633e-06
7.3657e-10
5.00679e-06
3.61808e-10
5.00681e-06
-1.4231e-10
5.00608e-06
-6.2852e-10
5.00479e-06
-1.09e-09
5.00315e-06
-1.42552e-09
5.00148e-06
-1.49727e-09
5.00002e-06
-1.43428e-09
4.99889e-06
-1.18344e-09
4.99793e-06
-1.13071e-09
4.99707e-06
-9.72532e-10
-1.42331e-09
5.00011e-06
5.00042e-06
5.00091e-06
5.00159e-06
5.00242e-06
5.00337e-06
5.00436e-06
5.00529e-06
5.00603e-06
5.00639e-06
5.00625e-06
5.00563e-06
5.00453e-06
5.0031e-06
5.0016e-06
5.00017e-06
4.99899e-06
4.99785e-06
4.99687e-06
)
;

boundaryField
{
    sides
    {
        type            calculated;
        value           uniform 0;
    }
    inlet
    {
        type            calculated;
        value           nonuniform List<scalar> 
20
(
-5e-06
-5e-06
-5e-06
-5e-06
-5e-06
-5e-06
-5e-06
-5e-06
-5e-06
-5e-06
-5e-06
-5e-06
-5e-06
-5e-06
-5e-06
-5e-06
-5e-06
-5e-06
-5e-06
-5e-06
)
;
    }
    outlet
    {
        type            calculated;
        value           nonuniform List<scalar> 
20
(
5.00189e-06
5.00141e-06
5.00152e-06
5.00144e-06
5.00172e-06
5.002e-06
5.00278e-06
5.00421e-06
5.00343e-06
4.99514e-06
4.99475e-06
5.00265e-06
5.00274e-06
5.00063e-06
4.99935e-06
4.99837e-06
4.9975e-06
4.99679e-06
4.99621e-06
4.99544e-06
)
;
    }
    frontAndBack
    {
        type            empty;
        value           nonuniform List<scalar> 0();
    }
}


// ************************************************************************* //
