/*--------------------------------*- C++ -*----------------------------------*\
  =========                 |
  \\      /  F ield         | OpenFOAM: The Open Source CFD Toolbox
   \\    /   O peration     | Website:  https://openfoam.org
    \\  /    A nd           | Version:  9
     \\/     M anipulation  |
\*---------------------------------------------------------------------------*/
FoamFile
{
    format      ascii;
    class       surfaceScalarField;
    location    "81";
    object      phi_0;
}
// * * * * * * * * * * * * * * * * * * * * * * * * * * * * * * * * * * * * * //

dimensions      [0 4 -1 0 0 0 0];

internalField   nonuniform List<scalar> 
760
(
5.0001e-06
-8.85571e-11
5.0004e-06
-3.04271e-10
5.00091e-06
-5.15469e-10
5.00162e-06
-7.09064e-10
5.00249e-06
-8.76297e-10
5.00349e-06
-1.00446e-09
5.00455e-06
-1.05782e-09
5.00556e-06
-1.01132e-09
5.0064e-06
-8.2791e-10
5.00692e-06
-5.2068e-10
5.00705e-06
-1.21264e-10
5.00665e-06
4.01184e-10
5.0058e-06
8.56643e-10
5.00469e-06
1.10412e-09
5.00352e-06
1.1706e-09
5.00257e-06
9.52714e-10
5.00185e-06
7.17791e-10
5.00161e-06
2.47429e-10
5.0015e-06
1.07035e-10
-3.93602e-10
5.00012e-06
-2.07343e-10
5.00045e-06
-6.31232e-10
5.00098e-06
-1.04835e-09
5.00172e-06
-1.44734e-09
5.00265e-06
-1.80939e-09
5.00374e-06
-2.09536e-09
5.00493e-06
-2.24394e-09
5.0061e-06
-2.18819e-09
5.00713e-06
-1.84943e-09
5.00777e-06
-1.16521e-09
5.00774e-06
-9.00098e-11
5.00725e-06
8.91945e-10
5.00627e-06
1.84706e-09
5.00495e-06
2.41584e-09
5.00368e-06
2.44405e-09
5.00277e-06
1.85783e-09
5.00225e-06
1.24793e-09
5.00191e-06
5.84096e-10
5.00165e-06
3.68724e-10
-1.48391e-10
5.00011e-06
-3.17764e-10
5.00042e-06
-9.50392e-10
5.00096e-06
-1.57644e-09
5.00172e-06
-2.2074e-09
5.00272e-06
-2.80909e-09
5.00395e-06
-3.31631e-09
5.00532e-06
-3.6225e-09
5.00672e-06
-3.59047e-09
5.00793e-06
-3.05854e-09
5.00872e-06
-1.95965e-09
5.00893e-06
-3.02293e-10
5.00825e-06
1.57086e-09
5.00687e-06
3.23122e-09
5.00515e-06
4.13478e-09
5.00351e-06
4.09189e-09
5.00231e-06
3.05631e-09
5.00166e-06
1.89098e-09
5.00147e-06
7.7182e-10
5.00145e-06
3.97257e-10
-2.2304e-10
5.00009e-06
-4.20342e-10
5.0004e-06
-1.25964e-09
5.00094e-06
-2.10987e-09
5.00175e-06
-3.00784e-09
5.00285e-06
-3.91272e-09
5.00429e-06
-4.74859e-09
5.00601e-06
-5.35063e-09
5.00795e-06
-5.52967e-09
5.00984e-06
-4.94697e-09
5.01107e-06
-3.19793e-09
5.01119e-06
-4.28491e-10
5.00999e-06
2.77733e-09
5.00764e-06
5.57155e-09
5.00514e-06
6.64277e-09
5.00347e-06
5.76501e-09
5.0027e-06
3.82917e-09
5.00248e-06
2.11033e-09
5.00231e-06
9.37912e-10
5.00199e-06
7.09632e-10
3.38206e-10
5.00008e-06
-5.0336e-10
5.00034e-06
-1.51913e-09
5.00083e-06
-2.60371e-09
5.00163e-06
-3.80861e-09
5.00286e-06
-5.13296e-09
5.00458e-06
-6.46407e-09
5.0068e-06
-7.57582e-09
5.00942e-06
-8.14443e-09
5.01238e-06
-7.92248e-09
5.01479e-06
-5.58317e-09
5.01482e-06
-4.9256e-10
5.01284e-06
4.75551e-09
5.00867e-06
9.74962e-09
5.00459e-06
1.07136e-08
5.00224e-06
8.12103e-09
5.00174e-06
4.32608e-09
5.00204e-06
1.80651e-09
5.00225e-06
7.27119e-10
5.00201e-06
9.53328e-10
6.26781e-10
5.00004e-06
-5.44935e-10
5.0002e-06
-1.67596e-09
5.00054e-06
-2.94521e-09
5.00121e-06
-4.48205e-09
5.00241e-06
-6.33228e-09
5.00452e-06
-8.57716e-09
5.0076e-06
-1.06494e-08
5.01167e-06
-1.22161e-08
5.01553e-06
-1.17728e-08
5.019e-06
-9.07524e-09
5.02022e-06
-1.69403e-09
5.01601e-06
8.91248e-09
5.0095e-06
1.62591e-08
5.00421e-06
1.6009e-08
5.00217e-06
1.01589e-08
5.00249e-06
4.00042e-09
5.00326e-06
1.03236e-09
5.00339e-06
6.02118e-10
5.0028e-06
1.55033e-09
1.42307e-09
4.99998e-06
-5.2481e-10
4.99994e-06
-1.63416e-09
5.00003e-06
-3.03886e-09
5.00036e-06
-4.81368e-09
5.00122e-06
-7.1943e-09
5.00292e-06
-1.02755e-08
5.0068e-06
-1.45299e-08
5.01392e-06
-1.93329e-08
5.02376e-06
-2.16002e-08
5.03089e-06
-1.62902e-08
5.02874e-06
5.59801e-10
5.01676e-06
2.09245e-08
5.00419e-06
2.87954e-08
4.99873e-06
2.14557e-08
5.00057e-06
8.31468e-09
5.00284e-06
1.72757e-09
5.00371e-06
1.62621e-10
5.00366e-06
6.55365e-10
5.00304e-06
2.16674e-09
1.68193e-09
4.99987e-06
-3.90382e-10
4.99955e-06
-1.32005e-09
4.99912e-06
-2.61261e-09
4.99885e-06
-4.54538e-09
4.99933e-06
-7.66871e-09
5.00036e-06
-1.13039e-08
5.00365e-06
-1.78189e-08
5.00983e-06
-2.55153e-08
5.02486e-06
-3.66779e-08
5.05613e-06
-4.74287e-08
5.05004e-06
6.17463e-09
5.02321e-06
4.78631e-08
4.99819e-06
5.38309e-08
4.9935e-06
2.61375e-08
4.99947e-06
2.33894e-09
5.00407e-06
-2.88184e-09
5.0049e-06
-6.72639e-10
5.00372e-06
1.83583e-09
5.0035e-06
2.38212e-09
9.69581e-10
4.99977e-06
-1.58459e-10
4.99915e-06
-7.04596e-10
4.99792e-06
-1.38029e-09
4.99611e-06
-2.73412e-09
4.99402e-06
-5.57733e-09
4.99374e-06
-1.10253e-08
4.99945e-06
-2.35345e-08
5.01712e-06
-4.31997e-08
5.05572e-06
-7.52335e-08
5.06681e-06
-5.86458e-08
5.04972e-06
2.37547e-08
4.99646e-06
1.0102e-07
4.98929e-06
6.09959e-08
4.99591e-06
1.95362e-08
5.0002e-06
-1.93924e-09
5.00293e-06
-5.61871e-09
5.00252e-06
-2.71155e-10
5.00184e-06
2.51425e-09
5.00254e-06
1.6765e-09
6.80265e-11
4.99986e-06
-1.66456e-11
4.9992e-06
-5.12194e-11
4.99791e-06
-8.6375e-11
4.99531e-06
-1.27402e-10
4.9899e-06
-1.67066e-10
4.97909e-06
-2.18761e-10
4.95582e-06
-2.71694e-10
4.91295e-06
-3.39935e-10
4.83813e-06
-4.0549e-10
4.78001e-06
-4.50235e-10
4.80428e-06
-5.98299e-10
4.906e-06
-7.44446e-10
4.96778e-06
-7.31809e-10
4.98822e-06
-8.93678e-10
4.98745e-06
-1.16146e-09
4.98326e-06
-1.42804e-09
4.98456e-06
-1.56059e-09
4.9889e-06
-1.83081e-09
4.99248e-06
-1.89852e-09
-2.58686e-09
4.99986e-06
1.25787e-10
4.99921e-06
6.01663e-10
4.99791e-06
1.21279e-09
4.9953e-06
2.48468e-09
4.98988e-06
5.25159e-09
4.97905e-06
1.05986e-08
4.95576e-06
2.3007e-08
4.9129e-06
4.25436e-08
4.83804e-06
7.44533e-08
4.77975e-06
5.78561e-08
4.80422e-06
-2.51487e-08
4.90599e-06
-1.02448e-07
4.96776e-06
-6.25193e-08
4.98806e-06
-2.12012e-08
4.98736e-06
-4.50493e-10
4.98293e-06
2.99939e-09
4.98443e-06
-3.05156e-09
4.98889e-06
-6.28713e-09
4.99235e-06
-5.36003e-09
-4.98523e-09
4.99977e-06
3.58649e-10
4.99915e-06
1.22231e-09
4.99792e-06
2.44466e-09
4.9961e-06
4.29934e-09
4.99402e-06
7.33276e-09
4.99373e-06
1.08815e-08
4.99942e-06
1.73116e-08
5.01707e-06
2.48971e-08
5.05563e-06
3.59119e-08
5.06713e-06
4.63507e-08
5.04944e-06
-8.0641e-09
4.99608e-06
-4.91402e-08
4.98884e-06
-5.52763e-08
4.99569e-06
-2.805e-08
5.0001e-06
-4.86231e-09
5.00231e-06
7.9328e-10
5.00165e-06
-2.38793e-09
5.0009e-06
-5.53358e-09
5.00168e-06
-6.13883e-09
-5.95244e-09
4.99987e-06
4.95355e-10
4.99955e-06
1.54052e-09
4.99911e-06
2.87905e-09
4.99883e-06
4.58025e-09
4.99927e-06
6.8873e-09
5.00027e-06
9.88751e-09
5.00348e-06
1.40989e-08
5.0096e-06
1.87685e-08
5.02459e-06
2.09231e-08
5.05551e-06
1.54175e-08
5.04979e-06
-1.68399e-09
5.02284e-06
-2.21511e-08
4.99787e-06
-3.03112e-08
4.99316e-06
-2.3332e-08
4.99864e-06
-1.03415e-08
5.00345e-06
-4.01747e-09
5.00372e-06
-2.66915e-09
5.00235e-06
-4.16259e-09
5.00216e-06
-5.94846e-09
-6.53762e-09
4.99998e-06
5.18116e-10
4.99993e-06
1.58986e-09
5e-06
2.79961e-09
5.0003e-06
4.27494e-09
5.00113e-06
6.06345e-09
5.00279e-06
8.22922e-09
5.00669e-06
1.02118e-08
5.01378e-06
1.16612e-08
5.02356e-06
1.11324e-08
5.0307e-06
8.28681e-09
5.0284e-06
6.5426e-10
5.01625e-06
-1.00248e-08
5.00351e-06
-1.75444e-08
4.99778e-06
-1.76003e-08
4.99941e-06
-1.19811e-08
5.00161e-06
-6.21631e-09
5.0024e-06
-3.46661e-09
5.00213e-06
-3.89433e-09
5.00119e-06
-5.0144e-09
-5.98006e-09
5.00003e-06
4.78395e-10
5.00018e-06
1.4445e-09
5.0005e-06
2.47758e-09
5.00115e-06
3.62695e-09
5.00231e-06
4.89501e-09
5.00439e-06
6.1592e-09
5.00742e-06
7.19486e-09
5.0114e-06
7.68105e-09
5.01513e-06
7.38244e-09
5.01853e-06
4.88683e-09
5.01956e-06
-3.84235e-10
5.01523e-06
-5.68981e-09
5.00855e-06
-1.08635e-08
5.00311e-06
-1.21757e-08
5.00087e-06
-9.75428e-09
5.001e-06
-6.35194e-09
5.00155e-06
-4.01472e-09
5.00131e-06
-3.65831e-09
5.00035e-06
-4.05119e-09
-4.97898e-09
5.00007e-06
3.96776e-10
5.00032e-06
1.1979e-09
5.00079e-06
2.00898e-09
5.00157e-06
2.85579e-09
5.00274e-06
3.71262e-09
5.00441e-06
4.50109e-09
5.00656e-06
5.05165e-09
5.0091e-06
5.14879e-09
5.01203e-06
4.4456e-09
5.0144e-06
2.50368e-09
5.01414e-06
-1.44051e-10
5.01208e-06
-3.64203e-09
5.00775e-06
-6.54296e-09
5.00348e-06
-7.91762e-09
5.00092e-06
-7.19656e-09
5.00013e-06
-5.55641e-09
5.0001e-06
-3.98986e-09
4.99987e-06
-3.42693e-09
4.99917e-06
-3.34346e-09
-4.1721e-09
5.00009e-06
2.95765e-10
5.00039e-06
8.99559e-10
5.0009e-06
1.50035e-09
5.00168e-06
2.09183e-09
5.00274e-06
2.65029e-09
5.00412e-06
3.11457e-09
5.00579e-06
3.38399e-09
5.00763e-06
3.31163e-09
5.00933e-06
2.75187e-09
5.01027e-06
1.56756e-09
5.01043e-06
-3.07447e-10
5.00903e-06
-2.24307e-09
5.0065e-06
-4.01739e-09
5.00367e-06
-5.08665e-09
5.00154e-06
-5.06249e-09
5.00034e-06
-4.35514e-09
4.9997e-06
-3.34579e-09
4.99917e-06
-2.88873e-09
4.99845e-06
-2.62445e-09
-3.21441e-09
5.0001e-06
1.93313e-10
5.00041e-06
5.91115e-10
5.00092e-06
9.84919e-10
5.00166e-06
1.36043e-09
5.00262e-06
1.69553e-09
5.00378e-06
1.95005e-09
5.00509e-06
2.0654e-09
5.00645e-06
1.95614e-09
5.00765e-06
1.55694e-09
5.00839e-06
8.29033e-10
5.00821e-06
-1.3123e-10
5.00733e-06
-1.36189e-09
5.0057e-06
-2.37829e-09
5.00368e-06
-3.06278e-09
5.00179e-06
-3.16469e-09
5.00034e-06
-2.89382e-09
4.99932e-06
-2.32327e-09
4.99853e-06
-2.0931e-09
4.99773e-06
-1.83162e-09
-2.27767e-09
5.00008e-06
1.11128e-10
5.00037e-06
3.02482e-10
5.00086e-06
4.93219e-10
5.00155e-06
6.76483e-10
5.00241e-06
8.34385e-10
5.00341e-06
9.47623e-10
5.00448e-06
9.92373e-10
5.0055e-06
9.32767e-10
5.00633e-06
7.35497e-10
5.0068e-06
3.61585e-10
5.00681e-06
-1.42173e-10
5.00608e-06
-6.2824e-10
5.00479e-06
-1.08964e-09
5.00315e-06
-1.42368e-09
5.00148e-06
-1.49487e-09
5.00002e-06
-1.43308e-09
4.99889e-06
-1.18421e-09
4.99793e-06
-1.13361e-09
4.99706e-06
-9.76367e-10
-1.42527e-09
5.00012e-06
5.00042e-06
5.00091e-06
5.00159e-06
5.00242e-06
5.00336e-06
5.00436e-06
5.00529e-06
5.00603e-06
5.00639e-06
5.00625e-06
5.00562e-06
5.00453e-06
5.0031e-06
5.0016e-06
5.00017e-06
4.99899e-06
4.99785e-06
4.99687e-06
)
;

boundaryField
{
    sides
    {
        type            calculated;
        value           uniform 0;
    }
    inlet
    {
        type            calculated;
        value           nonuniform List<scalar> 
20
(
-5e-06
-5e-06
-5e-06
-5e-06
-5e-06
-5e-06
-5e-06
-5e-06
-5e-06
-5e-06
-5e-06
-5e-06
-5e-06
-5e-06
-5e-06
-5e-06
-5e-06
-5e-06
-5e-06
-5e-06
)
;
    }
    outlet
    {
        type            calculated;
        value           nonuniform List<scalar> 
20
(
5.0019e-06
5.00141e-06
5.00152e-06
5.00143e-06
5.00172e-06
5.002e-06
5.00279e-06
5.00422e-06
5.00344e-06
4.99513e-06
4.99475e-06
5.00265e-06
5.00274e-06
5.00063e-06
4.99935e-06
4.99837e-06
4.9975e-06
4.99679e-06
4.99621e-06
4.99544e-06
)
;
    }
    frontAndBack
    {
        type            empty;
        value           nonuniform List<scalar> 0();
    }
}


// ************************************************************************* //
