/*--------------------------------*- C++ -*----------------------------------*\
  =========                 |
  \\      /  F ield         | OpenFOAM: The Open Source CFD Toolbox
   \\    /   O peration     | Website:  https://openfoam.org
    \\  /    A nd           | Version:  9
     \\/     M anipulation  |
\*---------------------------------------------------------------------------*/
FoamFile
{
    format      ascii;
    class       volVectorField;
    location    "40";
    object      ddt0(hU);
}
// * * * * * * * * * * * * * * * * * * * * * * * * * * * * * * * * * * * * * //

dimensions      [0 2 -2 0 0 0 0];

internalField   nonuniform List<vector> 
400
(
(-3.22939e-09 -4.46104e-09 0)
(-7.34597e-09 -2.05544e-08 0)
(2.29748e-08 -2.17289e-08 0)
(2.69105e-08 -8.53119e-09 0)
(7.78223e-09 1.67321e-10 0)
(-3.7477e-09 8.73293e-10 0)
(-6.9154e-09 -7.32685e-09 0)
(-2.58271e-09 -1.05337e-08 0)
(8.65427e-09 -8.10897e-09 0)
(1.34324e-08 1.95165e-09 0)
(8.43822e-09 1.14199e-08 0)
(-5.48995e-09 8.22044e-09 0)
(-2.01518e-09 4.00657e-09 0)
(1.6729e-08 -6.60492e-10 0)
(3.21051e-08 1.06033e-09 0)
(3.06443e-08 5.05981e-09 0)
(7.16646e-11 6.73164e-09 0)
(-3.24766e-08 3.30797e-09 0)
(-3.04414e-08 -1.39446e-09 0)
(-2.83818e-08 -1.85539e-09 0)
(-6.91971e-09 -8.91452e-09 0)
(-5.69215e-09 -4.73205e-08 0)
(2.4349e-08 -5.21807e-08 0)
(2.78519e-08 -2.47623e-08 0)
(9.68238e-09 -1.86388e-09 0)
(-2.61554e-09 6.08898e-10 0)
(-4.80288e-09 -1.68296e-08 0)
(-2.06962e-09 -2.36293e-08 0)
(8.71993e-09 -1.61936e-08 0)
(1.73818e-08 3.93232e-09 0)
(7.97037e-09 2.21127e-08 0)
(-2.87954e-09 2.38774e-08 0)
(1.98923e-09 7.08538e-09 0)
(1.56982e-08 -4.59716e-09 0)
(2.45166e-08 1.01713e-09 0)
(1.96099e-08 1.6412e-08 0)
(-2.44917e-10 2.96094e-08 0)
(-2.23811e-08 9.83743e-09 0)
(-2.7125e-08 -1.93142e-08 0)
(-2.87439e-08 -9.03379e-09 0)
(-9.41942e-09 -1.25438e-08 0)
(-4.91696e-09 -6.24568e-08 0)
(2.20351e-08 -7.10593e-08 0)
(2.60086e-08 -3.74356e-08 0)
(1.05358e-08 -2.75241e-09 0)
(1.48687e-09 -2.0679e-09 0)
(-7.62697e-10 -2.20932e-08 0)
(1.52756e-09 -3.10512e-08 0)
(8.50496e-09 -2.45014e-08 0)
(1.18512e-08 6.65206e-09 0)
(1.40195e-08 2.27088e-08 0)
(1.97408e-09 3.34866e-08 0)
(5.22308e-09 4.49666e-09 0)
(2.00293e-08 -1.72962e-08 0)
(2.37173e-08 -6.93396e-09 0)
(1.56825e-08 2.13212e-08 0)
(-5.46572e-09 4.02363e-08 0)
(-3.18657e-08 1.30696e-08 0)
(-2.99081e-08 -2.25156e-08 0)
(-2.45739e-08 -1.11494e-08 0)
(-9.68792e-09 -1.79204e-08 0)
(-1.9256e-09 -7.50423e-08 0)
(2.1201e-08 -8.63429e-08 0)
(2.31654e-08 -4.62767e-08 0)
(1.07287e-08 -3.94473e-09 0)
(5.19973e-09 -3.10464e-09 0)
(5.02041e-09 -2.35638e-08 0)
(2.99182e-09 -4.13311e-08 0)
(1.40869e-08 -3.9378e-08 0)
(8.01685e-09 1.21404e-09 0)
(1.51988e-08 3.55842e-08 0)
(1.76428e-08 2.25438e-08 0)
(3.58267e-09 -5.02584e-10 0)
(2.25148e-08 -3.35449e-08 0)
(2.56856e-08 -2.40668e-08 0)
(9.75193e-09 2.08535e-08 0)
(-4.72147e-09 5.1356e-08 0)
(-1.42974e-08 1.60951e-08 0)
(-2.29519e-08 -2.77653e-08 0)
(-2.90255e-08 -1.29455e-08 0)
(-8.45044e-09 -1.92889e-08 0)
(3.47641e-09 -7.94401e-08 0)
(1.83435e-08 -9.39377e-08 0)
(1.68451e-08 -5.15422e-08 0)
(1.06576e-08 -4.76762e-09 0)
(1.29631e-08 2.36671e-10 0)
(1.01094e-08 -2.49168e-08 0)
(9.20605e-09 -5.99421e-08 0)
(4.33e-09 -3.87241e-08 0)
(3.24501e-08 -2.17646e-08 0)
(-5.74991e-09 3.76265e-08 0)
(2.11112e-08 2.16596e-08 0)
(2.05435e-08 -1.27405e-08 0)
(8.42308e-09 -3.48778e-08 0)
(2.67091e-08 -3.23624e-08 0)
(2.42862e-08 9.58729e-09 0)
(1.21056e-09 4.6604e-08 0)
(-2.07357e-08 1.05123e-08 0)
(-2.17144e-08 -3.90465e-08 0)
(-2.22705e-08 -1.67931e-08 0)
(-6.92846e-09 -1.72277e-08 0)
(8.13688e-09 -7.70007e-08 0)
(1.53628e-08 -9.41737e-08 0)
(1.05776e-08 -5.05932e-08 0)
(1.16326e-08 -1.59337e-09 0)
(1.69678e-08 3.46211e-09 0)
(1.2052e-08 -3.51263e-08 0)
(1.53011e-08 -6.26672e-08 0)
(3.22207e-09 -5.19885e-08 0)
(1.64279e-08 -4.94126e-09 0)
(3.06284e-08 -1.21561e-08 0)
(-3.85569e-09 4.715e-08 0)
(3.19669e-08 -1.72919e-08 0)
(1.5716e-08 -4.50265e-08 0)
(-7.10457e-10 -2.99379e-08 0)
(7.02681e-09 5.86233e-09 0)
(1.03422e-08 3.36506e-08 0)
(6.37443e-09 1.98493e-09 0)
(-6.10204e-09 -3.82369e-08 0)
(-1.77423e-08 -1.74066e-08 0)
(-5.92487e-09 -1.38529e-08 0)
(1.14197e-08 -6.70943e-08 0)
(1.2505e-08 -8.41974e-08 0)
(5.58526e-09 -4.32193e-08 0)
(1.11188e-08 6.28755e-10 0)
(1.75598e-08 -1.7009e-09 0)
(1.83423e-08 -3.70911e-08 0)
(7.27001e-09 -5.36922e-08 0)
(3.01248e-08 -4.99482e-08 0)
(-3.74738e-08 2.81293e-08 0)
(8.30798e-08 -7.1557e-08 0)
(6.37109e-08 1.69625e-08 0)
(-1.41623e-08 1.11749e-08 0)
(1.17681e-08 -3.41155e-08 0)
(4.52633e-09 -2.46174e-08 0)
(-3.33524e-09 1.56532e-08 0)
(5.89195e-09 4.06681e-08 0)
(1.24568e-08 2.86191e-09 0)
(6.63314e-09 -3.99672e-08 0)
(-4.32975e-09 -1.81088e-08 0)
(-4.91258e-09 -1.04959e-08 0)
(1.36951e-08 -5.08061e-08 0)
(1.10402e-08 -6.38959e-08 0)
(1.24324e-09 -3.17666e-08 0)
(7.53239e-09 -3.02727e-10 0)
(1.8511e-08 -8.04701e-09 0)
(1.99111e-08 -3.34124e-08 0)
(1.96728e-08 -4.38468e-08 0)
(3.24059e-08 -3.20483e-08 0)
(-2.82313e-08 -5.23986e-08 0)
(-5.1831e-07 1.33589e-07 0)
(1.96619e-07 1.05694e-08 0)
(4.75626e-08 -2.44647e-08 0)
(-1.57975e-08 -2.1929e-08 0)
(-1.4931e-08 -1.27132e-08 0)
(-1.40889e-08 2.09431e-08 0)
(-1.50357e-09 4.07927e-08 0)
(1.51944e-08 9.10425e-09 0)
(1.53265e-08 -2.47339e-08 0)
(4.52384e-09 -1.23558e-08 0)
(-3.8804e-09 -7.25966e-09 0)
(1.6681e-08 -3.08606e-08 0)
(9.87086e-09 -3.78482e-08 0)
(-3.73389e-09 -1.78455e-08 0)
(2.65487e-09 -3.59925e-10 0)
(1.58439e-08 -6.10353e-09 0)
(2.26888e-08 -2.11503e-08 0)
(1.97993e-08 -2.24511e-08 0)
(-3.77615e-09 -2.0329e-08 0)
(5.66507e-08 -4.70481e-08 0)
(5.82448e-07 1.16721e-07 0)
(-1.33402e-07 -6.53176e-09 0)
(1.61483e-08 -2.95798e-08 0)
(4.00829e-08 -2.24403e-08 0)
(-2.20188e-09 -4.23353e-09 0)
(-2.01227e-08 1.84376e-08 0)
(-1.42107e-08 3.39537e-08 0)
(1.20279e-08 1.60271e-08 0)
(1.74177e-08 -5.27191e-09 0)
(7.9627e-09 -3.94095e-09 0)
(-2.60938e-09 -2.99358e-09 0)
(1.94027e-08 -8.57086e-09 0)
(9.92299e-09 -9.67778e-09 0)
(-7.53816e-09 -3.46841e-09 0)
(-1.29202e-09 3.1752e-09 0)
(1.72018e-08 3.16702e-09 0)
(2.76869e-08 -1.69554e-11 0)
(2.45541e-08 -4.25588e-10 0)
(2.97558e-10 -6.45762e-09 0)
(5.97933e-08 2.45644e-08 0)
(-5.641e-08 -7.43549e-08 0)
(1.33222e-08 -2.1663e-08 0)
(7.44105e-08 8.74759e-09 0)
(2.51553e-08 -1.41869e-08 0)
(-5.20233e-09 -4.13215e-09 0)
(-2.10656e-08 8.80971e-09 0)
(-1.14951e-08 1.79016e-08 0)
(1.27311e-08 1.71894e-08 0)
(1.75028e-08 1.25275e-08 0)
(5.93043e-09 4.07722e-09 0)
(-1.94859e-09 2.34065e-09 0)
(2.07445e-08 1.47362e-08 0)
(8.9876e-09 1.8462e-08 0)
(-8.84021e-09 1.12176e-08 0)
(-1.64131e-09 6.7094e-09 0)
(1.79569e-08 1.23139e-08 0)
(2.899e-08 1.40687e-08 0)
(2.00662e-08 1.20135e-08 0)
(9.10628e-09 5.56375e-09 0)
(3.40549e-08 -3.93016e-09 0)
(-2.13236e-08 -3.26979e-09 0)
(3.89569e-08 3.23776e-08 0)
(4.25878e-08 -1.75361e-08 0)
(2.25213e-08 -7.94455e-09 0)
(2.73333e-11 -7.27459e-09 0)
(-2.24389e-08 -6.19435e-09 0)
(-9.55519e-09 -2.18564e-09 0)
(1.71249e-08 1.12206e-08 0)
(1.56046e-08 2.43427e-08 0)
(7.50626e-10 9.76194e-09 0)
(-1.5976e-09 6.92584e-09 0)
(1.95998e-08 3.44751e-08 0)
(7.88763e-09 4.38026e-08 0)
(-8.38953e-09 2.65872e-08 0)
(4.72033e-10 1.17507e-08 0)
(1.4102e-08 1.86521e-08 0)
(2.29116e-08 3.40139e-08 0)
(1.79658e-08 3.10294e-08 0)
(1.46199e-08 3.63448e-08 0)
(-4.77294e-09 2.279e-08 0)
(6.91738e-07 -4.85857e-08 0)
(-3.99273e-08 -2.91033e-08 0)
(2.45262e-09 3.31961e-09 0)
(3.2768e-08 1.17351e-08 0)
(-4.44952e-09 -4.65707e-09 0)
(-1.74602e-08 -1.83403e-08 0)
(-3.12162e-09 -1.76622e-08 0)
(1.89377e-08 4.03668e-09 0)
(1.36956e-08 2.96481e-08 0)
(-2.49477e-09 1.26073e-08 0)
(-1.70575e-09 1.10914e-08 0)
(1.6498e-08 5.15659e-08 0)
(8.62968e-09 6.64039e-08 0)
(-4.04094e-09 3.98593e-08 0)
(3.90778e-09 1.52027e-08 0)
(1.5929e-08 2.12801e-08 0)
(2.0026e-08 4.60184e-08 0)
(2.09402e-08 5.39673e-08 0)
(1.97526e-08 4.32209e-08 0)
(2.67695e-08 3.61116e-08 0)
(-6.45995e-07 -5.06164e-08 0)
(1.06058e-07 -3.05555e-08 0)
(6.64887e-08 1.05183e-08 0)
(-4.68089e-10 1.67887e-08 0)
(-1.2862e-08 4.90486e-09 0)
(-9.24381e-09 -1.91595e-08 0)
(3.20442e-09 -2.98129e-08 0)
(1.42133e-08 3.18685e-09 0)
(9.97604e-09 4.15371e-08 0)
(-1.93943e-09 1.73583e-08 0)
(-2.54003e-09 1.50035e-08 0)
(1.2156e-08 6.64861e-08 0)
(9.57839e-09 8.4735e-08 0)
(1.15155e-09 4.8251e-08 0)
(7.01537e-09 1.25147e-08 0)
(1.35777e-08 1.81768e-08 0)
(1.23375e-08 4.66511e-08 0)
(1.14745e-08 6.24232e-08 0)
(2.44427e-08 4.68561e-08 0)
(-9.6797e-09 -1.05325e-09 0)
(8.65021e-08 1.31904e-08 0)
(4.37864e-08 -9.45339e-09 0)
(3.32981e-09 -9.70857e-09 0)
(4.46871e-09 1.93187e-08 0)
(-4.89834e-09 1.41016e-08 0)
(-3.62066e-09 -1.60649e-08 0)
(5.48112e-09 -3.34962e-08 0)
(1.18614e-08 7.43215e-09 0)
(5.27245e-09 5.42283e-08 0)
(-4.45979e-09 2.25477e-08 0)
(-4.42315e-09 1.75194e-08 0)
(6.88184e-09 7.58837e-08 0)
(1.07519e-08 9.47914e-08 0)
(6.85682e-09 5.25929e-08 0)
(9.21921e-09 6.64185e-09 0)
(1.22638e-08 1.12893e-08 0)
(7.98109e-09 4.67396e-08 0)
(1.06141e-08 7.01637e-08 0)
(8.25548e-09 5.17986e-08 0)
(2.68892e-08 7.12175e-09 0)
(1.37587e-08 -2.55856e-08 0)
(1.16245e-08 -5.13191e-08 0)
(2.15423e-08 -1.75653e-09 0)
(4.86604e-09 2.60132e-08 0)
(2.03983e-09 2.0576e-08 0)
(5.27021e-09 -1.06118e-08 0)
(8.0714e-09 -2.90527e-08 0)
(4.23443e-09 1.23517e-08 0)
(-4.5473e-09 6.06556e-08 0)
(-1.24408e-08 2.51218e-08 0)
(-7.07555e-09 1.71652e-08 0)
(1.76948e-09 7.86197e-08 0)
(1.22717e-08 9.56793e-08 0)
(1.17844e-08 5.33169e-08 0)
(9.8645e-09 2.77944e-09 0)
(1.08715e-08 2.33978e-09 0)
(5.79759e-09 3.94332e-08 0)
(4.13587e-09 6.75893e-08 0)
(1.0372e-08 5.13236e-08 0)
(1.27449e-08 1.15821e-08 0)
(1.27135e-08 -3.51831e-08 0)
(2.84657e-08 -3.325e-08 0)
(1.11668e-08 -6.05303e-09 0)
(7.78849e-09 2.64096e-08 0)
(1.69442e-08 2.48347e-08 0)
(1.57914e-08 -9.19194e-09 0)
(5.51114e-09 -3.10395e-08 0)
(-8.66656e-09 1.12504e-08 0)
(-1.64034e-08 5.93835e-08 0)
(-2.14466e-08 2.37636e-08 0)
(-8.15652e-09 1.39823e-08 0)
(-2.48323e-09 7.20456e-08 0)
(1.42471e-08 8.65687e-08 0)
(1.48945e-08 4.91107e-08 0)
(8.48225e-09 5.46479e-09 0)
(6.41059e-09 -1.62194e-09 0)
(4.76156e-09 2.8031e-08 0)
(2.47385e-09 5.22567e-08 0)
(8.93296e-09 4.58974e-08 0)
(1.71742e-08 5.89086e-09 0)
(1.53424e-08 -2.52437e-08 0)
(2.84985e-09 -3.14663e-08 0)
(8.06632e-09 -1.26403e-09 0)
(2.3402e-08 2.99289e-08 0)
(2.61434e-08 2.24825e-08 0)
(1.88541e-08 -1.19918e-08 0)
(4.76736e-09 -3.42036e-08 0)
(-1.80825e-08 2.21788e-09 0)
(-2.79272e-08 4.63875e-08 0)
(-2.8295e-08 1.85645e-08 0)
(-7.12075e-09 1.14748e-08 0)
(-6.46008e-09 5.9232e-08 0)
(1.68059e-08 6.92697e-08 0)
(1.90914e-08 3.86734e-08 0)
(5.34213e-09 7.81133e-09 0)
(-5.06914e-10 3.72165e-09 0)
(-1.04425e-09 2.22612e-08 0)
(1.49185e-09 3.74481e-08 0)
(8.61151e-09 3.01106e-08 0)
(1.10846e-08 -1.49906e-10 0)
(1.24572e-08 -2.8963e-08 0)
(1.01881e-08 -2.88197e-08 0)
(1.01732e-08 -4.76156e-10 0)
(1.75659e-08 1.96779e-08 0)
(2.47964e-08 1.21837e-08 0)
(2.0581e-08 -1.37602e-08 0)
(-2.32746e-09 -3.44795e-08 0)
(-3.11478e-08 -1.04348e-08 0)
(-3.20323e-08 2.64129e-08 0)
(-2.61281e-08 1.16576e-08 0)
(-4.96347e-09 7.17327e-09 0)
(-1.01718e-08 3.50674e-08 0)
(1.67878e-08 4.05456e-08 0)
(2.08743e-08 2.32718e-08 0)
(3.78738e-09 7.36633e-09 0)
(-5.19941e-09 7.63971e-09 0)
(-5.04953e-09 1.65348e-08 0)
(-5.17769e-10 2.19668e-08 0)
(7.39583e-09 1.44448e-08 0)
(1.53854e-08 -4.04447e-09 0)
(8.03845e-09 -2.07498e-08 0)
(-4.2399e-09 -2.30745e-08 0)
(2.39133e-09 -8.40687e-09 0)
(1.90431e-08 4.70379e-09 0)
(2.78744e-08 2.40116e-09 0)
(1.75598e-08 -1.48126e-08 0)
(-1.07113e-08 -3.01279e-08 0)
(-3.68563e-08 -1.38638e-08 0)
(-2.79394e-08 1.304e-08 0)
(-1.888e-08 6.22074e-09 0)
(-4.3897e-09 1.67246e-09 0)
(-1.2893e-08 8.77916e-09 0)
(1.78085e-08 1.09208e-08 0)
(2.363e-08 7.46411e-09 0)
(4.43252e-09 3.74225e-09 0)
(-7.05062e-09 3.59816e-09 0)
(-7.95929e-09 5.24712e-09 0)
(-2.28549e-09 5.31019e-09 0)
(8.11915e-09 3.17972e-09 0)
(1.30395e-08 -2.11742e-09 0)
(9.42916e-09 -1.18989e-08 0)
(2.08297e-09 -9.024e-09 0)
(2.07596e-09 -1.76568e-09 0)
(1.44498e-08 1.47413e-09 0)
(2.35753e-08 -8.61194e-10 0)
(1.51461e-08 -7.15864e-09 0)
(-9.93134e-09 -1.23016e-08 0)
(-3.34467e-08 -6.08048e-09 0)
(-2.39931e-08 3.97346e-09 0)
(-1.429e-08 1.91849e-09 0)
)
;

boundaryField
{
    sides
    {
        type            calculated;
        value           nonuniform List<vector> 
40
(
(-4.3897e-09 0 0)
(-1.2893e-08 0 0)
(1.78085e-08 0 0)
(2.363e-08 0 0)
(4.43252e-09 0 0)
(-7.05062e-09 0 0)
(-7.95929e-09 0 0)
(-2.28549e-09 0 0)
(8.11915e-09 0 0)
(1.30395e-08 0 0)
(9.42916e-09 0 0)
(2.08297e-09 0 0)
(2.07596e-09 0 0)
(1.44498e-08 0 0)
(2.35753e-08 0 0)
(1.51461e-08 0 0)
(-9.93134e-09 0 0)
(-3.34467e-08 0 0)
(-2.39931e-08 0 0)
(-1.429e-08 0 0)
(-3.22939e-09 0 0)
(-7.34597e-09 0 0)
(2.29748e-08 0 0)
(2.69105e-08 0 0)
(7.78223e-09 0 0)
(-3.7477e-09 0 0)
(-6.9154e-09 0 0)
(-2.58271e-09 0 0)
(8.65427e-09 0 0)
(1.34324e-08 0 0)
(8.43822e-09 0 0)
(-5.48995e-09 0 0)
(-2.01518e-09 0 0)
(1.6729e-08 0 0)
(3.21051e-08 0 0)
(3.06443e-08 0 0)
(7.16646e-11 0 0)
(-3.24766e-08 0 0)
(-3.04414e-08 0 0)
(-2.83818e-08 0 0)
)
;
    }
    inlet
    {
        type            calculated;
        value           uniform (0 0 0);
    }
    outlet
    {
        type            calculated;
        value           nonuniform List<vector> 
20
(
(-2.83818e-08 -1.85539e-09 0)
(-2.87439e-08 -9.03379e-09 0)
(-2.45739e-08 -1.11494e-08 0)
(-2.90255e-08 -1.29455e-08 0)
(-2.22705e-08 -1.67931e-08 0)
(-1.77423e-08 -1.74066e-08 0)
(-4.32975e-09 -1.81088e-08 0)
(4.52384e-09 -1.23558e-08 0)
(7.9627e-09 -3.94095e-09 0)
(5.93043e-09 4.07722e-09 0)
(7.50626e-10 9.76194e-09 0)
(-2.49477e-09 1.26073e-08 0)
(-1.93943e-09 1.73583e-08 0)
(-4.45979e-09 2.25477e-08 0)
(-1.24408e-08 2.51218e-08 0)
(-2.14466e-08 2.37636e-08 0)
(-2.8295e-08 1.85645e-08 0)
(-2.61281e-08 1.16576e-08 0)
(-1.888e-08 6.22074e-09 0)
(-1.429e-08 1.91849e-09 0)
)
;
    }
    frontAndBack
    {
        type            empty;
    }
}


// ************************************************************************* //
