/*--------------------------------*- C++ -*----------------------------------*\
  =========                 |
  \\      /  F ield         | OpenFOAM: The Open Source CFD Toolbox
   \\    /   O peration     | Website:  https://openfoam.org
    \\  /    A nd           | Version:  9
     \\/     M anipulation  |
\*---------------------------------------------------------------------------*/
FoamFile
{
    format      ascii;
    class       volScalarField;
    location    "40";
    object      h_0;
}
// * * * * * * * * * * * * * * * * * * * * * * * * * * * * * * * * * * * * * //

dimensions      [0 1 0 0 0 0 0];

internalField   nonuniform List<scalar> 
400
(
0.0100002
0.0100002
0.0100001
0.00999995
0.00999977
0.00999957
0.00999935
0.00999913
0.00999893
0.00999878
0.00999871
0.00999873
0.00999886
0.00999907
0.00999933
0.00999959
0.00999982
0.00999997
0.01
0.01
0.0100002
0.0100001
0.01
0.00999988
0.0099997
0.00999948
0.00999923
0.00999898
0.00999875
0.00999856
0.00999847
0.0099985
0.00999866
0.00999891
0.00999922
0.00999951
0.00999973
0.00999986
0.00999993
0.00999998
0.0100002
0.0100002
0.0100001
0.00999991
0.00999971
0.00999947
0.0099992
0.0099989
0.00999861
0.00999837
0.00999824
0.00999826
0.00999845
0.00999878
0.00999919
0.00999957
0.00999986
0.01
0.01
0.01
0.0100003
0.0100003
0.0100001
0.00999999
0.00999977
0.00999949
0.00999916
0.00999876
0.00999835
0.00999799
0.00999778
0.0099978
0.00999811
0.00999864
0.00999922
0.00999967
0.00999989
0.00999994
0.00999993
0.00999995
0.0100004
0.0100004
0.0100003
0.0100001
0.0099999
0.00999958
0.00999915
0.00999863
0.00999805
0.00999748
0.00999708
0.0099971
0.00999759
0.00999849
0.00999944
0.0100001
0.0100003
0.0100002
0.01
0.00999998
0.0100006
0.0100005
0.0100005
0.0100003
0.0100001
0.00999978
0.00999924
0.00999853
0.00999765
0.00999683
0.00999622
0.00999619
0.00999696
0.00999832
0.00999965
0.0100004
0.0100004
0.0100001
0.00999991
0.00999991
0.0100008
0.0100007
0.0100007
0.0100007
0.0100005
0.0100002
0.0099996
0.0099986
0.00999709
0.00999529
0.00999411
0.00999442
0.00999659
0.00999938
0.0100012
0.0100015
0.0100008
0.01
0.00999973
0.00999987
0.0100009
0.010001
0.010001
0.0100011
0.010001
0.0100008
0.0100003
0.00999923
0.00999732
0.0099942
0.00999048
0.00999013
0.00999437
0.0100001
0.0100032
0.010003
0.0100012
0.00999983
0.00999949
0.00999983
0.010001
0.0100011
0.0100013
0.0100015
0.0100018
0.0100019
0.0100014
0.00999945
0.00999546
0.0099897
0.00998664
0.00998964
0.00999794
0.0100036
0.0100043
0.0100023
0.0100002
0.00999932
0.00999944
0.00999988
0.010001
0.0100012
0.0100014
0.0100019
0.0100026
0.010004
0.0100058
0.0100078
0.0100048
0.00897842
0.00895231
0.00997577
0.0100087
0.0100177
0.0100103
0.0100022
0.0099988
0.00999888
0.00999978
0.0100002
0.010001
0.0100011
0.0100013
0.0100018
0.0100026
0.010004
0.0100058
0.0100077
0.0100048
0.00897838
0.00895231
0.00997572
0.0100087
0.0100176
0.0100103
0.0100022
0.0099988
0.00999886
0.00999974
0.0100001
0.0100008
0.0100009
0.0100011
0.0100013
0.0100016
0.0100017
0.0100012
0.00999926
0.00999527
0.0099895
0.0099865
0.00998946
0.00999782
0.0100035
0.0100042
0.0100022
0.0100002
0.0099993
0.00999945
0.00999989
0.0100006
0.0100006
0.0100007
0.0100007
0.0100007
0.0100005
0.00999997
0.00999893
0.00999705
0.00999397
0.0099902
0.0099899
0.00999412
0.00999983
0.010003
0.0100028
0.0100011
0.00999975
0.00999946
0.00999982
0.0100003
0.0100003
0.0100002
0.0100002
0.01
0.00999971
0.00999915
0.00999815
0.00999664
0.00999487
0.00999368
0.00999404
0.00999624
0.00999908
0.010001
0.0100013
0.0100006
0.00999987
0.00999963
0.00999983
0.00999995
0.00999992
0.00999985
0.00999973
0.00999951
0.00999917
0.00999866
0.00999796
0.00999712
0.00999631
0.00999574
0.00999574
0.00999655
0.00999795
0.00999931
0.0100001
0.0100002
0.00999996
0.0099998
0.00999988
0.00999965
0.00999961
0.00999951
0.00999937
0.00999915
0.00999884
0.00999844
0.00999794
0.00999738
0.00999682
0.00999646
0.00999651
0.00999705
0.00999798
0.00999898
0.00999968
0.00999996
0.00999994
0.00999988
0.00999992
0.00999939
0.00999933
0.00999923
0.00999909
0.00999889
0.00999862
0.0099983
0.00999793
0.00999755
0.00999723
0.00999707
0.00999713
0.00999748
0.00999805
0.00999871
0.00999925
0.00999957
0.00999972
0.0099998
0.00999991
0.00999917
0.00999911
0.00999901
0.00999887
0.00999869
0.00999846
0.0099982
0.00999791
0.00999764
0.00999742
0.00999732
0.0099974
0.00999765
0.00999805
0.00999852
0.00999897
0.00999933
0.00999958
0.00999975
0.00999991
0.00999899
0.00999894
0.00999885
0.00999872
0.00999855
0.00999835
0.00999814
0.00999791
0.00999771
0.00999757
0.00999752
0.00999758
0.00999778
0.0099981
0.00999849
0.00999888
0.00999923
0.00999951
0.00999973
0.00999991
0.00999885
0.0099988
0.0099987
0.00999857
0.0099984
0.00999821
0.00999801
0.00999781
0.00999764
0.00999752
0.00999749
0.00999757
0.00999775
0.00999803
0.00999837
0.00999872
0.00999906
0.00999936
0.00999962
0.00999986
)
;

boundaryField
{
    sides
    {
        type            zeroGradient;
    }
    inlet
    {
        type            zeroGradient;
    }
    outlet
    {
        type            fixedValue;
        value           uniform 0.01;
    }
    frontAndBack
    {
        type            empty;
    }
}


// ************************************************************************* //
