/*--------------------------------*- C++ -*----------------------------------*\
  =========                 |
  \\      /  F ield         | OpenFOAM: The Open Source CFD Toolbox
   \\    /   O peration     | Website:  https://openfoam.org
    \\  /    A nd           | Version:  9
     \\/     M anipulation  |
\*---------------------------------------------------------------------------*/
FoamFile
{
    format      ascii;
    class       volScalarField;
    location    "40";
    object      hTotal;
}
// * * * * * * * * * * * * * * * * * * * * * * * * * * * * * * * * * * * * * //

dimensions      [0 1 0 0 0 0 0];

internalField   nonuniform List<scalar> 
400
(
0.0100002
0.0100002
0.0100001
0.00999996
0.00999978
0.00999958
0.00999937
0.00999915
0.00999895
0.0099988
0.00999873
0.00999874
0.00999887
0.00999907
0.00999933
0.0099996
0.00999982
0.00999998
0.01
0.01
0.0100002
0.0100001
0.01
0.00999989
0.00999971
0.00999949
0.00999925
0.009999
0.00999877
0.00999858
0.00999848
0.00999852
0.00999867
0.00999892
0.00999922
0.00999951
0.00999973
0.00999987
0.00999994
0.00999998
0.0100002
0.0100002
0.0100001
0.00999992
0.00999972
0.00999949
0.00999921
0.00999891
0.00999862
0.00999839
0.00999826
0.00999827
0.00999846
0.00999879
0.00999919
0.00999958
0.00999987
0.01
0.0100001
0.01
0.0100003
0.0100002
0.0100001
0.00999999
0.00999978
0.0099995
0.00999916
0.00999877
0.00999837
0.009998
0.00999779
0.00999782
0.00999812
0.00999865
0.00999924
0.00999968
0.0099999
0.00999995
0.00999994
0.00999996
0.0100004
0.0100004
0.0100003
0.0100001
0.0099999
0.00999958
0.00999916
0.00999865
0.00999806
0.00999749
0.00999709
0.00999711
0.00999761
0.0099985
0.00999946
0.0100001
0.0100003
0.0100002
0.0100001
0.00999998
0.0100006
0.0100005
0.0100005
0.0100003
0.0100001
0.00999977
0.00999925
0.00999853
0.00999766
0.00999683
0.00999624
0.00999618
0.00999697
0.00999834
0.00999966
0.0100004
0.0100004
0.0100002
0.00999992
0.00999991
0.0100008
0.0100007
0.0100007
0.0100006
0.0100005
0.0100002
0.0099996
0.0099986
0.00999708
0.00999528
0.00999411
0.00999445
0.00999659
0.00999939
0.0100012
0.0100015
0.0100008
0.01
0.00999974
0.00999987
0.0100009
0.010001
0.010001
0.010001
0.010001
0.0100008
0.0100003
0.00999923
0.00999731
0.00999424
0.00999035
0.00999016
0.00999438
0.0100001
0.0100032
0.010003
0.0100012
0.00999984
0.0099995
0.00999983
0.010001
0.0100011
0.0100013
0.0100015
0.0100018
0.0100019
0.0100014
0.00999945
0.00999546
0.00998964
0.00998677
0.00998961
0.00999793
0.0100036
0.0100043
0.0100024
0.0100003
0.00999934
0.00999945
0.00999988
0.010001
0.0100012
0.0100014
0.0100019
0.0100026
0.010004
0.0100058
0.0100078
0.0100048
0.00997842
0.00995229
0.00997575
0.0100087
0.0100177
0.0100104
0.0100023
0.00999882
0.0099989
0.00999979
0.0100002
0.010001
0.0100011
0.0100013
0.0100018
0.0100026
0.010004
0.0100058
0.0100077
0.0100048
0.00997838
0.00995231
0.00997571
0.0100087
0.0100177
0.0100103
0.0100022
0.00999882
0.00999888
0.00999975
0.0100001
0.0100008
0.0100009
0.0100011
0.0100013
0.0100016
0.0100017
0.0100012
0.00999925
0.00999527
0.00998946
0.00998673
0.00998947
0.00999781
0.0100035
0.0100042
0.0100022
0.0100002
0.00999932
0.00999946
0.00999989
0.0100006
0.0100006
0.0100007
0.0100007
0.0100007
0.0100005
0.00999997
0.00999893
0.00999704
0.00999399
0.00998995
0.00998989
0.00999414
0.00999985
0.010003
0.0100028
0.0100011
0.00999976
0.00999947
0.00999982
0.0100003
0.0100003
0.0100002
0.0100002
0.01
0.00999971
0.00999915
0.00999816
0.00999665
0.00999487
0.00999369
0.00999406
0.00999625
0.00999909
0.010001
0.0100013
0.0100006
0.00999989
0.00999964
0.00999983
0.00999995
0.00999991
0.00999985
0.00999973
0.00999951
0.00999918
0.00999867
0.00999797
0.00999712
0.00999632
0.00999575
0.00999574
0.00999656
0.00999796
0.00999933
0.0100001
0.0100002
0.00999997
0.00999981
0.00999988
0.00999965
0.0099996
0.00999951
0.00999937
0.00999915
0.00999885
0.00999845
0.00999795
0.00999739
0.00999684
0.00999647
0.00999652
0.00999706
0.00999799
0.00999899
0.00999969
0.00999997
0.00999996
0.00999989
0.00999992
0.00999938
0.00999933
0.00999924
0.0099991
0.0099989
0.00999863
0.00999831
0.00999794
0.00999757
0.00999725
0.00999708
0.00999715
0.00999749
0.00999807
0.00999872
0.00999926
0.00999959
0.00999973
0.00999981
0.00999991
0.00999916
0.00999911
0.00999902
0.00999888
0.0099987
0.00999847
0.00999821
0.00999793
0.00999766
0.00999744
0.00999734
0.00999741
0.00999766
0.00999806
0.00999853
0.00999898
0.00999934
0.00999958
0.00999976
0.00999991
0.00999899
0.00999894
0.00999885
0.00999873
0.00999857
0.00999837
0.00999815
0.00999793
0.00999774
0.0099976
0.00999754
0.0099976
0.00999779
0.0099981
0.00999849
0.00999889
0.00999924
0.00999951
0.00999973
0.00999991
0.00999885
0.0099988
0.0099987
0.00999858
0.00999842
0.00999823
0.00999803
0.00999784
0.00999766
0.00999754
0.00999751
0.00999758
0.00999776
0.00999803
0.00999837
0.00999872
0.00999907
0.00999936
0.00999963
0.00999986
)
;

boundaryField
{
    sides
    {
        type            calculated;
        value           nonuniform List<scalar> 
40
(
0.00999885
0.0099988
0.0099987
0.00999858
0.00999842
0.00999823
0.00999803
0.00999784
0.00999766
0.00999754
0.00999751
0.00999758
0.00999776
0.00999803
0.00999837
0.00999872
0.00999907
0.00999936
0.00999963
0.00999986
0.0100002
0.0100002
0.0100001
0.00999996
0.00999978
0.00999958
0.00999937
0.00999915
0.00999895
0.0099988
0.00999873
0.00999874
0.00999887
0.00999907
0.00999933
0.0099996
0.00999982
0.00999998
0.01
0.01
)
;
    }
    inlet
    {
        type            calculated;
        value           nonuniform List<scalar> 
20
(
0.0100002
0.0100002
0.0100002
0.0100003
0.0100004
0.0100006
0.0100008
0.0100009
0.010001
0.010001
0.010001
0.0100008
0.0100006
0.0100003
0.00999995
0.00999965
0.00999938
0.00999916
0.00999899
0.00999885
)
;
    }
    outlet
    {
        type            calculated;
        value           uniform 0.01;
    }
    frontAndBack
    {
        type            empty;
    }
}


// ************************************************************************* //
