/*--------------------------------*- C++ -*----------------------------------*\
  =========                 |
  \\      /  F ield         | OpenFOAM: The Open Source CFD Toolbox
   \\    /   O peration     | Website:  https://openfoam.org
    \\  /    A nd           | Version:  9
     \\/     M anipulation  |
\*---------------------------------------------------------------------------*/
FoamFile
{
    format      ascii;
    class       volVectorField;
    location    "40";
    object      hU_0;
}
// * * * * * * * * * * * * * * * * * * * * * * * * * * * * * * * * * * * * * //

dimensions      [0 2 -1 0 0 0 0];

internalField   nonuniform List<vector> 
400
(
(0.000999999 -2.80631e-08 0)
(0.00100006 -7.2831e-08 0)
(0.00100014 -1.10562e-07 0)
(0.00100024 -1.47894e-07 0)
(0.00100039 -1.86395e-07 0)
(0.00100058 -2.2105e-07 0)
(0.00100078 -2.43107e-07 0)
(0.00100099 -2.49679e-07 0)
(0.00100117 -2.37417e-07 0)
(0.00100131 -2.10915e-07 0)
(0.00100137 -1.71128e-07 0)
(0.00100136 -1.32853e-07 0)
(0.00100126 -1.02539e-07 0)
(0.00100108 -9.29006e-08 0)
(0.00100083 -9.52955e-08 0)
(0.0010006 -1.30884e-07 0)
(0.00100038 -1.55156e-07 0)
(0.00100028 -2.01553e-07 0)
(0.00100021 -1.88478e-07 0)
(0.00100028 -2.67286e-07 0)
(0.001 -3.58669e-08 0)
(0.00100006 -8.62774e-08 0)
(0.00100015 -1.24429e-07 0)
(0.00100026 -1.64819e-07 0)
(0.00100042 -2.11868e-07 0)
(0.00100062 -2.51398e-07 0)
(0.00100084 -2.62498e-07 0)
(0.00100107 -2.3289e-07 0)
(0.00100129 -1.58839e-07 0)
(0.00100145 -4.78937e-08 0)
(0.00100154 9.01418e-08 0)
(0.00100151 2.36474e-07 0)
(0.00100138 3.78958e-07 0)
(0.00100116 4.77726e-07 0)
(0.00100089 5.17753e-07 0)
(0.00100062 4.66716e-07 0)
(0.00100043 3.80591e-07 0)
(0.00100031 2.4587e-07 0)
(0.00100028 2.01082e-07 0)
(0.00100023 8.3701e-08 0)
(0.001 -6.50254e-08 0)
(0.00100006 -1.70523e-07 0)
(0.00100014 -2.61773e-07 0)
(0.00100026 -3.60274e-07 0)
(0.00100043 -4.71451e-07 0)
(0.00100064 -5.71929e-07 0)
(0.00100089 -6.28421e-07 0)
(0.00100116 -6.15753e-07 0)
(0.00100142 -5.23524e-07 0)
(0.00100163 -3.51602e-07 0)
(0.00100174 -1.14627e-07 0)
(0.00100173 1.46289e-07 0)
(0.00100157 3.85626e-07 0)
(0.00100128 5.21738e-07 0)
(0.00100091 5.19173e-07 0)
(0.00100057 3.76755e-07 0)
(0.00100031 2.0849e-07 0)
(0.00100021 3.3185e-08 0)
(0.00100017 -8.15349e-09 0)
(0.00100024 -1.12926e-07 0)
(0.001 -8.82391e-08 0)
(0.00100006 -2.35288e-07 0)
(0.00100014 -3.66236e-07 0)
(0.00100026 -5.11691e-07 0)
(0.00100045 -6.7706e-07 0)
(0.00100069 -8.30362e-07 0)
(0.00100099 -9.19197e-07 0)
(0.00100134 -9.06466e-07 0)
(0.0010017 -7.61588e-07 0)
(0.00100201 -4.72968e-07 0)
(0.0010022 -3.2367e-08 0)
(0.00100216 4.70625e-07 0)
(0.0010019 9.1686e-07 0)
(0.00100143 1.14151e-06 0)
(0.00100093 1.08011e-06 0)
(0.00100054 7.73561e-07 0)
(0.00100036 4.30997e-07 0)
(0.0010003 1.53333e-07 0)
(0.00100034 9.55205e-08 0)
(0.00100029 5.48922e-09 0)
(0.001 -1.05671e-07 0)
(0.00100005 -2.90823e-07 0)
(0.00100012 -4.66655e-07 0)
(0.00100025 -6.72714e-07 0)
(0.00100045 -9.16151e-07 0)
(0.00100073 -1.16064e-06 0)
(0.00100109 -1.33036e-06 0)
(0.00100155 -1.35922e-06 0)
(0.00100206 -1.18179e-06 0)
(0.00100255 -7.77825e-07 0)
(0.00100288 -1.78067e-07 0)
(0.00100286 5.54965e-07 0)
(0.00100242 1.20782e-06 0)
(0.00100165 1.51063e-06 0)
(0.00100083 1.39912e-06 0)
(0.00100026 9.9616e-07 0)
(0.00100008 5.88949e-07 0)
(0.00100016 2.94409e-07 0)
(0.00100031 2.54152e-07 0)
(0.00100037 1.7331e-07 0)
(0.001 -1.16413e-07 0)
(0.00100003 -3.2965e-07 0)
(0.00100009 -5.50387e-07 0)
(0.00100019 -8.2219e-07 0)
(0.00100038 -1.16694e-06 0)
(0.00100069 -1.54486e-06 0)
(0.00100115 -1.88953e-06 0)
(0.00100178 -2.07618e-06 0)
(0.00100253 -1.9175e-06 0)
(0.00100325 -1.2004e-06 0)
(0.00100376 7.62933e-08 0)
(0.00100376 1.51685e-06 0)
(0.00100307 2.40859e-06 0)
(0.00100189 2.30544e-06 0)
(0.00100079 1.4554e-06 0)
(0.00100015 5.23025e-07 0)
(0.00100013 2.1637e-08 0)
(0.00100031 -1.01163e-07 0)
(0.00100057 5.29759e-08 0)
(0.00100048 5.38353e-08 0)
(0.001 -1.1305e-07 0)
(0.00100001 -3.41981e-07 0)
(0.00100002 -5.89727e-07 0)
(0.00100007 -9.39793e-07 0)
(0.00100022 -1.38509e-06 0)
(0.00100049 -1.96259e-06 0)
(0.001001 -2.51639e-06 0)
(0.00100188 -3.10461e-06 0)
(0.0010032 -3.24111e-06 0)
(0.00100472 -2.87986e-06 0)
(0.00100573 -6.79713e-07 0)
(0.00100534 2.53682e-06 0)
(0.00100348 4.8062e-06 0)
(0.0010011 4.73685e-06 0)
(0.000999576 3.0547e-06 0)
(0.000999335 1.29597e-06 0)
(0.000999964 4.37999e-07 0)
(0.00100051 3.0829e-07 0)
(0.00100086 5.53139e-07 0)
(0.00100059 5.36294e-07 0)
(0.001 -9.99121e-08 0)
(0.000999968 -2.94262e-07 0)
(0.000999898 -5.65986e-07 0)
(0.000999872 -9.37175e-07 0)
(0.000999884 -1.56913e-06 0)
(0.0010001 -2.35634e-06 0)
(0.0010005 -3.42423e-06 0)
(0.00100152 -4.14138e-06 0)
(0.00100307 -4.37912e-06 0)
(0.00100601 -2.55402e-06 0)
(0.00100911 7.44104e-07 0)
(0.00100914 4.24323e-06 0)
(0.00100548 4.70189e-06 0)
(0.00100071 2.78302e-06 0)
(0.000998122 7.55398e-07 0)
(0.000998239 -2.47275e-07 0)
(0.000999757 -2.78591e-07 0)
(0.00100082 -2.28925e-08 0)
(0.00100127 2.03939e-07 0)
(0.00100078 1.02686e-07 0)
(0.001 -5.33363e-08 0)
(0.000999913 -2.05803e-07 0)
(0.000999744 -3.77112e-07 0)
(0.000999527 -7.19549e-07 0)
(0.000999295 -1.33034e-06 0)
(0.000999217 -2.48699e-06 0)
(0.000999705 -4.70069e-06 0)
(0.00100139 -8.07873e-06 0)
(0.0010049 -1.32894e-05 0)
(0.00100958 -1.49165e-05 0)
(0.00101188 3.83264e-06 0)
(0.00100893 1.87098e-05 0)
(0.00100221 1.57688e-05 0)
(0.000997543 5.74444e-06 0)
(0.000996856 -3.0302e-07 0)
(0.000998427 -1.24552e-06 0)
(0.00100023 -8.68432e-08 0)
(0.00100095 6.27719e-07 0)
(0.001001 6.44105e-07 0)
(0.00100047 2.393e-07 0)
(0.00099981 -2.04198e-08 0)
(0.00100017 -6.47684e-08 0)
(0.000999202 -1.43986e-07 0)
(0.0009999 -2.38602e-07 0)
(0.000997529 -5.85095e-07 0)
(0.00099885 -1.13042e-06 0)
(0.000993344 -2.88655e-06 0)
(0.000997522 -5.59573e-06 0)
(0.000991658 -1.15453e-05 0)
(0.000915827 -1.27069e-05 0)
(0.000951462 2.69606e-07 0)
(0.00101022 1.46393e-05 0)
(0.000990935 1.30819e-05 0)
(0.000983948 5.14482e-06 0)
(0.000989555 2.04161e-07 0)
(0.00099625 -7.69335e-07 0)
(0.0009992 -1.04102e-07 0)
(0.00099936 2.48619e-07 0)
(0.000998579 1.68458e-07 0)
(0.000998434 -1.92664e-07 0)
(0.00099981 1.64111e-08 0)
(0.00100017 5.15388e-08 0)
(0.000999202 1.21597e-07 0)
(0.000999898 2.0337e-07 0)
(0.000997527 5.3462e-07 0)
(0.000998845 1.05917e-06 0)
(0.000993336 2.79466e-06 0)
(0.000997509 5.47757e-06 0)
(0.000991642 1.1399e-05 0)
(0.000915803 1.25472e-05 0)
(0.000951427 -4.67722e-07 0)
(0.0010102 -1.49049e-05 0)
(0.000990931 -1.34015e-05 0)
(0.000983941 -5.52776e-06 0)
(0.000989535 -6.41269e-07 0)
(0.000996211 2.55547e-07 0)
(0.000999158 -4.65937e-07 0)
(0.000999314 -9.945e-07 0)
(0.000998563 -9.90829e-07 0)
(0.000998383 -8.98669e-07 0)
(0.001 4.97716e-08 0)
(0.000999913 1.9329e-07 0)
(0.000999743 3.54975e-07 0)
(0.000999527 6.84577e-07 0)
(0.000999293 1.28027e-06 0)
(0.000999218 2.41577e-06 0)
(0.000999702 4.60712e-06 0)
(0.00100139 7.95353e-06 0)
(0.00100489 1.31326e-05 0)
(0.00100958 1.4716e-05 0)
(0.00101189 -4.06885e-06 0)
(0.00100888 -1.89932e-05 0)
(0.00100212 -1.60798e-05 0)
(0.000997452 -6.11411e-06 0)
(0.000996783 -8.41714e-08 0)
(0.000998367 7.74453e-07 0)
(0.00100013 -4.22154e-07 0)
(0.0010008 -1.2923e-06 0)
(0.00100081 -1.37942e-06 0)
(0.0010003 -1.26294e-06 0)
(0.001 9.67775e-08 0)
(0.000999967 2.82838e-07 0)
(0.000999896 5.44197e-07 0)
(0.000999868 9.02498e-07 0)
(0.000999878 1.51663e-06 0)
(0.00100009 2.2814e-06 0)
(0.00100048 3.31913e-06 0)
(0.00100148 4.00713e-06 0)
(0.00100302 4.21298e-06 0)
(0.00100593 2.36222e-06 0)
(0.00100901 -9.7887e-07 0)
(0.00100906 -4.52119e-06 0)
(0.00100541 -4.99908e-06 0)
(0.00100064 -3.12068e-06 0)
(0.000998025 -1.13667e-06 0)
(0.0009981 -2.58953e-07 0)
(0.000999582 -3.16478e-07 0)
(0.00100059 -7.21311e-07 0)
(0.001001 -9.65398e-07 0)
(0.00100048 -1.08836e-06 0)
(0.001 1.10048e-07 0)
(0.001 3.31146e-07 0)
(0.00100001 5.69293e-07 0)
(0.00100007 9.0646e-07 0)
(0.0010002 1.33634e-06 0)
(0.00100047 1.89482e-06 0)
(0.00100097 2.42974e-06 0)
(0.00100185 2.99593e-06 0)
(0.00100317 3.11647e-06 0)
(0.00100468 2.72855e-06 0)
(0.00100567 5.18256e-07 0)
(0.00100525 -2.73271e-06 0)
(0.00100336 -5.05239e-06 0)
(0.00100094 -5.06069e-06 0)
(0.000999377 -3.45875e-06 0)
(0.000999086 -1.80679e-06 0)
(0.000999703 -1.01582e-06 0)
(0.0010002 -1.03494e-06 0)
(0.00100055 -1.30396e-06 0)
(0.00100017 -1.53144e-06 0)
(0.001 1.13209e-07 0)
(0.00100003 3.20033e-07 0)
(0.00100008 5.32898e-07 0)
(0.00100018 7.93619e-07 0)
(0.00100037 1.12451e-06 0)
(0.00100067 1.48514e-06 0)
(0.00100112 1.81196e-06 0)
(0.00100173 1.97317e-06 0)
(0.00100247 1.78649e-06 0)
(0.00100316 1.03072e-06 0)
(0.00100364 -2.72603e-07 0)
(0.00100362 -1.75359e-06 0)
(0.0010029 -2.68025e-06 0)
(0.00100168 -2.62136e-06 0)
(0.00100054 -1.79014e-06 0)
(0.000999866 -9.11121e-07 0)
(0.000999814 -4.24842e-07 0)
(0.000999927 -4.24241e-07 0)
(0.00100016 -6.13043e-07 0)
(0.000999941 -8.64783e-07 0)
(0.001 1.02256e-07 0)
(0.00100005 2.82377e-07 0)
(0.00100012 4.5178e-07 0)
(0.00100024 6.49339e-07 0)
(0.00100043 8.81043e-07 0)
(0.0010007 1.11024e-06 0)
(0.00100106 1.26294e-06 0)
(0.0010015 1.27414e-06 0)
(0.00100199 1.07766e-06 0)
(0.00100247 6.53141e-07 0)
(0.00100278 2.38806e-08 0)
(0.00100272 -7.4772e-07 0)
(0.00100224 -1.42384e-06 0)
(0.00100143 -1.76538e-06 0)
(0.00100059 -1.68099e-06 0)
(0.000999963 -1.36623e-06 0)
(0.000999744 -1.02798e-06 0)
(0.000999712 -9.13453e-07 0)
(0.000999829 -9.42584e-07 0)
(0.000999706 -1.12452e-06 0)
(0.001 8.49942e-08 0)
(0.00100005 2.26984e-07 0)
(0.00100013 3.52253e-07 0)
(0.00100025 4.90249e-07 0)
(0.00100043 6.47065e-07 0)
(0.00100067 7.89264e-07 0)
(0.00100095 8.67391e-07 0)
(0.00100128 8.45192e-07 0)
(0.00100162 6.94693e-07 0)
(0.00100189 4.01903e-07 0)
(0.00100203 -4.32371e-08 0)
(0.00100197 -5.5642e-07 0)
(0.00100168 -1.01221e-06 0)
(0.00100117 -1.27512e-06 0)
(0.00100061 -1.24381e-06 0)
(0.00100012 -1.01182e-06 0)
(0.000999863 -7.00627e-07 0)
(0.000999686 -5.35834e-07 0)
(0.000999699 -4.85123e-07 0)
(0.000999501 -6.12464e-07 0)
(0.001 6.43014e-08 0)
(0.00100006 1.63673e-07 0)
(0.00100014 2.4384e-07 0)
(0.00100025 3.28052e-07 0)
(0.00100041 4.22953e-07 0)
(0.00100062 5.02492e-07 0)
(0.00100086 5.33239e-07 0)
(0.00100112 4.888e-07 0)
(0.00100136 3.63363e-07 0)
(0.00100155 1.51363e-07 0)
(0.00100164 -1.13437e-07 0)
(0.00100157 -4.04499e-07 0)
(0.00100136 -6.64002e-07 0)
(0.001001 -8.39609e-07 0)
(0.0010006 -8.62976e-07 0)
(0.00100017 -7.85547e-07 0)
(0.000999895 -6.3799e-07 0)
(0.000999636 -5.8113e-07 0)
(0.000999579 -5.59153e-07 0)
(0.000999331 -6.94817e-07 0)
(0.000999999 4.40419e-08 0)
(0.00100005 1.14276e-07 0)
(0.00100013 1.73308e-07 0)
(0.00100023 2.34985e-07 0)
(0.00100038 3.02628e-07 0)
(0.00100056 3.61807e-07 0)
(0.00100077 3.91649e-07 0)
(0.00100097 3.79735e-07 0)
(0.00100116 3.21965e-07 0)
(0.00100128 2.22173e-07 0)
(0.00100133 8.72796e-08 0)
(0.00100128 -6.22215e-08 0)
(0.00100112 -1.9608e-07 0)
(0.00100083 -2.95604e-07 0)
(0.0010005 -3.20946e-07 0)
(0.00100012 -2.92072e-07 0)
(0.000999845 -2.02756e-07 0)
(0.000999562 -1.58078e-07 0)
(0.000999472 -1.16975e-07 0)
(0.000999195 -2.05223e-07 0)
(0.000999999 -9.82343e-10 0)
(0.00100006 -6.04408e-09 0)
(0.00100014 -1.18749e-08 0)
(0.00100024 -1.5839e-08 0)
(0.00100039 -1.67744e-08 0)
(0.00100056 -1.91575e-08 0)
(0.00100075 -2.83152e-08 0)
(0.00100094 -4.90278e-08 0)
(0.00100111 -7.94807e-08 0)
(0.00100121 -1.2144e-07 0)
(0.00100125 -1.67173e-07 0)
(0.00100118 -2.25494e-07 0)
(0.00100103 -2.85671e-07 0)
(0.00100077 -3.40595e-07 0)
(0.00100049 -3.62605e-07 0)
(0.00100013 -3.71215e-07 0)
(0.000999891 -3.4192e-07 0)
(0.000999559 -3.48542e-07 0)
(0.000999477 -3.26959e-07 0)
(0.000999077 -4.12707e-07 0)
)
;

boundaryField
{
    sides
    {
        type            slip;
    }
    inlet
    {
        type            fixedValue;
        value           uniform (0.001 0 0);
    }
    outlet
    {
        type            zeroGradient;
    }
    frontAndBack
    {
        type            empty;
    }
}


// ************************************************************************* //
