/*--------------------------------*- C++ -*----------------------------------*\
  =========                 |
  \\      /  F ield         | OpenFOAM: The Open Source CFD Toolbox
   \\    /   O peration     | Website:  https://openfoam.org
    \\  /    A nd           | Version:  9
     \\/     M anipulation  |
\*---------------------------------------------------------------------------*/
FoamFile
{
    format      ascii;
    class       surfaceScalarField;
    location    "40";
    object      phi;
}
// * * * * * * * * * * * * * * * * * * * * * * * * * * * * * * * * * * * * * //

dimensions      [0 4 -1 0 0 0 0];

internalField   nonuniform List<scalar> 
760
(
5.00014e-06
-1.2426e-10
5.00048e-06
-3.46534e-10
5.00098e-06
-5.18674e-10
5.00165e-06
-6.84021e-10
5.00248e-06
-8.71211e-10
5.00348e-06
-1.03952e-09
5.00455e-06
-1.11945e-09
5.00555e-06
-1.06216e-09
5.00634e-06
-8.51291e-10
5.00681e-06
-5.2194e-10
5.00689e-06
-1.27651e-10
5.0065e-06
3.61787e-10
5.00566e-06
8.21063e-10
5.00455e-06
1.10469e-09
5.00334e-06
1.21612e-09
5.00232e-06
1.00894e-09
5.00156e-06
7.32875e-10
5.00134e-06
2.09967e-10
5.00124e-06
8.60788e-11
-3.86698e-10
5.00016e-06
-2.72223e-10
5.00052e-06
-7.06333e-10
5.00105e-06
-1.05236e-09
5.00175e-06
-1.40273e-09
5.00265e-06
-1.79928e-09
5.00373e-06
-2.16296e-09
5.00492e-06
-2.35849e-09
5.00609e-06
-2.28025e-09
5.00707e-06
-1.88349e-09
5.00766e-06
-1.16421e-09
5.00761e-06
-1.13786e-10
5.0071e-06
8.36353e-10
5.00612e-06
1.77999e-09
5.0048e-06
2.4161e-09
5.00349e-06
2.5215e-09
5.00253e-06
1.95638e-09
5.00197e-06
1.27803e-09
5.00163e-06
5.31493e-10
5.00137e-06
3.35974e-10
-1.32718e-10
5.00014e-06
-3.98031e-10
5.00049e-06
-1.04549e-09
5.00102e-06
-1.58248e-09
5.00175e-06
-2.1495e-09
5.00272e-06
-2.79508e-09
5.00393e-06
-3.40879e-09
5.00531e-06
-3.77058e-09
5.0067e-06
-3.70672e-09
5.00788e-06
-3.10433e-09
5.00863e-06
-1.95605e-09
5.0088e-06
-3.26983e-10
5.00811e-06
1.49132e-09
5.00674e-06
3.13711e-09
5.005e-06
4.12532e-09
5.00331e-06
4.19388e-09
5.00205e-06
3.19849e-09
5.00137e-06
1.94006e-09
5.0012e-06
6.88345e-10
5.00117e-06
3.49572e-10
-2.08621e-10
5.00012e-06
-5.04631e-10
5.00046e-06
-1.36372e-09
5.00099e-06
-2.11258e-09
5.00177e-06
-2.93759e-09
5.00286e-06
-3.89742e-09
5.00428e-06
-4.85311e-09
5.00601e-06
-5.51485e-09
5.00793e-06
-5.65855e-09
5.00979e-06
-5.00132e-09
5.01099e-06
-3.19668e-09
5.01109e-06
-4.50968e-10
5.00987e-06
2.66989e-09
5.00752e-06
5.46131e-09
5.005e-06
6.62076e-09
5.00328e-06
5.86605e-09
5.00247e-06
3.98063e-09
5.00221e-06
2.167e-09
5.00201e-06
8.63154e-10
5.00169e-06
6.60239e-10
3.5489e-10
5.0001e-06
-5.81894e-10
5.00037e-06
-1.61897e-09
5.00087e-06
-2.59998e-09
5.00166e-06
-3.73117e-09
5.00287e-06
-5.11163e-09
5.00458e-06
-6.56538e-09
5.00679e-06
-7.74089e-09
5.00939e-06
-8.29043e-09
5.01235e-06
-7.96971e-09
5.01471e-06
-5.60002e-09
5.01474e-06
-5.14737e-10
5.01275e-06
4.64876e-09
5.00856e-06
9.6132e-09
5.00446e-06
1.06955e-08
5.00206e-06
8.23336e-09
5.0015e-06
4.49e-09
5.00176e-06
1.86405e-09
5.00196e-06
6.29017e-10
5.00171e-06
8.9414e-10
6.42786e-10
5.00005e-06
-6.11272e-10
5.00021e-06
-1.7613e-09
5.00055e-06
-2.9336e-09
5.00123e-06
-4.39827e-09
5.00243e-06
-6.30184e-09
5.00453e-06
-8.66507e-09
5.00758e-06
-1.08137e-08
5.01164e-06
-1.23489e-08
5.01548e-06
-1.184e-08
5.01898e-06
-9.06839e-09
5.02014e-06
-1.7334e-09
5.01593e-06
8.8575e-09
5.00939e-06
1.61466e-08
5.00406e-06
1.59823e-08
5.002e-06
1.02618e-08
5.0023e-06
4.15196e-09
5.00302e-06
1.08949e-09
5.0031e-06
5.15884e-10
5.00247e-06
1.4898e-09
1.42961e-09
4.99997e-06
-5.75708e-10
4.99993e-06
-1.69839e-09
5.00003e-06
-3.01809e-09
5.00038e-06
-4.72835e-09
5.00125e-06
-7.15487e-09
5.00293e-06
-1.03489e-08
5.00679e-06
-1.46713e-08
5.01389e-06
-1.94559e-08
5.02372e-06
-2.16491e-08
5.03086e-06
-1.62455e-08
5.02873e-06
5.32285e-10
5.01667e-06
2.08202e-08
5.00409e-06
2.8713e-08
4.9986e-06
2.14592e-08
5.0004e-06
8.42028e-09
5.00265e-06
1.85993e-09
5.00348e-06
2.18672e-10
5.00336e-06
5.88122e-10
5.00272e-06
2.10747e-09
1.67952e-09
4.99985e-06
-4.24069e-10
4.99952e-06
-1.35946e-09
4.99911e-06
-2.58392e-09
4.99887e-06
-4.46576e-09
4.99936e-06
-7.62721e-09
5.00037e-06
-1.13521e-08
5.00363e-06
-1.79226e-08
5.00978e-06
-2.55883e-08
5.02488e-06
-3.67154e-08
5.05607e-06
-4.75597e-08
5.05005e-06
6.02619e-09
5.02314e-06
4.77494e-08
4.99807e-06
5.3713e-08
4.99336e-06
2.61309e-08
4.99929e-06
2.44966e-09
5.00388e-06
-2.77143e-09
5.00467e-06
-6.19175e-10
5.00343e-06
1.79143e-09
5.00317e-06
2.33661e-09
9.55448e-10
4.99975e-06
-1.72898e-10
4.99911e-06
-7.14909e-10
4.9979e-06
-1.3491e-09
4.99613e-06
-2.67171e-09
4.99405e-06
-5.5371e-09
4.99375e-06
-1.10408e-08
4.99944e-06
-2.35785e-08
5.0171e-06
-4.32396e-08
5.05565e-06
-7.52479e-08
5.06686e-06
-5.86086e-08
5.0497e-06
2.37052e-08
4.99646e-06
1.00955e-07
4.98924e-06
6.097e-08
4.99579e-06
1.95443e-08
5.00002e-06
-1.84006e-09
5.00273e-06
-5.5314e-09
5.00229e-06
-2.26738e-10
5.00154e-06
2.50917e-09
5.0022e-06
1.65083e-09
5.29834e-11
4.99983e-06
-9.98344e-12
4.99916e-06
-3.1318e-11
4.99788e-06
-5.51089e-11
4.99532e-06
-9.13221e-11
4.98993e-06
-1.33814e-10
4.9791e-06
-1.91316e-10
4.95581e-06
-2.51599e-10
4.91292e-06
-3.25266e-10
4.8381e-06
-4.16083e-10
4.77999e-06
-4.56672e-10
4.80425e-06
-6.18397e-10
4.90602e-06
-7.25513e-10
4.9677e-06
-7.37641e-10
4.98808e-06
-8.82688e-10
4.9873e-06
-1.11686e-09
4.98308e-06
-1.37688e-09
4.98433e-06
-1.5238e-09
4.9886e-06
-1.80015e-09
4.99213e-06
-1.9036e-09
-2.62328e-09
4.99983e-06
1.53784e-10
4.99916e-06
6.51102e-10
4.99788e-06
1.24135e-09
4.99531e-06
2.49428e-09
4.98991e-06
5.27972e-09
4.97907e-06
1.0669e-08
4.95576e-06
2.30908e-08
4.91286e-06
4.25904e-08
4.838e-06
7.4471e-08
4.77973e-06
5.78306e-08
4.80425e-06
-2.52217e-08
4.90598e-06
-1.02426e-07
4.96768e-06
-6.24746e-08
4.98793e-06
-2.11664e-08
4.9872e-06
-4.37739e-10
4.98275e-06
3.00785e-09
4.9842e-06
-3.0256e-09
4.98858e-06
-6.23121e-09
4.992e-06
-5.35098e-09
-5.03303e-09
4.99975e-06
4.06885e-10
4.99911e-06
1.29865e-09
4.99789e-06
2.47145e-09
4.99612e-06
4.28747e-09
4.99406e-06
7.36004e-09
4.99375e-06
1.09831e-08
4.99942e-06
1.74406e-08
5.01705e-06
2.49777e-08
5.05558e-06
3.59474e-08
5.06709e-06
4.63798e-08
5.04957e-06
-7.42396e-09
4.99606e-06
-4.90507e-08
4.98876e-06
-5.51617e-08
4.99555e-06
-2.79878e-08
4.99994e-06
-4.87805e-09
5.00213e-06
7.67783e-10
5.00142e-06
-2.37265e-09
5.0006e-06
-5.4526e-09
5.00134e-06
-6.11874e-09
-6.01108e-09
4.99985e-06
5.599e-10
4.99952e-06
1.64016e-09
4.9991e-06
2.9095e-09
4.99885e-06
4.55577e-09
4.99931e-06
6.91255e-09
5.00029e-06
1.00127e-08
5.00346e-06
1.42711e-08
5.00956e-06
1.88891e-08
5.02457e-06
2.09515e-08
5.05553e-06
1.54024e-08
5.04963e-06
-1.75537e-09
5.02278e-06
-2.20685e-08
4.99776e-06
-3.01913e-08
4.99301e-06
-2.32774e-08
4.99846e-06
-1.03737e-08
5.00326e-06
-4.07216e-09
5.0035e-06
-2.66351e-09
5.00206e-06
-4.05651e-09
5.00183e-06
-5.91341e-09
-6.60151e-09
4.99997e-06
5.95677e-10
4.99992e-06
1.70821e-09
5e-06
2.83705e-09
5.00033e-06
4.24599e-09
5.00117e-06
6.08612e-09
5.00281e-06
8.36524e-09
5.00667e-06
1.04029e-08
5.01375e-06
1.18034e-08
5.02353e-06
1.11717e-08
5.03066e-06
8.25492e-09
5.02835e-06
6.57034e-10
5.01616e-06
-9.94565e-09
5.00338e-06
-1.74314e-08
4.99762e-06
-1.75511e-08
4.99924e-06
-1.2027e-08
5.00142e-06
-6.29299e-09
5.00217e-06
-3.46343e-09
5.00184e-06
-3.768e-09
5.00087e-06
-4.96661e-09
-6.04579e-09
5.00004e-06
5.65237e-10
5.00019e-06
1.57348e-09
5.00052e-06
2.51922e-09
5.00118e-06
3.59955e-09
5.00235e-06
4.91441e-09
5.00441e-06
6.29087e-09
5.0074e-06
7.38446e-09
5.01136e-06
7.83275e-09
5.01508e-06
7.4366e-09
5.01846e-06
4.86843e-09
5.01948e-06
-3.9666e-10
5.01513e-06
-5.60584e-09
5.00841e-06
-1.07371e-08
5.00295e-06
-1.21186e-08
5.0007e-06
-9.80448e-09
5.0008e-06
-6.43889e-09
5.0013e-06
-4.01197e-09
5.00102e-06
-3.52708e-09
5.00004e-06
-4.00239e-09
-5.04574e-09
5.00009e-06
4.86823e-10
5.00035e-06
1.32566e-09
5.00083e-06
2.04819e-09
5.00159e-06
2.82964e-09
5.00277e-06
3.73264e-09
5.00442e-06
4.6218e-09
5.00655e-06
5.22332e-09
5.00906e-06
5.28271e-09
5.01199e-06
4.48951e-09
5.01434e-06
2.4837e-09
5.01404e-06
-1.22375e-10
5.01195e-06
-3.54649e-09
5.0076e-06
-6.41487e-09
5.00332e-06
-7.86544e-09
5.00074e-06
-7.24923e-09
4.9999e-06
-5.64389e-09
4.99984e-06
-3.99463e-09
4.99959e-06
-3.31277e-09
4.99887e-06
-3.30273e-09
-4.23592e-09
5.00012e-06
3.8012e-10
5.00044e-06
1.01292e-09
5.00096e-06
1.5311e-09
5.0017e-06
2.06426e-09
5.00275e-06
2.66884e-09
5.00412e-06
3.22265e-09
5.00578e-06
3.53044e-09
5.00761e-06
3.41826e-09
5.00927e-06
2.78585e-09
5.01015e-06
1.55418e-09
5.0103e-06
-3.03021e-10
5.00889e-06
-2.16745e-09
5.00636e-06
-3.91405e-09
5.00351e-06
-5.04445e-09
5.00134e-06
-5.11479e-09
5.00011e-06
-4.44052e-09
4.99943e-06
-3.35789e-09
4.99888e-06
-2.79761e-09
4.99815e-06
-2.59626e-09
-3.26892e-09
5.00013e-06
2.59936e-10
5.00047e-06
6.75849e-10
5.00099e-06
1.00534e-09
5.00169e-06
1.33594e-09
5.00262e-06
1.70789e-09
5.00378e-06
2.03429e-09
5.00509e-06
2.17858e-09
5.00643e-06
2.03578e-09
5.00759e-06
1.5759e-09
5.00828e-06
8.10188e-10
5.00806e-06
-1.2481e-10
5.00716e-06
-1.30764e-09
5.00553e-06
-2.31059e-09
5.00351e-06
-3.0508e-09
5.00159e-06
-3.2211e-09
5.00009e-06
-2.96647e-09
4.99904e-06
-2.33788e-09
4.99825e-06
-2.0314e-09
4.99745e-06
-1.81418e-09
-2.31709e-09
5.00012e-06
1.49417e-10
5.00044e-06
3.482e-10
5.00094e-06
5.02598e-10
5.00158e-06
6.60297e-10
5.00241e-06
8.39088e-10
5.00341e-06
9.94093e-10
5.00448e-06
1.05689e-09
5.00549e-06
9.79386e-10
5.00626e-06
7.49528e-10
5.00666e-06
3.55228e-10
5.00664e-06
-1.42814e-10
5.0059e-06
-6.06205e-10
5.00463e-06
-1.06061e-09
5.00298e-06
-1.42103e-09
5.00127e-06
-1.52626e-09
4.99976e-06
-1.47357e-09
4.9986e-06
-1.19603e-09
4.99766e-06
-1.10488e-09
4.9968e-06
-9.66248e-10
-1.44486e-09
5.00015e-06
5.00049e-06
5.00098e-06
5.00162e-06
5.00242e-06
5.00336e-06
5.00436e-06
5.00528e-06
5.00596e-06
5.00626e-06
5.00607e-06
5.00543e-06
5.00435e-06
5.00293e-06
5.0014e-06
4.99992e-06
4.99871e-06
4.99759e-06
4.99661e-06
)
;

boundaryField
{
    sides
    {
        type            calculated;
        value           uniform 0;
    }
    inlet
    {
        type            calculated;
        value           nonuniform List<scalar> 
20
(
-5e-06
-5e-06
-5e-06
-5e-06
-5e-06
-5e-06
-5e-06
-5e-06
-5e-06
-5e-06
-5e-06
-5e-06
-5e-06
-5e-06
-5e-06
-5e-06
-5e-06
-5e-06
-5e-06
-5e-06
)
;
    }
    outlet
    {
        type            calculated;
        value           nonuniform List<scalar> 
20
(
5.00162e-06
5.00111e-06
5.00124e-06
5.00112e-06
5.00141e-06
5.00167e-06
5.00246e-06
5.00389e-06
5.0031e-06
4.9948e-06
4.9944e-06
5.00231e-06
5.00241e-06
5.0003e-06
4.99903e-06
4.99805e-06
4.99718e-06
4.99649e-06
4.99593e-06
4.99517e-06
)
;
    }
    frontAndBack
    {
        type            empty;
        value           nonuniform List<scalar> 0();
    }
}


// ************************************************************************* //
