/*--------------------------------*- C++ -*----------------------------------*\
  =========                 |
  \\      /  F ield         | OpenFOAM: The Open Source CFD Toolbox
   \\    /   O peration     | Website:  https://openfoam.org
    \\  /    A nd           | Version:  9
     \\/     M anipulation  |
\*---------------------------------------------------------------------------*/
FoamFile
{
    format      ascii;
    class       surfaceScalarField;
    location    "40";
    object      phi_0;
}
// * * * * * * * * * * * * * * * * * * * * * * * * * * * * * * * * * * * * * //

dimensions      [0 4 -1 0 0 0 0];

internalField   nonuniform List<scalar> 
760
(
5.00014e-06
-1.23001e-10
5.00048e-06
-3.31884e-10
5.00098e-06
-5.02263e-10
5.00164e-06
-6.76074e-10
5.00248e-06
-8.70517e-10
5.00349e-06
-1.04109e-09
5.00455e-06
-1.1149e-09
5.00555e-06
-1.05597e-09
5.00634e-06
-8.47391e-10
5.0068e-06
-5.24198e-10
5.00689e-06
-1.34935e-10
5.0065e-06
3.5241e-10
5.00565e-06
8.16836e-10
5.00453e-06
1.10613e-09
5.00332e-06
1.21644e-09
5.00231e-06
1.00325e-09
5.00157e-06
7.22477e-10
5.00135e-06
2.06018e-10
5.00125e-06
9.33492e-11
-3.83487e-10
5.00016e-06
-2.68661e-10
5.00052e-06
-6.80749e-10
5.00104e-06
-1.02299e-09
5.00174e-06
-1.38693e-09
5.00264e-06
-1.79872e-09
5.00373e-06
-2.16405e-09
5.00492e-06
-2.35143e-09
5.00609e-06
-2.26952e-09
5.00706e-06
-1.87577e-09
5.00766e-06
-1.16741e-09
5.00761e-06
-1.27858e-10
5.0071e-06
8.20816e-10
5.00612e-06
1.77544e-09
5.00479e-06
2.42133e-09
5.00348e-06
2.52492e-09
5.00253e-06
1.94869e-09
5.00198e-06
1.26127e-09
5.00164e-06
5.24863e-10
5.00138e-06
3.44258e-10
-1.26604e-10
5.00014e-06
-3.91759e-10
5.00048e-06
-1.01366e-09
5.00101e-06
-1.54332e-09
5.00175e-06
-2.1273e-09
5.00272e-06
-2.79309e-09
5.00393e-06
-3.40919e-09
5.00531e-06
-3.76362e-09
5.0067e-06
-3.69291e-09
5.00787e-06
-3.08965e-09
5.00863e-06
-1.95949e-09
5.0088e-06
-3.40271e-10
5.00811e-06
1.47569e-09
5.00673e-06
3.1344e-09
5.00499e-06
4.13958e-09
5.0033e-06
4.20656e-09
5.00205e-06
3.19264e-09
5.00138e-06
1.91709e-09
5.00121e-06
6.78808e-10
5.00118e-06
3.64223e-10
-2.02612e-10
5.00012e-06
-4.96866e-10
5.00045e-06
-1.3276e-09
5.00099e-06
-2.06741e-09
5.00177e-06
-2.91133e-09
5.00285e-06
-3.89477e-09
5.00428e-06
-4.85606e-09
5.006e-06
-5.5082e-09
5.00793e-06
-5.63434e-09
5.00978e-06
-4.98341e-09
5.01099e-06
-3.18953e-09
5.01108e-06
-4.74807e-10
5.00986e-06
2.66046e-09
5.00751e-06
5.46285e-09
5.00498e-06
6.63682e-09
5.00327e-06
5.88407e-09
5.00246e-06
3.97966e-09
5.00222e-06
2.14805e-09
5.00202e-06
8.56831e-10
5.0017e-06
6.74832e-10
3.62628e-10
5.00009e-06
-5.7372e-10
5.00036e-06
-1.58141e-09
5.00086e-06
-2.55216e-09
5.00165e-06
-3.70399e-09
5.00286e-06
-5.11082e-09
5.00457e-06
-6.57033e-09
5.00679e-06
-7.72764e-09
5.00938e-06
-8.26122e-09
5.01234e-06
-7.95004e-09
5.0147e-06
-5.59105e-09
5.01475e-06
-5.19925e-10
5.01274e-06
4.62204e-09
5.00855e-06
9.6222e-09
5.00445e-06
1.07161e-08
5.00204e-06
8.24825e-09
5.00149e-06
4.48816e-09
5.00176e-06
1.84541e-09
5.00197e-06
6.26151e-10
5.00171e-06
9.15483e-10
6.53057e-10
5.00004e-06
-6.0382e-10
5.0002e-06
-1.72571e-09
5.00055e-06
-2.88812e-09
5.00123e-06
-4.37346e-09
5.00242e-06
-6.30247e-09
5.00453e-06
-8.66721e-09
5.00758e-06
-1.07961e-08
5.01163e-06
-1.23255e-08
5.01549e-06
-1.18091e-08
5.01896e-06
-9.08742e-09
5.02013e-06
-1.7113e-09
5.01593e-06
8.84384e-09
5.00938e-06
1.61365e-08
5.00406e-06
1.60007e-08
5.002e-06
1.02768e-08
5.00229e-06
4.14804e-09
5.00302e-06
1.07241e-09
5.00309e-06
5.14485e-10
5.00247e-06
1.51066e-09
1.43995e-09
4.99997e-06
-5.69392e-10
4.99992e-06
-1.66876e-09
5.00003e-06
-2.9802e-09
5.00037e-06
-4.70822e-09
5.00124e-06
-7.15384e-09
5.00293e-06
-1.03471e-08
5.00678e-06
-1.46584e-08
5.01389e-06
-1.9431e-08
5.0237e-06
-2.16426e-08
5.0309e-06
-1.6217e-08
5.02868e-06
3.58789e-10
5.01666e-06
2.08417e-08
5.00409e-06
2.87218e-08
4.9986e-06
2.14702e-08
5.0004e-06
8.43042e-09
5.00265e-06
1.85408e-09
5.00347e-06
1.9901e-10
5.00336e-06
5.83205e-10
5.00271e-06
2.12335e-09
1.68771e-09
4.99984e-06
-4.19399e-10
4.99952e-06
-1.3387e-09
4.99911e-06
-2.55772e-09
4.99887e-06
-4.45162e-09
4.99936e-06
-7.62512e-09
5.00037e-06
-1.13483e-08
5.00362e-06
-1.79133e-08
5.00977e-06
-2.55792e-08
5.02486e-06
-3.66852e-08
5.05611e-06
-4.75547e-08
5.05006e-06
7.6388e-09
5.02309e-06
4.76744e-08
4.99806e-06
5.37246e-08
4.99337e-06
2.61499e-08
4.9993e-06
2.45941e-09
5.00389e-06
-2.7769e-09
5.00467e-06
-6.35809e-10
5.00342e-06
1.78162e-09
5.00317e-06
2.34333e-09
9.59825e-10
4.99974e-06
-1.70495e-10
4.9991e-06
-7.0525e-10
4.9979e-06
-1.33662e-09
4.99613e-06
-2.66489e-09
4.99405e-06
-5.53622e-09
4.99375e-06
-1.10411e-08
4.99942e-06
-2.35753e-08
5.0171e-06
-4.32321e-08
5.05565e-06
-7.52522e-08
5.0668e-06
-5.85751e-08
5.04966e-06
2.35512e-08
4.99649e-06
1.00995e-07
4.98923e-06
6.09824e-08
4.99578e-06
1.95531e-08
5.00003e-06
-1.83541e-09
5.00274e-06
-5.53557e-09
5.00229e-06
-2.33413e-10
5.00153e-06
2.50082e-09
5.00219e-06
1.64876e-09
5.29712e-11
4.99983e-06
-1.02089e-11
4.99915e-06
-3.30325e-11
4.99788e-06
-5.69833e-11
4.99532e-06
-9.26579e-11
4.98993e-06
-1.36784e-10
4.97909e-06
-1.95271e-10
4.95579e-06
-2.55126e-10
4.91291e-06
-3.27851e-10
4.8381e-06
-4.10911e-10
4.77995e-06
-4.68805e-10
4.80428e-06
-5.95197e-10
4.906e-06
-7.25014e-10
4.96768e-06
-7.42353e-10
4.98808e-06
-8.77799e-10
4.98731e-06
-1.11442e-09
4.98309e-06
-1.37858e-09
4.98433e-06
-1.52752e-09
4.98859e-06
-1.80666e-09
4.99212e-06
-1.91266e-09
-2.62703e-09
4.99983e-06
1.51408e-10
4.99915e-06
6.38817e-10
4.99788e-06
1.2257e-09
4.99531e-06
2.48382e-09
4.98991e-06
5.27402e-09
4.97906e-06
1.06606e-08
4.95574e-06
2.30825e-08
4.91285e-06
4.25771e-08
4.838e-06
7.44662e-08
4.77971e-06
5.78111e-08
4.80425e-06
-2.50296e-08
4.90595e-06
-1.02443e-07
4.96767e-06
-6.24674e-08
4.98793e-06
-2.11644e-08
4.9872e-06
-4.36135e-10
4.98276e-06
3.01383e-09
4.98419e-06
-3.01973e-09
4.98857e-06
-6.23406e-09
4.99199e-06
-5.36418e-09
-5.03935e-09
4.99974e-06
4.02755e-10
4.9991e-06
1.27728e-09
4.99789e-06
2.44293e-09
4.99612e-06
4.26874e-09
4.99405e-06
7.35175e-09
4.99375e-06
1.09741e-08
4.99941e-06
1.74239e-08
5.01704e-06
2.4963e-08
5.05557e-06
3.59174e-08
5.06712e-06
4.63849e-08
5.04939e-06
-8.8172e-09
4.99606e-06
-4.90069e-08
4.98875e-06
-5.51641e-08
4.99554e-06
-2.7999e-08
4.99995e-06
-4.88094e-09
5.00214e-06
7.70826e-10
5.00142e-06
-2.35891e-09
5.00059e-06
-5.45255e-09
5.00133e-06
-6.13601e-09
-6.01932e-09
4.99984e-06
5.54056e-10
4.99951e-06
1.61115e-09
4.9991e-06
2.87088e-09
4.99885e-06
4.53143e-09
4.99931e-06
6.90444e-09
5.00028e-06
1.00053e-08
5.00345e-06
1.42524e-08
5.00955e-06
1.88612e-08
5.02456e-06
2.0935e-08
5.05547e-06
1.53745e-08
5.04978e-06
-1.56722e-09
5.02276e-06
-2.2071e-08
4.99775e-06
-3.01919e-08
4.99301e-06
-2.32857e-08
4.99847e-06
-1.03801e-08
5.00326e-06
-4.06639e-09
5.00349e-06
-2.64974e-09
5.00205e-06
-4.05675e-09
5.00182e-06
-5.93641e-09
-6.61226e-09
4.99997e-06
5.88192e-10
4.99991e-06
1.6736e-09
5e-06
2.79179e-09
5.00033e-06
4.21979e-09
5.00116e-06
6.08083e-09
5.00281e-06
8.3598e-09
5.00667e-06
1.03823e-08
5.01374e-06
1.17753e-08
5.02352e-06
1.11464e-08
5.03067e-06
8.26043e-09
5.02831e-06
6.47079e-10
5.01615e-06
-9.92325e-09
5.00337e-06
-1.74263e-08
4.99762e-06
-1.75629e-08
4.99924e-06
-1.20367e-08
5.00142e-06
-6.28905e-09
5.00216e-06
-3.44929e-09
5.00183e-06
-3.77168e-09
5.00086e-06
-4.99555e-09
-6.05919e-09
5.00004e-06
5.56985e-10
5.00019e-06
1.53651e-09
5.00052e-06
2.47149e-09
5.00117e-06
3.57319e-09
5.00234e-06
4.91346e-09
5.00441e-06
6.28962e-09
5.0074e-06
7.3659e-09
5.01135e-06
7.801e-09
5.01508e-06
7.41445e-09
5.01845e-06
4.86314e-09
5.01948e-06
-3.85595e-10
5.01512e-06
-5.58236e-09
5.0084e-06
-1.07322e-08
5.00295e-06
-1.21297e-08
5.0007e-06
-9.81626e-09
5.0008e-06
-6.43601e-09
5.0013e-06
-3.99838e-09
5.00102e-06
-3.53308e-09
5.00004e-06
-4.03354e-09
-5.05975e-09
5.00009e-06
4.79798e-10
5.00035e-06
1.2898e-09
5.00083e-06
2.00294e-09
5.00159e-06
2.80372e-09
5.00276e-06
3.73304e-09
5.00442e-06
4.62491e-09
5.00655e-06
5.20883e-09
5.00906e-06
5.25374e-09
5.01198e-06
4.46535e-09
5.01433e-06
2.47774e-09
5.01402e-06
-1.00378e-10
5.01194e-06
-3.52993e-09
5.0076e-06
-6.41149e-09
5.00332e-06
-7.87865e-09
5.00073e-06
-7.26174e-09
4.9999e-06
-5.64152e-09
4.99984e-06
-3.98131e-09
4.9996e-06
-3.31647e-09
4.99887e-06
-3.32942e-09
-4.24779e-09
5.00012e-06
3.75929e-10
5.00044e-06
9.82585e-10
5.00095e-06
1.49237e-09
5.0017e-06
2.04122e-09
5.00274e-06
2.6664e-09
5.00412e-06
3.22587e-09
5.00578e-06
3.52146e-09
5.0076e-06
3.39782e-09
5.00926e-06
2.76714e-09
5.01015e-06
1.55278e-09
5.01029e-06
-2.91321e-10
5.00888e-06
-2.15183e-09
5.00635e-06
-3.91142e-09
5.0035e-06
-5.05692e-09
5.00133e-06
-5.12718e-09
5.0001e-06
-4.43853e-09
4.99943e-06
-3.34305e-09
4.99889e-06
-2.79549e-09
4.99817e-06
-2.61453e-09
-3.27727e-09
5.00014e-06
2.57895e-10
5.00047e-06
6.55352e-10
5.00098e-06
9.77966e-10
5.00169e-06
1.31797e-09
5.00262e-06
1.70255e-09
5.00378e-06
2.03312e-09
5.00509e-06
2.17297e-09
5.00643e-06
2.02475e-09
5.00758e-06
1.56665e-09
5.00828e-06
8.10303e-10
5.00805e-06
-1.10578e-10
5.00716e-06
-1.29537e-09
5.00552e-06
-2.3093e-09
5.0035e-06
-3.05939e-09
5.00157e-06
-3.22845e-09
5.00008e-06
-2.96211e-09
4.99904e-06
-2.32195e-09
4.99826e-06
-2.02381e-09
4.99746e-06
-1.82316e-09
-2.32174e-09
5.00012e-06
1.48731e-10
5.00044e-06
3.38135e-10
5.00093e-06
4.88873e-10
5.00158e-06
6.50624e-10
5.00241e-06
8.34799e-10
5.00341e-06
9.91579e-10
5.00449e-06
1.05328e-09
5.00549e-06
9.74608e-10
5.00625e-06
7.46609e-10
5.00665e-06
3.58299e-10
5.00664e-06
-1.35678e-10
5.0059e-06
-5.97241e-10
5.00462e-06
-1.05698e-09
5.00297e-06
-1.42285e-09
5.00126e-06
-1.52868e-09
4.99976e-06
-1.47019e-09
4.99862e-06
-1.1858e-09
4.99768e-06
-1.09798e-09
4.99682e-06
-9.68598e-10
-1.44664e-09
5.00015e-06
5.00049e-06
5.00098e-06
5.00161e-06
5.00242e-06
5.00337e-06
5.00436e-06
5.00528e-06
5.00596e-06
5.00626e-06
5.00607e-06
5.00543e-06
5.00435e-06
5.00291e-06
5.00139e-06
4.99991e-06
4.99872e-06
4.99761e-06
4.99662e-06
)
;

boundaryField
{
    sides
    {
        type            calculated;
        value           uniform 0;
    }
    inlet
    {
        type            calculated;
        value           nonuniform List<scalar> 
20
(
-5e-06
-5e-06
-5e-06
-5e-06
-5e-06
-5e-06
-5e-06
-5e-06
-5e-06
-5e-06
-5e-06
-5e-06
-5e-06
-5e-06
-5e-06
-5e-06
-5e-06
-5e-06
-5e-06
-5e-06
)
;
    }
    outlet
    {
        type            calculated;
        value           nonuniform List<scalar> 
20
(
5.00163e-06
5.00112e-06
5.00125e-06
5.00113e-06
5.00142e-06
5.00168e-06
5.00245e-06
5.00388e-06
5.00309e-06
4.99479e-06
4.99439e-06
5.0023e-06
5.00241e-06
5.0003e-06
4.99903e-06
4.99806e-06
4.99719e-06
4.9965e-06
4.99594e-06
4.99517e-06
)
;
    }
    frontAndBack
    {
        type            empty;
        value           nonuniform List<scalar> 0();
    }
}


// ************************************************************************* //
