/*--------------------------------*- C++ -*----------------------------------*\
  =========                 |
  \\      /  F ield         | OpenFOAM: The Open Source CFD Toolbox
   \\    /   O peration     | Website:  https://openfoam.org
    \\  /    A nd           | Version:  9
     \\/     M anipulation  |
\*---------------------------------------------------------------------------*/
FoamFile
{
    format      ascii;
    class       volVectorField;
    location    "40";
    object      U;
}
// * * * * * * * * * * * * * * * * * * * * * * * * * * * * * * * * * * * * * //

dimensions      [0 1 -1 0 0 0 0];

internalField   nonuniform List<vector> 
400
(
(0.0999975 -2.83536e-06 0)
(0.100004 -7.47535e-06 0)
(0.100013 -1.12641e-05 0)
(0.100025 -1.48826e-05 0)
(0.100041 -1.86397e-05 0)
(0.100062 -2.20906e-05 0)
(0.100085 -2.43714e-05 0)
(0.100107 -2.50587e-05 0)
(0.100128 -2.38106e-05 0)
(0.100143 -2.10703e-05 0)
(0.10015 -1.69938e-05 0)
(0.100149 -1.31951e-05 0)
(0.100138 -1.02081e-05 0)
(0.100118 -9.30115e-06 0)
(0.10009 -9.53415e-06 0)
(0.100064 -1.30399e-05 0)
(0.10004 -1.54438e-05 0)
(0.100028 -2.0125e-05 0)
(0.10002 -1.88607e-05 0)
(0.100027 -2.67482e-05 0)
(0.0999981 -3.6467e-06 0)
(0.100005 -9.06116e-06 0)
(0.100015 -1.29401e-05 0)
(0.100027 -1.67437e-05 0)
(0.100045 -2.12073e-05 0)
(0.100067 -2.51196e-05 0)
(0.100092 -2.63753e-05 0)
(0.100117 -2.34794e-05 0)
(0.100141 -1.60194e-05 0)
(0.10016 -4.73525e-06 0)
(0.100169 9.23742e-06 0)
(0.100166 2.39083e-05 0)
(0.100152 3.79902e-05 0)
(0.100127 4.77102e-05 0)
(0.100097 5.17395e-05 0)
(0.100067 4.68117e-05 0)
(0.100046 3.83606e-05 0)
(0.100032 2.47043e-05 0)
(0.100028 1.99242e-05 0)
(0.100023 8.27484e-06 0)
(0.0999978 -6.59251e-06 0)
(0.100004 -1.76191e-05 0)
(0.100014 -2.68688e-05 0)
(0.100027 -3.64174e-05 0)
(0.100046 -4.71777e-05 0)
(0.10007 -5.7181e-05 0)
(0.100097 -6.29903e-05 0)
(0.100127 -6.18385e-05 0)
(0.100156 -5.25825e-05 0)
(0.100179 -3.50988e-05 0)
(0.100192 -1.12203e-05 0)
(0.10019 1.49563e-05 0)
(0.100172 3.86437e-05 0)
(0.10014 5.19798e-05 0)
(0.100099 5.1766e-05 0)
(0.100062 3.78155e-05 0)
(0.100032 2.12322e-05 0)
(0.10002 3.47489e-06 0)
(0.100016 -1.02759e-06 0)
(0.100024 -1.14109e-05 0)
(0.0999971 -8.95824e-06 0)
(0.100003 -2.4219e-05 0)
(0.100013 -3.74822e-05 0)
(0.100027 -5.16559e-05 0)
(0.100047 -6.77457e-05 0)
(0.100074 -8.30069e-05 0)
(0.100108 -9.20804e-05 0)
(0.100146 -9.10539e-05 0)
(0.100187 -7.65149e-05 0)
(0.100221 -4.73452e-05 0)
(0.100242 -2.84199e-06 0)
(0.100239 4.73297e-05 0)
(0.100209 9.1701e-05 0)
(0.100157 0.000113845 0)
(0.100101 0.000107712 0)
(0.100057 7.74593e-05 0)
(0.100037 4.35599e-05 0)
(0.10003 1.55113e-05 0)
(0.100035 9.2836e-06 0)
(0.100029 4.03439e-07 0)
(0.099996 -1.07211e-05 0)
(0.100001 -2.98248e-05 0)
(0.10001 -4.76047e-05 0)
(0.100024 -6.78094e-05 0)
(0.100046 -9.16498e-05 0)
(0.100077 -0.000115997 0)
(0.100118 -0.000133258 0)
(0.100168 -0.000136489 0)
(0.100225 -0.000118583 0)
(0.100281 -7.79692e-05 0)
(0.100317 -1.74939e-05 0)
(0.100315 5.58591e-05 0)
(0.100266 0.000120724 0)
(0.10018 0.00015074 0)
(0.100088 0.00013958 0)
(0.100026 9.96376e-05 0)
(0.100005 5.93004e-05 0)
(0.100013 2.95511e-05 0)
(0.10003 2.50205e-05 0)
(0.100037 1.71381e-05 0)
(0.0999945 -1.17907e-05 0)
(0.0999979 -3.36983e-05 0)
(0.100004 -5.59787e-05 0)
(0.100016 -8.27388e-05 0)
(0.100037 -0.000116693 0)
(0.100071 -0.000154419 0)
(0.100122 -0.000189281 0)
(0.100193 -0.000208202 0)
(0.100277 -0.000192317 0)
(0.100357 -0.000120043 0)
(0.100414 7.53086e-06 0)
(0.100414 0.000152131 0)
(0.100338 0.000240883 0)
(0.100206 0.000230153 0)
(0.100082 0.00014522 0)
(0.100011 5.23232e-05 0)
(0.100009 2.47336e-06 0)
(0.10003 -1.00873e-05 0)
(0.100058 4.90799e-06 0)
(0.100049 5.18561e-06 0)
(0.0999928 -1.14349e-05 0)
(0.0999934 -3.48455e-05 0)
(0.0999947 -5.98108e-05 0)
(0.100001 -9.44242e-05 0)
(0.100017 -0.000138501 0)
(0.100047 -0.000196251 0)
(0.100104 -0.000251957 0)
(0.100202 -0.000310991 0)
(0.10035 -0.000324612 0)
(0.100519 -0.000288104 0)
(0.100632 -6.80046e-05 0)
(0.100591 0.000253849 0)
(0.100382 0.00048086 0)
(0.100116 0.000473412 0)
(0.0999452 0.000305159 0)
(0.0999186 0.000129696 0)
(0.0999887 4.41936e-05 0)
(0.100051 3.08931e-05 0)
(0.100089 5.49274e-05 0)
(0.10006 5.34326e-05 0)
(0.0999908 -1.00931e-05 0)
(0.0999875 -2.99177e-05 0)
(0.0999799 -5.72349e-05 0)
(0.0999768 -9.40531e-05 0)
(0.0999784 -0.000156924 0)
(0.100002 -0.000235671 0)
(0.100047 -0.000342671 0)
(0.10016 -0.000414559 0)
(0.100335 -0.00043837 0)
(0.100659 -0.000255838 0)
(0.101007 7.51312e-05 0)
(0.101014 0.000425138 0)
(0.100605 0.000470282 0)
(0.10007 0.000278044 0)
(0.0997797 7.534e-05 0)
(0.0997936 -2.45577e-05 0)
(0.0999633 -2.74412e-05 0)
(0.100084 -2.15478e-06 0)
(0.100132 2.01716e-05 0)
(0.10008 1.01405e-05 0)
(0.0999898 -5.40159e-06 0)
(0.0999804 -2.08776e-05 0)
(0.0999617 -3.80926e-05 0)
(0.0999374 -7.21531e-05 0)
(0.0999115 -0.000133037 0)
(0.0999028 -0.000248694 0)
(0.099957 -0.000470154 0)
(0.100144 -0.000808115 0)
(0.100536 -0.00132978 0)
(0.101062 -0.00149348 0)
(0.101324 0.000384364 0)
(0.100997 0.00187314 0)
(0.100241 0.00157696 0)
(0.0997188 0.000573973 0)
(0.0996423 -3.03905e-05 0)
(0.0998189 -0.000124393 0)
(0.10002 -8.35215e-06 0)
(0.100102 6.29614e-05 0)
(0.100106 6.43784e-05 0)
(0.100048 2.38904e-05 0)
(0.0999706 -2.065e-06 0)
(0.100005 -6.55921e-06 0)
(0.0999063 -1.45052e-05 0)
(0.0999711 -2.39078e-05 0)
(0.0997266 -5.84723e-05 0)
(0.099845 -0.000112957 0)
(0.0992768 -0.000288472 0)
(0.0996748 -0.000559149 0)
(0.0991178 -0.00115398 0)
(0.102004 -0.00141529 0)
(0.106282 2.9956e-05 0)
(0.101268 0.00146716 0)
(0.0990077 0.00130705 0)
(0.0982211 0.000513448 0)
(0.098853 2.03456e-05 0)
(0.0996024 -7.68535e-05 0)
(0.0999317 -1.02614e-05 0)
(0.0999471 2.50247e-05 0)
(0.0998602 1.69712e-05 0)
(0.0998419 -1.92234e-05 0)
(0.0999713 1.66751e-06 0)
(0.100006 5.2943e-06 0)
(0.099907 1.23357e-05 0)
(0.0999717 2.04485e-05 0)
(0.099727 5.35265e-05 0)
(0.0998452 0.000105985 0)
(0.0992766 0.000279411 0)
(0.0996741 0.000547446 0)
(0.0991167 0.00113934 0)
(0.102001 0.00139768 0)
(0.106277 -5.35383e-05 0)
(0.101266 -0.00149403 0)
(0.0990078 -0.00133906 0)
(0.0982208 -0.000551873 0)
(0.0988515 -6.41137e-05 0)
(0.0995987 2.55073e-05 0)
(0.0999275 -4.6634e-05 0)
(0.0999427 -9.93744e-05 0)
(0.099859 -9.88458e-05 0)
(0.0998371 -8.97582e-05 0)
(0.0999919 5.03986e-06 0)
(0.0999825 1.96585e-05 0)
(0.0999637 3.59319e-05 0)
(0.0999393 6.87365e-05 0)
(0.0999134 0.000128138 0)
(0.0999049 0.000241703 0)
(0.0999587 0.000460927 0)
(0.100146 0.00079571 0)
(0.100537 0.00131423 0)
(0.101063 0.00147324 0)
(0.101326 -0.000406641 0)
(0.100996 -0.00190151 0)
(0.100234 -0.00160838 0)
(0.0997106 -0.000611086 0)
(0.0996362 -8.41494e-06 0)
(0.0998143 7.72734e-05 0)
(0.100011 -4.23999e-05 0)
(0.100087 -0.000129222 0)
(0.100087 -0.000137652 0)
(0.100031 -0.000126152 0)
(0.0999944 9.77211e-06 0)
(0.0999909 2.87778e-05 0)
(0.0999832 5.5085e-05 0)
(0.0999798 9.06726e-05 0)
(0.099981 0.000151813 0)
(0.100004 0.000228306 0)
(0.100048 0.00033231 0)
(0.100159 0.000401242 0)
(0.100332 0.000421881 0)
(0.100655 0.000236544 0)
(0.101 -9.73331e-05 0)
(0.101007 -0.000452869 0)
(0.1006 -0.000500183 0)
(0.100065 -0.00031189 0)
(0.0997724 -0.000113545 0)
(0.0997815 -2.60509e-05 0)
(0.0999472 -3.19431e-05 0)
(0.100061 -7.21319e-05 0)
(0.100105 -9.61347e-05 0)
(0.10005 -0.000108643 0)
(0.0999977 1.11326e-05 0)
(0.0999981 3.37503e-05 0)
(0.0999992 5.77763e-05 0)
(0.100005 9.11507e-05 0)
(0.10002 0.000133763 0)
(0.10005 0.000189619 0)
(0.100106 0.000243395 0)
(0.100203 0.00030021 0)
(0.100351 0.000312184 0)
(0.100519 0.00027315 0)
(0.100631 5.0714e-05 0)
(0.100586 -0.000273684 0)
(0.100374 -0.00050551 0)
(0.100103 -0.000505917 0)
(0.0999277 -0.000345675 0)
(0.0998957 -0.000180774 0)
(0.0999643 -0.000101898 0)
(0.100021 -0.000103459 0)
(0.100059 -0.000129871 0)
(0.100019 -0.000152898 0)
(0.100001 1.14723e-05 0)
(0.100004 3.27225e-05 0)
(0.10001 5.42301e-05 0)
(0.100021 7.9895e-05 0)
(0.100042 0.000112519 0)
(0.100075 0.000148591 0)
(0.100125 0.000181622 0)
(0.100194 0.00019799 0)
(0.100276 0.000179205 0)
(0.100353 0.000103143 0)
(0.100407 -2.75233e-05 0)
(0.100404 -0.00017593 0)
(0.100325 -0.000268193 0)
(0.100188 -0.000261939 0)
(0.100061 -0.0001788 0)
(0.0999857 -9.11691e-05 0)
(0.0999794 -4.27504e-05 0)
(0.0999931 -4.23352e-05 0)
(0.100018 -6.07092e-05 0)
(0.0999953 -8.6202e-05 0)
(0.100004 1.03718e-05 0)
(0.100009 2.89723e-05 0)
(0.100017 4.61218e-05 0)
(0.10003 6.54676e-05 0)
(0.100052 8.81184e-05 0)
(0.100082 0.000111021 0)
(0.100121 0.000126658 0)
(0.10017 0.000128067 0)
(0.100225 0.000108268 0)
(0.100279 6.54419e-05 0)
(0.100314 2.03024e-06 0)
(0.100307 -7.51937e-05 0)
(0.100254 -0.000142523 0)
(0.100163 -0.000176343 0)
(0.100069 -0.000167855 0)
(0.0999995 -0.000136667 0)
(0.0999748 -0.000103079 0)
(0.0999716 -9.12568e-05 0)
(0.0999839 -9.36674e-05 0)
(0.0999712 -0.000112188 0)
(0.100006 8.60641e-06 0)
(0.100012 2.33629e-05 0)
(0.100021 3.60762e-05 0)
(0.100035 4.95279e-05 0)
(0.100054 6.47404e-05 0)
(0.10008 7.88787e-05 0)
(0.100112 8.69916e-05 0)
(0.100149 8.50328e-05 0)
(0.100186 6.99189e-05 0)
(0.100217 4.02733e-05 0)
(0.100233 -4.59777e-06 0)
(0.100226 -5.59946e-05 0)
(0.100193 -0.000101308 0)
(0.100136 -0.000127264 0)
(0.100074 -0.000124137 0)
(0.100019 -0.00010125 0)
(0.0999905 -7.03731e-05 0)
(0.0999712 -5.35694e-05 0)
(0.0999715 -4.80456e-05 0)
(0.0999508 -6.10403e-05 0)
(0.100008 6.49818e-06 0)
(0.100014 1.69074e-05 0)
(0.100024 2.50732e-05 0)
(0.100037 3.32225e-05 0)
(0.100054 4.2371e-05 0)
(0.100077 5.02409e-05 0)
(0.100104 5.35027e-05 0)
(0.100132 4.92325e-05 0)
(0.10016 3.66392e-05 0)
(0.100181 1.51461e-05 0)
(0.100191 -1.16274e-05 0)
(0.100183 -4.07609e-05 0)
(0.100159 -6.64469e-05 0)
(0.10012 -8.37636e-05 0)
(0.100075 -8.61268e-05 0)
(0.100028 -7.86336e-05 0)
(0.0999962 -6.41085e-05 0)
(0.0999675 -5.82198e-05 0)
(0.09996 -5.56547e-05 0)
(0.0999338 -6.93542e-05 0)
(0.10001 4.43102e-06 0)
(0.100016 1.17373e-05 0)
(0.100024 1.77404e-05 0)
(0.100036 2.37659e-05 0)
(0.100052 3.03509e-05 0)
(0.100073 3.62234e-05 0)
(0.100095 3.92799e-05 0)
(0.100118 3.81602e-05 0)
(0.100138 3.2333e-05 0)
(0.100152 2.21787e-05 0)
(0.100158 8.52633e-06 0)
(0.100152 -6.46156e-06 0)
(0.100134 -1.96987e-05 0)
(0.100102 -2.94883e-05 0)
(0.100065 -3.20157e-05 0)
(0.100023 -2.93e-05 0)
(0.0999921 -2.05525e-05 0)
(0.0999607 -1.59595e-05 0)
(0.0999496 -1.15794e-05 0)
(0.0999203 -2.04553e-05 0)
(0.100011 -9.93537e-08 0)
(0.100018 -5.33562e-07 0)
(0.100027 -1.07871e-06 0)
(0.100039 -1.49683e-06 0)
(0.100054 -1.63338e-06 0)
(0.100074 -1.89239e-06 0)
(0.100095 -2.80382e-06 0)
(0.100116 -4.87074e-06 0)
(0.100134 -7.93052e-06 0)
(0.100146 -1.21749e-05 0)
(0.10015 -1.68472e-05 0)
(0.100142 -2.26565e-05 0)
(0.100126 -2.85934e-05 0)
(0.100097 -3.4038e-05 0)
(0.100066 -3.625e-05 0)
(0.100026 -3.71755e-05 0)
(0.0999984 -3.4312e-05 0)
(0.0999619 -3.49272e-05 0)
(0.0999512 -3.26654e-05 0)
(0.099909 -4.12511e-05 0)
)
;

boundaryField
{
    sides
    {
        type            calculated;
        value           nonuniform List<vector> 
40
(
(0.100011 0 0)
(0.100018 0 0)
(0.100027 0 0)
(0.100039 0 0)
(0.100054 0 0)
(0.100074 0 0)
(0.100095 0 0)
(0.100116 0 0)
(0.100134 0 0)
(0.100146 0 0)
(0.10015 0 0)
(0.100142 0 0)
(0.100126 0 0)
(0.100097 0 0)
(0.100066 0 0)
(0.100026 0 0)
(0.0999984 0 0)
(0.0999619 0 0)
(0.0999512 0 0)
(0.099909 0 0)
(0.0999975 0 0)
(0.100004 0 0)
(0.100013 0 0)
(0.100025 0 0)
(0.100041 0 0)
(0.100062 0 0)
(0.100085 0 0)
(0.100107 0 0)
(0.100128 0 0)
(0.100143 0 0)
(0.10015 0 0)
(0.100149 0 0)
(0.100138 0 0)
(0.100118 0 0)
(0.10009 0 0)
(0.100064 0 0)
(0.10004 0 0)
(0.100028 0 0)
(0.10002 0 0)
(0.100027 0 0)
)
;
    }
    inlet
    {
        type            calculated;
        value           nonuniform List<vector> 
20
(
(0.0999977 0 0)
(0.0999981 0 0)
(0.0999978 0 0)
(0.099997 0 0)
(0.0999958 0 0)
(0.0999942 0 0)
(0.0999925 0 0)
(0.0999908 0 0)
(0.0999898 0 0)
(0.0999897 0 0)
(0.0999904 0 0)
(0.0999919 0 0)
(0.0999944 0 0)
(0.0999974 0 0)
(0.100001 0 0)
(0.100004 0 0)
(0.100006 0 0)
(0.100008 0 0)
(0.10001 0 0)
(0.100012 0 0)
)
;
    }
    outlet
    {
        type            calculated;
        value           nonuniform List<vector> 
20
(
(0.100028 -2.67483e-05 0)
(0.100023 8.27482e-06 0)
(0.100024 -1.14109e-05 0)
(0.100028 4.03438e-07 0)
(0.100037 1.71381e-05 0)
(0.100048 5.18557e-06 0)
(0.100059 5.34319e-05 0)
(0.100078 1.01403e-05 0)
(0.100047 2.38901e-05 0)
(0.0998435 -1.92237e-05 0)
(0.0998384 -8.97594e-05 0)
(0.10003 -0.000126151 0)
(0.100048 -0.000108641 0)
(0.100017 -0.000152896 0)
(0.099994 -8.62009e-05 0)
(0.0999704 -0.000112187 0)
(0.0999499 -6.10398e-05 0)
(0.0999329 -6.93536e-05 0)
(0.0999194 -2.04551e-05 0)
(0.0999076 -4.12505e-05 0)
)
;
    }
    frontAndBack
    {
        type            empty;
    }
}


// ************************************************************************* //
