/*--------------------------------*- C++ -*----------------------------------*\
  =========                 |
  \\      /  F ield         | OpenFOAM: The Open Source CFD Toolbox
   \\    /   O peration     | Website:  https://openfoam.org
    \\  /    A nd           | Version:  9
     \\/     M anipulation  |
\*---------------------------------------------------------------------------*/
FoamFile
{
    format      ascii;
    class       volVectorField;
    location    "57";
    object      ddt0(hU);
}
// * * * * * * * * * * * * * * * * * * * * * * * * * * * * * * * * * * * * * //

dimensions      [0 2 -2 0 0 0 0];

internalField   nonuniform List<vector> 
400
(
(8.52469e-10 3.52414e-10 0)
(-4.7361e-09 -1.32509e-09 0)
(-6.11095e-09 -7.91569e-10 0)
(-2.77565e-09 -3.44262e-11 0)
(-1.79266e-09 -1.08161e-10 0)
(-2.01634e-09 9.58349e-11 0)
(-1.19079e-09 2.82918e-10 0)
(-1.45618e-09 -1.6294e-09 0)
(4.61407e-11 -2.11522e-09 0)
(3.146e-09 -3.11687e-09 0)
(3.99959e-09 6.9846e-10 0)
(4.99776e-09 1.34576e-09 0)
(1.02568e-09 3.22874e-09 0)
(2.70171e-09 3.17486e-09 0)
(6.38356e-09 9.75684e-10 0)
(7.25141e-09 1.3557e-09 0)
(6.22062e-09 2.82199e-09 0)
(1.60034e-09 2.5428e-09 0)
(3.83347e-10 2.17596e-09 0)
(4.86814e-09 -1.05614e-10 0)
(1.2803e-09 2.85946e-10 0)
(-4.28382e-09 -1.52739e-09 0)
(-4.63126e-09 -4.54835e-10 0)
(-2.29248e-09 -9.32828e-10 0)
(-2.60298e-09 -1.36399e-09 0)
(-2.32673e-09 4.81155e-10 0)
(-2.9979e-09 1.9028e-09 0)
(-1.11955e-09 -3.04443e-09 0)
(-1.88446e-09 -3.49406e-09 0)
(3.69571e-09 -3.60294e-09 0)
(5.16378e-09 1.47066e-09 0)
(3.22301e-09 7.63363e-09 0)
(4.12613e-09 7.7769e-09 0)
(1.21741e-09 7.80345e-09 0)
(4.91234e-09 2.57666e-09 0)
(6.80829e-09 1.18568e-09 0)
(3.73239e-09 5.92624e-09 0)
(-5.284e-10 8.07218e-09 0)
(-3.27394e-09 2.09412e-09 0)
(1.05473e-09 -1.98949e-09 0)
(3.05727e-09 1.18517e-09 0)
(-2.19319e-09 8.43853e-10 0)
(-3.3198e-09 -1.24048e-09 0)
(-3.31565e-09 -4.80666e-09 0)
(-3.17547e-09 -2.98426e-09 0)
(-2.93261e-09 3.88805e-09 0)
(-3.28144e-09 3.2852e-09 0)
(-2.70153e-09 2.8279e-10 0)
(1.29106e-09 -4.47802e-09 0)
(1.10667e-10 2.98909e-09 0)
(8.77855e-09 1.52901e-09 0)
(2.03322e-09 1.26636e-08 0)
(1.59235e-09 1.45212e-08 0)
(1.97195e-09 8.10677e-09 0)
(1.25275e-10 2.36036e-09 0)
(4.41761e-09 -7.78187e-10 0)
(3.93749e-09 4.3383e-09 0)
(-4.45587e-09 9.48136e-09 0)
(-9.30372e-09 4.48102e-09 0)
(-2.98862e-09 -7.27402e-10 0)
(3.35059e-09 4.25387e-09 0)
(-1.29266e-10 2.69666e-09 0)
(-2.86958e-09 -4.90945e-09 0)
(-3.793e-09 -9.76211e-09 0)
(-2.32402e-09 -2.0889e-09 0)
(-3.70631e-09 6.77282e-09 0)
(-2.77152e-09 6.5426e-09 0)
(-4.33737e-09 3.92223e-09 0)
(4.57067e-09 2.16552e-09 0)
(3.17904e-09 -2.2013e-09 0)
(-1.75427e-09 1.49896e-08 0)
(1.38766e-08 7.001e-09 0)
(-2.22133e-09 1.60448e-08 0)
(-2.56435e-09 9.70173e-09 0)
(-1.05381e-09 -1.35641e-09 0)
(-1.25402e-09 -3.3345e-09 0)
(5.64523e-10 3.91029e-09 0)
(-6.51881e-10 1.23137e-08 0)
(-5.72465e-09 8.37962e-09 0)
(-6.66365e-09 -5.49311e-10 0)
(1.41927e-09 6.83907e-09 0)
(1.00146e-09 3.09427e-09 0)
(-2.90729e-09 -8.00451e-09 0)
(-3.11099e-09 -1.08211e-08 0)
(-2.413e-09 -4.31715e-10 0)
(-2.08946e-09 8.15739e-09 0)
(-4.99015e-09 1.10288e-08 0)
(4.31261e-09 8.24502e-09 0)
(-5.1911e-09 8.57469e-09 0)
(1.8819e-08 -1.03575e-08 0)
(2.07143e-09 6.64997e-09 0)
(-5.17802e-09 1.52702e-08 0)
(1.89176e-08 3.32881e-10 0)
(-4.31577e-09 2.97902e-09 0)
(-8.84707e-09 -2.11408e-09 0)
(-1.32591e-09 -5.1266e-09 0)
(3.07067e-09 2.13595e-09 0)
(2.02422e-09 1.10763e-08 0)
(-6.07288e-09 5.14429e-09 0)
(-1.04823e-08 -2.63226e-09 0)
(-9.47028e-10 7.52113e-09 0)
(6.18927e-10 1.84438e-09 0)
(-2.37551e-09 -8.91388e-09 0)
(-2.66098e-09 -8.47345e-09 0)
(-9.1687e-10 1.41027e-09 0)
(-2.96417e-09 9.72136e-09 0)
(2.08234e-10 1.25049e-08 0)
(3.11627e-10 1.54036e-08 0)
(8.34568e-09 -9.03239e-09 0)
(-1.30339e-08 1.28635e-08 0)
(3.52135e-08 -4.00192e-08 0)
(-1.55086e-08 1.13481e-08 0)
(-1.88377e-09 8.03876e-09 0)
(2.06984e-08 -8.85623e-09 0)
(-2.0589e-09 -6.73873e-09 0)
(-8.92417e-09 -4.16687e-09 0)
(-6.18704e-10 1.5305e-09 0)
(6.23585e-09 6.74717e-09 0)
(3.03209e-09 3.29458e-10 0)
(-6.11066e-09 -4.48834e-09 0)
(-2.76535e-09 6.0767e-09 0)
(-3.22823e-10 1.68463e-10 0)
(-1.41583e-09 -7.41685e-09 0)
(-1.0455e-09 -4.73314e-09 0)
(-1.39852e-09 2.79711e-09 0)
(-1.34688e-09 9.2162e-09 0)
(1.56301e-09 1.26702e-08 0)
(-1.51302e-09 6.40255e-09 0)
(1.43379e-08 -2.64109e-09 0)
(-2.02105e-08 -4.95467e-09 0)
(-4.40077e-08 1.16548e-08 0)
(6.68481e-08 -2.53256e-08 0)
(-7.62196e-09 1.43748e-08 0)
(-1.47773e-09 1.22404e-09 0)
(8.36118e-09 -8.81705e-09 0)
(-3.33756e-09 -3.65231e-09 0)
(-2.90441e-09 3.71598e-09 0)
(4.85512e-09 7.76849e-09 0)
(6.34098e-09 -1.71618e-09 0)
(-2.76498e-10 -6.35541e-09 0)
(-3.29584e-09 3.2558e-09 0)
(-8.74756e-10 -7.14049e-10 0)
(6.53509e-10 -4.24972e-09 0)
(-2.68825e-10 -1.37094e-09 0)
(-1.17744e-09 2.31867e-09 0)
(-2.50204e-09 6.97295e-09 0)
(-1.61125e-10 9.68164e-09 0)
(4.32354e-09 -2.49963e-09 0)
(-9.79515e-09 -8.07162e-10 0)
(5.32585e-08 -1.29907e-08 0)
(2.85802e-07 1.28579e-08 0)
(-1.38448e-08 2.95089e-08 0)
(4.25936e-08 1.91851e-09 0)
(1.0934e-09 4.51277e-09 0)
(-2.55666e-09 -1.9049e-09 0)
(-4.31249e-09 -1.60284e-09 0)
(-3.94865e-09 5.57347e-09 0)
(3.79212e-09 7.4891e-09 0)
(8.25516e-09 -8.42233e-10 0)
(4.27918e-09 -4.55287e-09 0)
(-2.85747e-09 9.92634e-10 0)
(-1.25159e-10 -4.80057e-10 0)
(2.69133e-09 -9.48905e-10 0)
(1.90309e-10 7.39579e-10 0)
(-2.76806e-09 3.93884e-10 0)
(-2.47917e-09 3.78544e-09 0)
(-2.92982e-09 5.8524e-09 0)
(-2.61153e-09 -9.64614e-10 0)
(1.38702e-08 9.07152e-10 0)
(-5.64898e-08 -8.48409e-09 0)
(-2.77797e-07 1.41646e-08 0)
(2.12914e-08 2.35931e-08 0)
(-3.72057e-08 8.1366e-11 0)
(2.03283e-09 4.35685e-09 0)
(-2.5531e-10 9.05674e-10 0)
(-4.58334e-09 1.35768e-09 0)
(-4.07883e-09 8.39985e-09 0)
(-6.8834e-10 8.79066e-09 0)
(7.32094e-09 9.93589e-10 0)
(5.15834e-09 -3.8721e-09 0)
(-2.24082e-09 2.40077e-10 0)
(1.08338e-09 6.07431e-10 0)
(4.19469e-09 9.7435e-10 0)
(-6.16563e-10 1.5363e-09 0)
(-3.80832e-09 -4.08777e-10 0)
(-3.8654e-09 4.28556e-10 0)
(-2.1017e-09 4.81726e-09 0)
(3.59278e-09 3.72173e-09 0)
(-9.75105e-09 5.98105e-09 0)
(2.35456e-08 -7.66998e-09 0)
(3.08501e-08 2.27165e-08 0)
(-5.59718e-08 -4.2329e-08 0)
(1.96473e-08 4.32295e-09 0)
(7.25992e-09 1.73584e-09 0)
(-4.33527e-09 -4.33979e-11 0)
(-4.92124e-10 4.8894e-09 0)
(-5.20998e-09 8.64604e-09 0)
(-4.71489e-09 8.27922e-09 0)
(1.37675e-09 3.4986e-09 0)
(6.83373e-09 -1.38887e-09 0)
(-2.19976e-09 -1.33644e-10 0)
(1.60419e-09 1.5227e-09 0)
(4.17741e-09 1.97355e-09 0)
(-1.39103e-09 1.38922e-09 0)
(-4.83027e-09 1.17944e-09 0)
(-2.35214e-09 -5.64074e-10 0)
(-5.35845e-10 -9.83717e-11 0)
(4.29084e-09 8.19201e-09 0)
(-1.11043e-08 -5.1456e-09 0)
(3.06875e-08 8.26967e-09 0)
(-4.36579e-08 -3.48139e-08 0)
(2.97579e-10 2.38926e-08 0)
(2.53747e-08 -6.88782e-09 0)
(-2.63829e-09 -8.95664e-09 0)
(8.16087e-09 2.21973e-09 0)
(7.46915e-09 6.7732e-09 0)
(-3.09951e-09 3.92214e-09 0)
(-5.87669e-09 2.71976e-09 0)
(7.87728e-11 4.29113e-09 0)
(3.39426e-09 2.07328e-09 0)
(-2.57724e-09 -1.4689e-09 0)
(1.46158e-09 1.74218e-09 0)
(2.55127e-09 2.93439e-09 0)
(-1.71647e-09 1.95924e-09 0)
(-4.34677e-09 2.86565e-09 0)
(-2.63684e-09 2.53096e-10 0)
(2.08181e-09 -4.1931e-09 0)
(-4.24021e-10 -2.38266e-09 0)
(6.71362e-09 1.50426e-09 0)
(-4.33619e-08 9.24128e-09 0)
(6.41693e-07 -1.16454e-08 0)
(-8.67297e-09 -1.24269e-08 0)
(-3.6604e-08 -7.95552e-09 0)
(1.64122e-08 -1.7444e-09 0)
(1.40393e-08 2.45903e-09 0)
(4.02341e-09 5.54567e-10 0)
(-4.61253e-09 -4.02771e-09 0)
(-3.5024e-09 -4.07064e-09 0)
(1.59876e-09 2.3573e-09 0)
(1.97094e-09 2.891e-09 0)
(-2.35773e-09 -3.80213e-09 0)
(1.04592e-09 1.26434e-09 0)
(5.39245e-10 5.49479e-09 0)
(-1.83062e-09 3.60116e-09 0)
(-2.63558e-09 3.06668e-09 0)
(-2.53809e-09 1.36489e-11 0)
(-1.04766e-09 -5.68883e-09 0)
(2.121e-09 -8.33652e-09 0)
(4.88229e-09 -2.98341e-09 0)
(3.6729e-08 1.03655e-08 0)
(-6.5258e-07 -4.32447e-09 0)
(1.82284e-08 -1.68667e-08 0)
(3.74679e-08 1.35748e-09 0)
(2.36266e-09 1.12149e-09 0)
(3.43922e-09 1.1078e-09 0)
(9.73588e-10 -1.76886e-09 0)
(-7.51849e-10 -7.81073e-09 0)
(1.32373e-09 -8.99674e-09 0)
(4.38725e-09 1.58027e-09 0)
(9.17743e-10 4.34546e-09 0)
(-1.16448e-09 -5.87356e-09 0)
(1.39493e-09 3.62601e-10 0)
(-1.6759e-09 8.62587e-09 0)
(-2.28742e-09 6.45449e-09 0)
(-1.26832e-09 8.8787e-10 0)
(-2.02592e-09 -2.14295e-09 0)
(-3.36305e-09 -7.39686e-09 0)
(-1.61756e-09 -5.80075e-09 0)
(1.13821e-08 -2.30105e-09 0)
(-2.17519e-08 -7.94366e-09 0)
(4.43081e-08 1.56459e-09 0)
(1.99682e-08 1.59431e-08 0)
(-1.75512e-08 -9.12551e-09 0)
(-2.39221e-10 -1.49199e-09 0)
(1.02086e-09 4.22803e-09 0)
(-1.13643e-09 3.02606e-09 0)
(1.41022e-09 -4.74207e-09 0)
(6.30373e-09 -8.32108e-09 0)
(6.01861e-09 2.28699e-09 0)
(-2.63675e-09 5.1336e-09 0)
(7.58651e-10 -6.31206e-09 0)
(1.67586e-09 -7.39792e-10 0)
(-3.34673e-09 1.02073e-08 0)
(-3.67757e-09 9.54261e-09 0)
(3.16188e-11 -9.94832e-10 0)
(-1.20789e-09 -7.34586e-09 0)
(-3.37384e-09 -7.71607e-09 0)
(-1.68101e-09 -4.74326e-09 0)
(-1.15165e-10 2.76078e-09 0)
(9.74848e-09 -3.72463e-09 0)
(1.55079e-10 8.38526e-09 0)
(-6.40623e-09 -2.46707e-08 0)
(1.62205e-09 -1.15234e-08 0)
(7.12611e-10 1.08553e-09 0)
(-7.05977e-11 7.11399e-09 0)
(4.81817e-10 7.47489e-09 0)
(5.24661e-09 1.32214e-09 0)
(7.79899e-09 -5.07054e-09 0)
(1.66005e-09 1.35759e-09 0)
(-8.49182e-09 4.10051e-09 0)
(2.28861e-09 -5.22052e-09 0)
(1.2868e-09 -1.52624e-09 0)
(-4.48621e-09 9.32857e-09 0)
(-5.06659e-09 1.15004e-08 0)
(-6.23565e-10 -4.85721e-10 0)
(1.74177e-10 -1.143e-08 0)
(-1.95678e-09 -9.49771e-09 0)
(-2.93178e-09 -3.25272e-09 0)
(2.843e-09 4.78776e-09 0)
(3.30734e-09 6.28199e-09 0)
(4.52816e-09 -5.35047e-09 0)
(3.08241e-09 -8.18076e-09 0)
(3.16807e-09 -7.35246e-09 0)
(2.6995e-09 2.12602e-09 0)
(7.8114e-10 9.08731e-09 0)
(4.7228e-09 1.12609e-08 0)
(7.71345e-09 4.05757e-09 0)
(3.57601e-09 -5.7092e-09 0)
(-6.22588e-09 -2.1296e-09 0)
(-1.28369e-08 2.0106e-09 0)
(2.91019e-09 -3.37735e-09 0)
(-2.7833e-10 -1.7156e-09 0)
(-4.95444e-09 5.74739e-09 0)
(-5.84169e-09 1.04032e-08 0)
(-2.32037e-09 2.58499e-09 0)
(3.43297e-10 -9.62876e-09 0)
(-4.04752e-10 -1.02765e-08 0)
(-3.92661e-10 -2.31383e-09 0)
(5.93902e-10 4.09694e-09 0)
(3.65829e-09 4.01413e-09 0)
(5.68495e-09 -1.61288e-09 0)
(2.89423e-09 -8.04967e-09 0)
(3.41966e-09 -6.43719e-09 0)
(2.48318e-09 6.894e-10 0)
(4.43958e-09 8.41297e-09 0)
(7.77144e-09 9.8108e-09 0)
(5.32377e-09 4.55397e-10 0)
(-2.84531e-09 -1.0059e-08 0)
(-1.14355e-08 -7.1499e-09 0)
(-1.19107e-08 -5.95778e-10 0)
(2.50266e-09 -1.36046e-09 0)
(-3.09317e-09 -1.04556e-09 0)
(-5.6021e-09 1.88063e-09 0)
(-5.06207e-09 6.57205e-09 0)
(-3.24558e-09 5.38883e-09 0)
(-7.51811e-10 -2.4453e-09 0)
(5.40133e-10 -6.33001e-09 0)
(3.35654e-11 -1.42571e-09 0)
(-1.06776e-10 2.04199e-09 0)
(1.45785e-09 1.37959e-09 0)
(2.39457e-09 -5.17016e-09 0)
(4.32677e-09 -9.6536e-09 0)
(4.60338e-09 -9.37122e-09 0)
(3.24539e-09 -4.51792e-09 0)
(4.88534e-09 1.91621e-09 0)
(5.71124e-09 1.57141e-09 0)
(9.97049e-10 -7.17725e-09 0)
(-7.39812e-09 -1.45588e-08 0)
(-1.082e-08 -1.04215e-08 0)
(-4.55983e-09 -2.206e-09 0)
(1.80818e-09 5.51291e-11 0)
(-6.31808e-09 -7.37397e-10 0)
(-7.01201e-09 -1.37409e-09 0)
(-3.95241e-09 1.53897e-09 0)
(-2.67065e-09 4.54789e-09 0)
(-1.15209e-09 3.33105e-09 0)
(7.56264e-10 -9.5749e-11 0)
(1.05015e-09 4.82365e-10 0)
(-1.48304e-10 1.67541e-09 0)
(5.20668e-10 -7.90307e-10 0)
(1.82295e-09 -5.23947e-09 0)
(2.40928e-09 -7.95074e-09 0)
(7.11261e-10 -9.79713e-09 0)
(8.59989e-10 -8.15071e-09 0)
(3.03233e-09 -4.5971e-09 0)
(2.91714e-09 -5.01539e-09 0)
(-5.13229e-10 -1.04654e-08 0)
(-5.53468e-09 -1.32656e-08 0)
(-3.52776e-09 -8.17776e-09 0)
(6.0494e-09 -1.72031e-09 0)
(1.27405e-09 2.46907e-10 0)
(-8.81658e-09 -5.57938e-10 0)
(-8.4029e-09 -1.56694e-09 0)
(-3.07674e-09 -6.30107e-10 0)
(-1.28773e-09 1.47946e-09 0)
(-4.0818e-10 2.34255e-09 0)
(1.06393e-09 1.28583e-09 0)
(1.76235e-09 7.90739e-10 0)
(-1.76709e-11 5.3297e-10 0)
(6.60235e-11 -5.78787e-10 0)
(2.55981e-09 -2.85949e-09 0)
(3.51389e-09 -3.90971e-09 0)
(8.46291e-10 -4.20392e-09 0)
(-1.99466e-10 -3.68896e-09 0)
(1.33953e-09 -2.82958e-09 0)
(1.56992e-09 -3.05106e-09 0)
(9.7381e-10 -4.62908e-09 0)
(-4.83179e-10 -4.97564e-09 0)
(3.56939e-09 -2.7097e-09 0)
(1.26433e-08 -5.21044e-10 0)
)
;

boundaryField
{
    sides
    {
        type            calculated;
        value           nonuniform List<vector> 
40
(
(1.27405e-09 0 0)
(-8.81658e-09 0 0)
(-8.4029e-09 0 0)
(-3.07674e-09 0 0)
(-1.28773e-09 0 0)
(-4.0818e-10 0 0)
(1.06393e-09 0 0)
(1.76235e-09 0 0)
(-1.76709e-11 0 0)
(6.60235e-11 0 0)
(2.55981e-09 0 0)
(3.51389e-09 0 0)
(8.46291e-10 0 0)
(-1.99466e-10 0 0)
(1.33953e-09 0 0)
(1.56992e-09 0 0)
(9.7381e-10 0 0)
(-4.83179e-10 0 0)
(3.56939e-09 0 0)
(1.26433e-08 0 0)
(8.52469e-10 0 0)
(-4.7361e-09 0 0)
(-6.11095e-09 0 0)
(-2.77565e-09 0 0)
(-1.79266e-09 0 0)
(-2.01634e-09 0 0)
(-1.19079e-09 0 0)
(-1.45618e-09 0 0)
(4.61407e-11 0 0)
(3.146e-09 0 0)
(3.99959e-09 0 0)
(4.99776e-09 0 0)
(1.02568e-09 0 0)
(2.70171e-09 0 0)
(6.38356e-09 0 0)
(7.25141e-09 0 0)
(6.22062e-09 0 0)
(1.60034e-09 0 0)
(3.83347e-10 0 0)
(4.86814e-09 0 0)
)
;
    }
    inlet
    {
        type            calculated;
        value           uniform (0 0 0);
    }
    outlet
    {
        type            calculated;
        value           nonuniform List<vector> 
20
(
(4.86814e-09 -1.05614e-10 0)
(1.05473e-09 -1.98949e-09 0)
(-2.98862e-09 -7.27402e-10 0)
(-6.66365e-09 -5.49311e-10 0)
(-1.04823e-08 -2.63226e-09 0)
(-6.11066e-09 -4.48834e-09 0)
(-2.76498e-10 -6.35541e-09 0)
(4.27918e-09 -4.55287e-09 0)
(5.15834e-09 -3.8721e-09 0)
(6.83373e-09 -1.38887e-09 0)
(3.39426e-09 2.07328e-09 0)
(1.97094e-09 2.891e-09 0)
(9.17743e-10 4.34546e-09 0)
(-2.63675e-09 5.1336e-09 0)
(-8.49182e-09 4.10051e-09 0)
(-1.28369e-08 2.0106e-09 0)
(-1.19107e-08 -5.95778e-10 0)
(-4.55983e-09 -2.206e-09 0)
(6.0494e-09 -1.72031e-09 0)
(1.26433e-08 -5.21044e-10 0)
)
;
    }
    frontAndBack
    {
        type            empty;
    }
}


// ************************************************************************* //
