/*--------------------------------*- C++ -*----------------------------------*\
  =========                 |
  \\      /  F ield         | OpenFOAM: The Open Source CFD Toolbox
   \\    /   O peration     | Website:  https://openfoam.org
    \\  /    A nd           | Version:  9
     \\/     M anipulation  |
\*---------------------------------------------------------------------------*/
FoamFile
{
    format      ascii;
    class       surfaceScalarField;
    location    "57";
    object      ddtCorrDdt0(phi);
}
// * * * * * * * * * * * * * * * * * * * * * * * * * * * * * * * * * * * * * //

dimensions      [0 4 -2 0 0 0 0];

internalField   nonuniform List<scalar> 
760
(
-2.60074e-11
-1.36213e-12
-3.75608e-11
-7.43235e-12
-1.51964e-11
3.77071e-12
-1.00281e-11
4.08035e-12
-1.24884e-11
-6.28709e-12
-9.35914e-12
-6.39703e-12
8.40085e-13
3.19374e-12
-9.16464e-12
-1.26752e-11
1.02744e-11
-7.45953e-12
1.6366e-11
-2.29217e-11
2.74769e-11
3.10556e-12
1.24486e-11
1.87499e-11
2.16607e-12
3.47167e-11
3.32738e-11
3.46398e-11
3.72597e-11
1.08759e-11
3.02612e-11
1.26572e-11
2.15829e-11
2.98946e-11
-4.66595e-12
3.40732e-11
1.39689e-11
8.62134e-12
1.28543e-12
-3.11755e-11
-1.8847e-12
-2.11473e-11
-2.8286e-12
-7.10695e-12
3.12314e-12
-1.85726e-11
-1.07198e-11
-1.8722e-11
-1.51765e-11
-9.00461e-12
3.59346e-12
-9.34953e-12
1.76143e-11
-5.15695e-12
-1.41189e-11
-3.45424e-12
-1.35786e-11
3.59785e-11
-2.59965e-12
1.07738e-11
-6.85118e-12
2.47445e-11
6.9966e-11
9.21006e-12
4.95084e-11
1.82664e-11
4.98057e-11
3.48258e-11
1.80034e-11
2.46707e-11
-1.99104e-15
5.38659e-12
2.40928e-11
-1.0225e-11
4.14178e-11
-1.40555e-11
2.29432e-11
-1.02896e-11
-1.87176e-11
1.20386e-11
1.81447e-12
1.11528e-11
-1.28501e-11
-1.32352e-11
-3.16495e-11
-3.79317e-11
-2.00383e-11
-1.77577e-11
-2.74549e-12
3.46646e-11
-2.91444e-11
1.40296e-11
9.64954e-12
1.83547e-11
-1.31831e-12
-2.78311e-11
2.4158e-11
4.07354e-11
3.66336e-11
9.6777e-12
-6.60983e-12
6.2567e-11
2.34683e-11
9.73567e-11
8.08059e-13
3.6175e-11
1.04802e-11
7.31855e-12
2.51461e-11
-5.55152e-12
-4.9839e-12
2.211e-11
-4.05233e-11
6.02006e-11
-2.43101e-11
3.30145e-11
-1.15882e-12
2.36946e-12
3.03763e-11
9.3373e-12
1.78641e-11
-2.41888e-11
-3.28655e-11
-3.30459e-11
-5.86793e-11
-5.64221e-13
-1.81993e-12
-2.91496e-11
3.2733e-11
-1.05969e-11
5.04052e-11
-1.61456e-11
2.06246e-11
6.66746e-11
5.68265e-11
-4.36208e-11
-5.25636e-11
5.73464e-11
1.46375e-10
2.89819e-11
-8.64004e-13
-1.91411e-11
5.75341e-11
-2.75582e-12
5.79191e-11
-1.29616e-11
-1.85745e-11
-2.56078e-13
-2.78443e-11
1.65732e-14
1.38523e-11
-1.08795e-11
5.21167e-11
-3.26145e-11
3.01579e-11
-7.42098e-12
1.69101e-11
3.85686e-11
3.13853e-12
1.47141e-11
-3.64451e-11
-4.64119e-11
-1.07518e-11
-4.83416e-11
-5.40869e-12
3.40652e-13
-2.76616e-11
5.04644e-11
-1.40296e-11
5.89898e-11
3.86372e-11
6.67674e-11
-2.22131e-11
2.93857e-11
1.49983e-10
-4.61205e-11
-1.19139e-10
-2.06836e-10
9.95439e-11
1.75307e-10
3.80403e-11
-5.16241e-11
-5.35617e-11
-4.45571e-11
-2.59929e-11
-6.21427e-12
5.60801e-12
-2.1493e-11
1.61025e-11
6.7035e-12
6.18589e-13
4.57932e-11
-4.29894e-11
7.21139e-12
-2.2576e-11
1.97526e-11
3.63791e-11
-1.22269e-11
2.89705e-12
-3.00325e-11
-4.18364e-11
1.71155e-12
-3.36303e-11
-3.73162e-12
1.70037e-11
-2.84936e-11
4.80774e-11
6.60614e-12
6.58076e-11
7.16914e-11
9.0149e-11
-9.67826e-11
-1.47847e-10
1.08939e-10
2.2032e-10
8.50003e-11
-3.58598e-10
-1.32209e-10
-6.69282e-11
1.09374e-10
1.46289e-10
4.37937e-11
-5.17847e-11
-4.769e-11
-6.89814e-11
-2.52878e-11
-2.10967e-11
2.15265e-11
1.32323e-11
3.53954e-11
3.26725e-11
-1.11239e-11
-9.87881e-12
-3.05282e-11
7.85575e-12
2.29818e-11
-1.73515e-11
-4.05663e-12
-1.77198e-11
-3.0977e-11
1.39922e-11
-1.02593e-11
-1.17081e-11
1.37867e-11
-2.83126e-11
4.42596e-11
7.376e-11
6.23855e-11
-9.82725e-11
-3.39121e-11
2.25972e-10
1.37234e-10
-5.0328e-10
-3.98728e-10
3.17255e-10
8.15629e-10
9.11074e-11
-2.64607e-10
-6.08991e-11
-4.44844e-11
4.64478e-11
6.56667e-11
6.64168e-12
-8.64769e-12
-2.47801e-11
-7.86925e-12
8.72364e-12
2.48446e-11
3.57318e-11
2.98966e-11
1.29037e-11
-9.8519e-12
-2.96683e-11
-5.39405e-12
7.64781e-12
-1.33634e-11
-6.44282e-12
4.08118e-12
-1.08378e-11
9.16941e-12
-1.83654e-12
-1.71938e-11
1.12967e-11
-1.09247e-11
2.31808e-11
5.21854e-13
3.24385e-11
4.11775e-11
1.79511e-11
-1.42866e-11
-1.59176e-10
1.06979e-09
2.31783e-10
4.02656e-10
-3.86851e-08
2.67699e-10
6.68683e-10
6.65664e-11
4.80555e-11
-1.62761e-11
-7.95054e-12
-1.16366e-11
-9.99716e-12
-3.05421e-11
3.63538e-12
6.23871e-12
3.37113e-11
2.87754e-11
4.63347e-11
3.15301e-11
2.92429e-12
-1.76489e-11
-1.33246e-11
2.96918e-13
3.32282e-12
1.22733e-13
1.60059e-11
2.55001e-12
3.57949e-13
7.70189e-12
-2.38349e-11
-9.78477e-12
-1.15419e-11
2.12191e-11
-4.01718e-12
2.09505e-11
-3.49993e-11
-3.84513e-12
3.8368e-11
1.58293e-10
-1.086e-09
-4.11317e-10
-3.25865e-10
9.48792e-10
-2.49234e-10
-3.49856e-10
-4.31132e-11
-1.02181e-10
1.49941e-11
-4.74605e-12
-1.68531e-11
1.29525e-11
-2.26427e-11
8.76791e-12
-1.41112e-11
-2.30395e-09
1.20728e-11
4.96318e-11
3.62402e-11
1.58229e-11
4.82601e-10
-1.25399e-11
1.16396e-12
1.58588e-11
6.46977e-12
2.61022e-11
8.64698e-12
-2.31969e-11
5.92136e-12
-2.20177e-11
1.45933e-12
-4.5433e-13
-8.71898e-12
-4.50202e-11
3.27441e-11
9.10461e-11
4.27383e-11
-1.68559e-10
-7.71972e-11
4.38419e-10
8.79178e-11
-3.14619e-10
-1.51024e-10
-8.46172e-12
-1.27177e-10
9.58261e-11
6.5335e-11
-2.36469e-11
-4.8534e-11
-8.7537e-12
-6.88813e-12
-4.97193e-12
3.1256e-11
-3.14945e-11
3.77689e-11
-1.79063e-11
3.20934e-11
1.98387e-11
2.37494e-11
6.79402e-12
-8.83027e-12
-6.56367e-13
1.71465e-11
9.1551e-12
2.34766e-11
9.96533e-12
-2.74824e-11
8.59559e-12
-3.43398e-11
1.15102e-11
2.13877e-11
1.87052e-12
-5.84667e-12
-2.94646e-11
-9.86138e-12
5.92612e-11
1.05314e-11
-4.26893e-11
8.40066e-11
1.12502e-10
-2.98393e-10
-1.55576e-09
2.34882e-10
3.5925e-10
-7.60967e-12
-1.4955e-10
1.59232e-11
-7.89605e-11
4.72681e-11
1.12045e-11
1.51532e-11
3.21573e-11
-2.94917e-11
3.76002e-12
-2.4997e-11
-2.13876e-12
1.06698e-11
1.52507e-11
1.07384e-11
-2.4118e-12
-1.18331e-11
4.75943e-12
9.93285e-12
1.4242e-11
1.8738e-11
-1.96865e-11
1.39907e-11
-2.80458e-11
2.077e-11
-9.58413e-13
-6.53778e-13
3.53931e-11
-2.131e-11
-2.54754e-11
-7.15154e-11
-4.60335e-11
1.06158e-10
1.38961e-09
2.11943e-11
1.76929e-09
-3.99469e-08
-2.89248e-10
-5.34956e-10
1.68561e-11
6.54071e-11
7.98661e-11
4.06441e-11
4.70478e-11
1.53863e-11
-5.62784e-12
-1.82121e-12
-2.15015e-11
-3.57954e-11
-1.24792e-11
-4.10175e-11
9.14992e-12
5.23898e-12
1.67095e-11
9.17029e-12
-2.54527e-11
-1.16555e-11
5.28776e-12
-1.35117e-12
3.60244e-11
6.12182e-13
2.21723e-11
-2.38324e-11
1.17102e-11
-2.33975e-12
9.26857e-13
-5.90723e-12
-4.05088e-11
2.26542e-11
-2.51864e-11
1.06203e-10
-5.54839e-11
-1.51009e-09
1.2086e-10
-1.69147e-09
-8.36548e-10
2.61807e-10
2.95693e-10
4.42097e-11
-3.72369e-11
2.2846e-11
-1.30448e-11
1.3379e-11
1.32786e-11
-2.33694e-12
4.10036e-12
2.68397e-12
-3.04473e-11
1.37746e-11
-4.52868e-11
1.22298e-11
1.11216e-11
2.52304e-11
2.23666e-11
-3.28659e-11
-1.67189e-11
2.31442e-13
-2.40146e-11
4.88537e-11
1.03151e-11
3.86887e-11
-2.62727e-12
-4.24855e-12
-2.73091e-11
-2.07619e-11
-8.62812e-12
-3.32712e-11
-1.01335e-11
-2.82733e-11
7.68052e-11
1.27374e-11
-1.15105e-10
-1.36907e-10
3.52897e-10
2.0994e-10
-1.04011e-10
-1.6358e-10
-2.91874e-11
-5.42982e-11
1.06739e-11
-3.05191e-12
-2.28914e-12
2.18493e-11
-5.28802e-12
2.03127e-11
2.36151e-11
-1.02006e-11
4.02252e-11
-3.20095e-11
6.31897e-12
1.37164e-11
2.55981e-11
3.08244e-11
-2.99703e-11
-1.2253e-11
-6.48997e-12
-4.1738e-11
5.28044e-11
5.93506e-13
5.37281e-11
1.79184e-11
-1.07089e-11
-2.70738e-11
-5.34155e-11
-1.79824e-11
-4.04316e-11
-3.16727e-12
-1.94755e-11
7.98077e-12
1.64104e-11
7.66389e-11
5.06024e-11
-5.59943e-11
-2.01959e-10
1.48498e-12
-4.75811e-11
2.69832e-12
-4.907e-11
2.68115e-12
9.42007e-12
-2.07464e-12
4.3309e-11
1.09655e-11
4.85898e-11
3.70188e-11
1.8488e-11
3.83505e-11
-1.96881e-11
-1.96066e-11
3.86232e-12
1.76761e-11
2.5396e-11
-2.17697e-11
-1.86644e-12
-8.38645e-12
-4.80699e-11
4.00138e-11
-2.19827e-11
5.85423e-11
1.97372e-11
-3.94768e-13
-5.1762e-12
-6.45429e-11
-2.43509e-11
-5.18232e-11
2.10308e-12
-1.11178e-11
2.00635e-11
3.14343e-11
2.09955e-11
2.92506e-11
2.1638e-11
-1.02886e-11
1.08095e-11
-4.23664e-11
2.10501e-11
-2.60095e-11
4.42956e-12
1.64875e-11
1.06376e-11
4.82457e-11
3.3419e-11
5.89787e-11
2.9672e-11
2.20886e-11
6.01474e-12
-3.00118e-11
-4.92831e-11
-2.09004e-11
3.2827e-12
8.92485e-12
-1.15014e-11
1.18065e-12
-9.04868e-12
-3.91211e-11
1.66896e-11
-4.15773e-11
4.45372e-11
1.52736e-12
2.30982e-11
1.44087e-11
-3.58057e-11
-1.10772e-11
-5.13755e-11
5.72595e-12
-1.04032e-11
6.89735e-12
1.16496e-11
3.20537e-11
1.90507e-11
1.24386e-11
-2.34734e-12
2.0925e-11
-3.17823e-11
2.01079e-11
-3.29039e-11
8.28149e-12
-8.6081e-12
3.18013e-11
3.24047e-11
3.9466e-11
3.64647e-11
3.55949e-12
-1.23265e-11
-3.12564e-11
-6.1485e-11
-5.85363e-11
-4.74991e-11
-9.51543e-12
-1.52825e-11
-3.00628e-12
-9.14691e-12
-8.00256e-12
-2.46873e-11
-5.56153e-12
-3.92582e-11
1.98383e-11
-1.90333e-11
3.5124e-11
1.26669e-11
1.32794e-11
8.00043e-12
-1.6418e-11
-1.46737e-12
-1.08096e-11
2.2478e-13
9.34405e-13
1.04873e-11
-5.44236e-12
1.72441e-11
-2.9865e-11
2.60241e-11
-4.57255e-11
1.85557e-11
-5.33581e-11
1.8233e-11
-3.50652e-11
3.02207e-11
-8.95581e-12
2.22543e-11
-1.48458e-11
-2.1644e-11
-5.71478e-11
-5.09517e-11
-8.46141e-11
-3.68789e-11
-5.87032e-11
-1.47915e-11
-3.78265e-11
1.25957e-12
-3.00027e-11
-4.85987e-12
-1.73526e-11
-1.08583e-11
-2.28496e-11
1.95444e-12
-2.08041e-11
2.36232e-11
2.13814e-12
2.71389e-11
1.50798e-11
8.69681e-12
2.75946e-12
1.11889e-14
-6.7639e-12
-3.1017e-13
7.57734e-12
-1.12916e-11
1.53423e-11
-2.3722e-11
8.67278e-12
-3.93543e-11
-2.39297e-15
-4.51731e-11
1.23438e-11
-4.05903e-11
1.97897e-11
-2.86545e-11
8.43275e-12
-2.99167e-11
-2.08858e-11
-4.91643e-11
-3.56128e-11
-5.78074e-11
8.65111e-12
-3.84683e-11
-9.09929e-12
-5.29742e-11
-4.73574e-11
-1.67902e-11
-7.4212e-12
-1.09606e-11
-2.40907e-12
1.65484e-11
6.07478e-12
-8.71341e-12
4.26434e-12
2.62585e-11
1.03004e-11
-5.78171e-12
8.30243e-12
1.33908e-11
6.68002e-12
-3.15422e-12
-8.44053e-12
4.12276e-11
)
;

boundaryField
{
    sides
    {
        type            calculated;
        value           uniform 0;
    }
    inlet
    {
        type            calculated;
        value           uniform 0;
    }
    outlet
    {
        type            calculated;
        value           nonuniform List<scalar> 
20
(
3.43233e-11
2.07184e-11
-1.95264e-11
-4.21656e-11
-7.21912e-11
-4.71573e-11
-7.72198e-12
2.42713e-11
3.01985e-11
5.45237e-11
3.15845e-11
2.08965e-11
6.12965e-12
-2.54413e-11
-6.58875e-11
-8.97045e-11
-7.5301e-11
-2.16882e-11
4.76747e-11
9.09167e-11
)
;
    }
    frontAndBack
    {
        type            empty;
        value           nonuniform List<scalar> 0();
    }
}


// ************************************************************************* //
