/*--------------------------------*- C++ -*----------------------------------*\
  =========                 |
  \\      /  F ield         | OpenFOAM: The Open Source CFD Toolbox
   \\    /   O peration     | Website:  https://openfoam.org
    \\  /    A nd           | Version:  9
     \\/     M anipulation  |
\*---------------------------------------------------------------------------*/
FoamFile
{
    format      ascii;
    class       volVectorField;
    location    "57";
    object      hU;
}
// * * * * * * * * * * * * * * * * * * * * * * * * * * * * * * * * * * * * * //

dimensions      [0 2 -1 0 0 0 0];

internalField   nonuniform List<vector> 
400
(
(0.001 -2.49242e-08 0)
(0.00100004 -7.23234e-08 0)
(0.00100012 -1.14761e-07 0)
(0.00100023 -1.52821e-07 0)
(0.00100039 -1.86973e-07 0)
(0.00100057 -2.1666e-07 0)
(0.00100077 -2.37691e-07 0)
(0.00100098 -2.46864e-07 0)
(0.00100117 -2.3772e-07 0)
(0.00100132 -2.11808e-07 0)
(0.0010014 -1.68078e-07 0)
(0.00100139 -1.28249e-07 0)
(0.00100128 -9.92174e-08 0)
(0.0010011 -9.35492e-08 0)
(0.00100087 -9.9896e-08 0)
(0.00100064 -1.35081e-07 0)
(0.00100043 -1.55748e-07 0)
(0.00100033 -2.00855e-07 0)
(0.00100025 -1.88641e-07 0)
(0.00100033 -2.68673e-07 0)
(0.001 -2.8435e-08 0)
(0.00100004 -8.31313e-08 0)
(0.00100013 -1.3209e-07 0)
(0.00100025 -1.75504e-07 0)
(0.00100042 -2.12978e-07 0)
(0.00100061 -2.40327e-07 0)
(0.00100083 -2.47755e-07 0)
(0.00100107 -2.2408e-07 0)
(0.00100129 -1.57903e-07 0)
(0.00100147 -4.89902e-08 0)
(0.00100156 9.45441e-08 0)
(0.00100153 2.48493e-07 0)
(0.0010014 3.88965e-07 0)
(0.00100118 4.7552e-07 0)
(0.00100092 5.04731e-07 0)
(0.00100066 4.53319e-07 0)
(0.00100048 3.80665e-07 0)
(0.00100036 2.5659e-07 0)
(0.00100032 2.01557e-07 0)
(0.00100028 7.93101e-08 0)
(0.001 -5.50303e-08 0)
(0.00100004 -1.64971e-07 0)
(0.00100013 -2.72397e-07 0)
(0.00100025 -3.76321e-07 0)
(0.00100042 -4.73692e-07 0)
(0.00100064 -5.55706e-07 0)
(0.00100089 -6.06392e-07 0)
(0.00100116 -6.02658e-07 0)
(0.00100142 -5.22369e-07 0)
(0.00100164 -3.52448e-07 0)
(0.00100176 -1.07876e-07 0)
(0.00100175 1.64958e-07 0)
(0.00100159 4.01933e-07 0)
(0.0010013 5.18787e-07 0)
(0.00100094 4.99444e-07 0)
(0.00100062 3.56227e-07 0)
(0.00100036 2.06592e-07 0)
(0.00100026 4.64043e-08 0)
(0.00100021 -6.78347e-09 0)
(0.00100029 -1.18945e-07 0)
(0.001 -7.63426e-08 0)
(0.00100004 -2.29427e-07 0)
(0.00100013 -3.81994e-07 0)
(0.00100026 -5.34399e-07 0)
(0.00100044 -6.81247e-07 0)
(0.00100069 -8.10409e-07 0)
(0.00100099 -8.9252e-07 0)
(0.00100134 -8.91257e-07 0)
(0.0010017 -7.59792e-07 0)
(0.00100202 -4.75106e-07 0)
(0.00100221 -1.81659e-08 0)
(0.00100218 4.96512e-07 0)
(0.00100192 9.37874e-07 0)
(0.00100146 1.13878e-06 0)
(0.00100097 1.05491e-06 0)
(0.00100058 7.46517e-07 0)
(0.0010004 4.28649e-07 0)
(0.00100035 1.71022e-07 0)
(0.0010004 9.82889e-08 0)
(0.00100034 -1.67747e-09 0)
(0.001 -9.34819e-08 0)
(0.00100004 -2.85423e-07 0)
(0.00100012 -4.851e-07 0)
(0.00100024 -6.98831e-07 0)
(0.00100044 -9.21763e-07 0)
(0.00100072 -1.13989e-06 0)
(0.00100109 -1.30236e-06 0)
(0.00100155 -1.34254e-06 0)
(0.00100206 -1.17849e-06 0)
(0.00100256 -7.78534e-07 0)
(0.00100289 -1.66036e-07 0)
(0.00100287 5.83453e-07 0)
(0.00100244 1.23141e-06 0)
(0.00100166 1.51064e-06 0)
(0.00100085 1.37572e-06 0)
(0.0010003 9.68487e-07 0)
(0.00100013 5.86755e-07 0)
(0.00100021 3.15315e-07 0)
(0.00100036 2.57332e-07 0)
(0.00100043 1.65498e-07 0)
(0.001 -1.05249e-07 0)
(0.00100003 -3.25679e-07 0)
(0.00100008 -5.70405e-07 0)
(0.00100019 -8.49615e-07 0)
(0.00100037 -1.17383e-06 0)
(0.00100068 -1.52575e-06 0)
(0.00100114 -1.86249e-06 0)
(0.00100178 -2.05872e-06 0)
(0.00100253 -1.91593e-06 0)
(0.00100325 -1.19851e-06 0)
(0.00100376 8.56562e-08 0)
(0.00100377 1.54711e-06 0)
(0.00100309 2.43459e-06 0)
(0.00100191 2.30292e-06 0)
(0.00100081 1.4303e-06 0)
(0.00100018 4.9624e-07 0)
(0.00100017 1.83515e-08 0)
(0.00100037 -8.41764e-08 0)
(0.00100063 5.62879e-08 0)
(0.00100054 4.77319e-08 0)
(0.001 -1.03943e-07 0)
(0.001 -3.39809e-07 0)
(0.00100002 -6.09376e-07 0)
(0.00100007 -9.66289e-07 0)
(0.00100021 -1.39336e-06 0)
(0.00100048 -1.94714e-06 0)
(0.00100099 -2.4923e-06 0)
(0.00100188 -3.08888e-06 0)
(0.0010032 -3.23773e-06 0)
(0.00100472 -2.87986e-06 0)
(0.00100573 -6.67234e-07 0)
(0.00100535 2.5573e-06 0)
(0.00100349 4.82834e-06 0)
(0.00100112 4.73464e-06 0)
(0.000999602 3.02811e-06 0)
(0.000999365 1.26765e-06 0)
(0.001 4.35871e-07 0)
(0.00100056 3.27184e-07 0)
(0.00100092 5.56904e-07 0)
(0.00100065 5.31088e-07 0)
(0.000999996 -9.34612e-08 0)
(0.000999968 -2.93617e-07 0)
(0.000999905 -5.82718e-07 0)
(0.000999872 -9.59964e-07 0)
(0.000999874 -1.57834e-06 0)
(0.00100009 -2.34598e-06 0)
(0.0010005 -3.40557e-06 0)
(0.00100152 -4.13011e-06 0)
(0.00100308 -4.37757e-06 0)
(0.00100601 -2.55343e-06 0)
(0.00100909 7.5496e-07 0)
(0.00100914 4.26761e-06 0)
(0.0010055 4.71762e-06 0)
(0.00100073 2.78072e-06 0)
(0.000998144 7.35244e-07 0)
(0.000998267 -2.71517e-07 0)
(0.000999793 -2.81933e-07 0)
(0.00100087 -9.25565e-09 0)
(0.00100133 2.07899e-07 0)
(0.00100084 1.00355e-07 0)
(0.000999995 -4.97547e-08 0)
(0.000999915 -2.06747e-07 0)
(0.000999753 -3.89842e-07 0)
(0.000999527 -7.36692e-07 0)
(0.000999283 -1.33914e-06 0)
(0.000999207 -2.48248e-06 0)
(0.000999702 -4.68994e-06 0)
(0.00100139 -8.07227e-06 0)
(0.00100491 -1.32888e-05 0)
(0.00100957 -1.49159e-05 0)
(0.00101189 3.84321e-06 0)
(0.00100893 1.87294e-05 0)
(0.00100221 1.57804e-05 0)
(0.000997561 5.74127e-06 0)
(0.000996879 -3.15704e-07 0)
(0.000998454 -1.26109e-06 0)
(0.00100027 -9.12835e-08 0)
(0.001001 6.34914e-07 0)
(0.00100107 6.483e-07 0)
(0.00100053 2.41287e-07 0)
(0.000999804 -1.98675e-08 0)
(0.00100017 -6.72974e-08 0)
(0.000999213 -1.52044e-07 0)
(0.0009999 -2.48897e-07 0)
(0.000997517 -5.92599e-07 0)
(0.000998839 -1.13242e-06 0)
(0.000993343 -2.88511e-06 0)
(0.000997526 -5.59407e-06 0)
(0.000991659 -1.15422e-05 0)
(0.000915827 -1.2705e-05 0)
(0.000951461 2.75017e-07 0)
(0.00101022 1.46393e-05 0)
(0.000990947 1.30863e-05 0)
(0.00098397 5.14252e-06 0)
(0.00098958 1.95825e-07 0)
(0.000996275 -7.79352e-07 0)
(0.000999231 -1.09939e-07 0)
(0.000999408 2.48403e-07 0)
(0.000998642 1.71831e-07 0)
(0.000998499 -1.86922e-07 0)
(0.000999804 1.35737e-08 0)
(0.00100017 4.77412e-08 0)
(0.000999212 1.19437e-07 0)
(0.000999898 2.01005e-07 0)
(0.000997514 5.29256e-07 0)
(0.000998834 1.05052e-06 0)
(0.000993335 2.78569e-06 0)
(0.000997515 5.47374e-06 0)
(0.000991644 1.13974e-05 0)
(0.000915804 1.25504e-05 0)
(0.000951423 -4.77885e-07 0)
(0.0010102 -1.49034e-05 0)
(0.000990943 -1.34055e-05 0)
(0.000983961 -5.5327e-06 0)
(0.000989562 -6.45541e-07 0)
(0.000996237 2.4959e-07 0)
(0.000999189 -4.7303e-07 0)
(0.000999362 -1.00255e-06 0)
(0.000998628 -9.89317e-07 0)
(0.000998448 -8.89839e-07 0)
(0.000999995 4.36332e-08 0)
(0.000999915 1.87828e-07 0)
(0.000999752 3.57796e-07 0)
(0.000999526 6.89612e-07 0)
(0.000999281 1.27683e-06 0)
(0.000999206 2.40138e-06 0)
(0.000999699 4.58961e-06 0)
(0.00100139 7.94395e-06 0)
(0.0010049 1.31324e-05 0)
(0.00100957 1.47175e-05 0)
(0.00101191 -4.06174e-06 0)
(0.0010089 -1.9006e-05 0)
(0.00100213 -1.60938e-05 0)
(0.000997473 -6.11975e-06 0)
(0.000996809 -8.27479e-08 0)
(0.000998394 7.74259e-07 0)
(0.00100016 -4.30219e-07 0)
(0.00100085 -1.30625e-06 0)
(0.00100087 -1.37915e-06 0)
(0.00100036 -1.25147e-06 0)
(0.000999996 8.76649e-08 0)
(0.000999968 2.75692e-07 0)
(0.000999903 5.51356e-07 0)
(0.000999867 9.13831e-07 0)
(0.000999866 1.51431e-06 0)
(0.00100008 2.26177e-06 0)
(0.00100048 3.29532e-06 0)
(0.00100148 3.99322e-06 0)
(0.00100303 4.21199e-06 0)
(0.00100594 2.36313e-06 0)
(0.00100898 -9.76541e-07 0)
(0.00100905 -4.54166e-06 0)
(0.00100542 -5.01775e-06 0)
(0.00100066 -3.12667e-06 0)
(0.000998052 -1.13061e-06 0)
(0.000998129 -2.54268e-07 0)
(0.000999617 -3.27914e-07 0)
(0.00100064 -7.4348e-07 0)
(0.00100106 -9.66178e-07 0)
(0.00100054 -1.07416e-06 0)
(0.001 9.85194e-08 0)
(0.001 3.22595e-07 0)
(0.00100002 5.79763e-07 0)
(0.00100007 9.22328e-07 0)
(0.00100019 1.33442e-06 0)
(0.00100046 1.87109e-06 0)
(0.00100097 2.40082e-06 0)
(0.00100185 2.97859e-06 0)
(0.00100317 3.11406e-06 0)
(0.00100468 2.73148e-06 0)
(0.00100567 5.00779e-07 0)
(0.00100527 -2.7526e-06 0)
(0.00100338 -5.07473e-06 0)
(0.00100096 -5.06618e-06 0)
(0.000999404 -3.44733e-06 0)
(0.000999116 -1.79675e-06 0)
(0.00099974 -1.02673e-06 0)
(0.00100025 -1.06108e-06 0)
(0.00100061 -1.30541e-06 0)
(0.00100023 -1.51558e-06 0)
(0.001 1.00279e-07 0)
(0.00100003 3.10309e-07 0)
(0.00100008 5.4435e-07 0)
(0.00100018 8.11279e-07 0)
(0.00100036 1.1225e-06 0)
(0.00100066 1.45907e-06 0)
(0.00100111 1.78037e-06 0)
(0.00100173 1.95524e-06 0)
(0.00100247 1.78631e-06 0)
(0.00100317 1.03462e-06 0)
(0.00100365 -2.82529e-07 0)
(0.00100363 -1.78393e-06 0)
(0.00100292 -2.70708e-06 0)
(0.0010017 -2.62625e-06 0)
(0.00100057 -1.77627e-06 0)
(0.000999899 -8.97491e-07 0)
(0.000999854 -4.32424e-07 0)
(0.000999977 -4.49761e-07 0)
(0.00100021 -6.14587e-07 0)
(0.000999999 -8.48545e-07 0)
(0.001 8.89279e-08 0)
(0.00100004 2.72109e-07 0)
(0.00100011 4.62822e-07 0)
(0.00100023 6.66958e-07 0)
(0.00100042 8.78739e-07 0)
(0.00100069 1.08378e-06 0)
(0.00100105 1.23169e-06 0)
(0.00100149 1.25712e-06 0)
(0.00100199 1.07733e-06 0)
(0.00100248 6.57114e-07 0)
(0.00100279 1.51931e-08 0)
(0.00100274 -7.72146e-07 0)
(0.00100227 -1.44764e-06 0)
(0.00100146 -1.76966e-06 0)
(0.00100062 -1.66544e-06 0)
(0.001 -1.35008e-06 0)
(0.000999789 -1.03452e-06 0)
(0.00099976 -9.38653e-07 0)
(0.000999879 -9.43376e-07 0)
(0.000999762 -1.10836e-06 0)
(0.001 7.23974e-08 0)
(0.00100004 2.17253e-07 0)
(0.00100012 3.61499e-07 0)
(0.00100025 5.05728e-07 0)
(0.00100043 6.44894e-07 0)
(0.00100066 7.65263e-07 0)
(0.00100095 8.38999e-07 0)
(0.00100128 8.2982e-07 0)
(0.00100162 6.94769e-07 0)
(0.0010019 4.06365e-07 0)
(0.00100205 -4.97425e-08 0)
(0.00100199 -5.78007e-07 0)
(0.0010017 -1.0336e-06 0)
(0.00100119 -1.27738e-06 0)
(0.00100064 -1.22766e-06 0)
(0.00100016 -9.96649e-07 0)
(0.00099991 -7.07141e-07 0)
(0.000999734 -5.5855e-07 0)
(0.000999747 -4.85453e-07 0)
(0.000999556 -5.98088e-07 0)
(0.001 5.35251e-08 0)
(0.00100004 1.56395e-07 0)
(0.00100012 2.5243e-07 0)
(0.00100024 3.41327e-07 0)
(0.00100041 4.21647e-07 0)
(0.00100061 4.83177e-07 0)
(0.00100085 5.10394e-07 0)
(0.00100111 4.77114e-07 0)
(0.00100136 3.64718e-07 0)
(0.00100156 1.56025e-07 0)
(0.00100166 -1.19611e-07 0)
(0.0010016 -4.23031e-07 0)
(0.00100139 -6.80413e-07 0)
(0.00100103 -8.40035e-07 0)
(0.00100063 -8.49698e-07 0)
(0.00100022 -7.73421e-07 0)
(0.000999945 -6.42479e-07 0)
(0.000999683 -5.9827e-07 0)
(0.000999623 -5.59816e-07 0)
(0.000999384 -6.84234e-07 0)
(0.001 3.6879e-08 0)
(0.00100003 1.0903e-07 0)
(0.00100011 1.77855e-07 0)
(0.00100022 2.42673e-07 0)
(0.00100037 3.0167e-07 0)
(0.00100055 3.49746e-07 0)
(0.00100076 3.76972e-07 0)
(0.00100097 3.71899e-07 0)
(0.00100116 3.22578e-07 0)
(0.00100129 2.24688e-07 0)
(0.00100135 8.48569e-08 0)
(0.0010013 -7.18288e-08 0)
(0.00100114 -2.05988e-07 0)
(0.00100086 -2.96351e-07 0)
(0.00100053 -3.1238e-07 0)
(0.00100016 -2.83859e-07 0)
(0.000999896 -2.05862e-07 0)
(0.000999608 -1.69636e-07 0)
(0.000999513 -1.17158e-07 0)
(0.000999247 -1.97857e-07 0)
(0.001 -3.32226e-09 0)
(0.00100004 -8.57766e-09 0)
(0.00100012 -1.19667e-08 0)
(0.00100023 -1.45731e-08 0)
(0.00100038 -1.73698e-08 0)
(0.00100055 -2.28794e-08 0)
(0.00100074 -3.31723e-08 0)
(0.00100093 -5.23679e-08 0)
(0.00100111 -8.07304e-08 0)
(0.00100122 -1.21744e-07 0)
(0.00100127 -1.70249e-07 0)
(0.00100121 -2.3144e-07 0)
(0.00100106 -2.89996e-07 0)
(0.0010008 -3.40696e-07 0)
(0.00100053 -3.5964e-07 0)
(0.00100018 -3.68688e-07 0)
(0.000999942 -3.4347e-07 0)
(0.000999605 -3.53099e-07 0)
(0.000999519 -3.27278e-07 0)
(0.000999129 -4.10327e-07 0)
)
;

boundaryField
{
    sides
    {
        type            slip;
    }
    inlet
    {
        type            fixedValue;
        value           uniform (0.001 0 0);
    }
    outlet
    {
        type            zeroGradient;
    }
    frontAndBack
    {
        type            empty;
    }
}


// ************************************************************************* //
