/*--------------------------------*- C++ -*----------------------------------*\
  =========                 |
  \\      /  F ield         | OpenFOAM: The Open Source CFD Toolbox
   \\    /   O peration     | Website:  https://openfoam.org
    \\  /    A nd           | Version:  9
     \\/     M anipulation  |
\*---------------------------------------------------------------------------*/
FoamFile
{
    format      ascii;
    class       volVectorField;
    location    "57";
    object      hU_0;
}
// * * * * * * * * * * * * * * * * * * * * * * * * * * * * * * * * * * * * * //

dimensions      [0 2 -1 0 0 0 0];

internalField   nonuniform List<vector> 
400
(
(0.001 -2.4934e-08 0)
(0.00100004 -7.22914e-08 0)
(0.00100012 -1.14768e-07 0)
(0.00100023 -1.52774e-07 0)
(0.00100039 -1.86882e-07 0)
(0.00100057 -2.16636e-07 0)
(0.00100078 -2.37754e-07 0)
(0.00100098 -2.46748e-07 0)
(0.00100117 -2.376e-07 0)
(0.00100132 -2.1161e-07 0)
(0.0010014 -1.68141e-07 0)
(0.00100139 -1.28506e-07 0)
(0.00100128 -9.95582e-08 0)
(0.0010011 -9.39271e-08 0)
(0.00100087 -1.00037e-07 0)
(0.00100064 -1.35192e-07 0)
(0.00100043 -1.56007e-07 0)
(0.00100033 -2.01178e-07 0)
(0.00100025 -1.89011e-07 0)
(0.00100033 -2.68768e-07 0)
(0.001 -2.84594e-08 0)
(0.00100004 -8.32293e-08 0)
(0.00100013 -1.32194e-07 0)
(0.00100025 -1.7531e-07 0)
(0.00100042 -2.12684e-07 0)
(0.00100061 -2.40354e-07 0)
(0.00100084 -2.47949e-07 0)
(0.00100107 -2.23978e-07 0)
(0.00100129 -1.57711e-07 0)
(0.00100146 -4.89117e-08 0)
(0.00100156 9.43925e-08 0)
(0.00100153 2.47617e-07 0)
(0.0010014 3.88004e-07 0)
(0.00100118 4.74659e-07 0)
(0.00100092 5.04362e-07 0)
(0.00100066 4.53178e-07 0)
(0.00100048 3.80119e-07 0)
(0.00100036 2.55649e-07 0)
(0.00100033 2.00987e-07 0)
(0.00100028 7.93125e-08 0)
(0.001 -5.52613e-08 0)
(0.00100004 -1.65318e-07 0)
(0.00100013 -2.72361e-07 0)
(0.00100025 -3.75769e-07 0)
(0.00100042 -4.73343e-07 0)
(0.00100064 -5.56045e-07 0)
(0.00100089 -6.06728e-07 0)
(0.00100116 -6.02921e-07 0)
(0.00100142 -5.22231e-07 0)
(0.00100164 -3.52734e-07 0)
(0.00100176 -1.08346e-07 0)
(0.00100175 1.63923e-07 0)
(0.00100159 4.00335e-07 0)
(0.0010013 5.17832e-07 0)
(0.00100094 4.99147e-07 0)
(0.00100062 3.56221e-07 0)
(0.00100036 2.06153e-07 0)
(0.00100026 4.54041e-08 0)
(0.00100021 -7.42249e-09 0)
(0.00100029 -1.18981e-07 0)
(0.001 -7.69707e-08 0)
(0.00100004 -2.29872e-07 0)
(0.00100013 -3.8154e-07 0)
(0.00100026 -5.33488e-07 0)
(0.00100044 -6.81106e-07 0)
(0.00100069 -8.10992e-07 0)
(0.00100099 -8.93294e-07 0)
(0.00100134 -8.91781e-07 0)
(0.0010017 -7.60299e-07 0)
(0.00100202 -4.74685e-07 0)
(0.00100221 -1.92389e-08 0)
(0.00100218 4.95595e-07 0)
(0.00100192 9.36706e-07 0)
(0.00100146 1.13786e-06 0)
(0.00100097 1.05495e-06 0)
(0.00100058 7.46814e-07 0)
(0.0010004 4.28274e-07 0)
(0.00100035 1.69839e-07 0)
(0.0010004 9.74991e-08 0)
(0.00100034 -1.60616e-09 0)
(0.001 -9.43418e-08 0)
(0.00100004 -2.85834e-07 0)
(0.00100012 -4.84386e-07 0)
(0.00100025 -6.97938e-07 0)
(0.00100044 -9.21795e-07 0)
(0.00100072 -1.14071e-06 0)
(0.00100109 -1.30351e-06 0)
(0.00100155 -1.34363e-06 0)
(0.00100206 -1.17871e-06 0)
(0.00100256 -7.78136e-07 0)
(0.00100289 -1.6563e-07 0)
(0.00100287 5.81907e-07 0)
(0.00100243 1.23121e-06 0)
(0.00100166 1.51079e-06 0)
(0.00100086 1.37611e-06 0)
(0.0010003 9.69007e-07 0)
(0.00100013 5.86595e-07 0)
(0.00100021 3.14311e-07 0)
(0.00100036 2.56967e-07 0)
(0.00100043 1.65868e-07 0)
(0.001 -1.06048e-07 0)
(0.00100003 -3.25949e-07 0)
(0.00100008 -5.69711e-07 0)
(0.00100019 -8.48988e-07 0)
(0.00100037 -1.17403e-06 0)
(0.00100068 -1.52671e-06 0)
(0.00100114 -1.86387e-06 0)
(0.00100178 -2.05999e-06 0)
(0.00100253 -1.91505e-06 0)
(0.00100325 -1.19905e-06 0)
(0.00100376 8.75404e-08 0)
(0.00100377 1.54751e-06 0)
(0.00100309 2.4336e-06 0)
(0.00100191 2.30359e-06 0)
(0.00100081 1.43124e-06 0)
(0.00100018 4.96812e-07 0)
(0.00100017 1.82803e-08 0)
(0.00100037 -8.47581e-08 0)
(0.00100063 5.6393e-08 0)
(0.00100054 4.82796e-08 0)
(0.001 -1.04478e-07 0)
(0.001 -3.39927e-07 0)
(0.00100002 -6.08898e-07 0)
(0.00100007 -9.65992e-07 0)
(0.00100021 -1.39365e-06 0)
(0.00100048 -1.94806e-06 0)
(0.00100099 -2.49357e-06 0)
(0.00100188 -3.08934e-06 0)
(0.0010032 -3.23798e-06 0)
(0.00100472 -2.87788e-06 0)
(0.00100573 -6.68769e-07 0)
(0.00100535 2.55894e-06 0)
(0.00100349 4.82769e-06 0)
(0.00100112 4.73423e-06 0)
(0.000999602 3.02882e-06 0)
(0.000999365 1.26816e-06 0)
(0.001 4.35631e-07 0)
(0.00100056 3.26457e-07 0)
(0.00100092 5.57064e-07 0)
(0.00100065 5.31733e-07 0)
(0.000999996 -9.36828e-08 0)
(0.000999968 -2.93655e-07 0)
(0.000999905 -5.82527e-07 0)
(0.000999872 -9.59907e-07 0)
(0.000999875 -1.57853e-06 0)
(0.00100009 -2.34673e-06 0)
(0.0010005 -3.40644e-06 0)
(0.00100152 -4.13011e-06 0)
(0.00100308 -4.37746e-06 0)
(0.00100601 -2.55393e-06 0)
(0.00100909 7.55299e-07 0)
(0.00100914 4.26452e-06 0)
(0.0010055 4.71671e-06 0)
(0.00100073 2.78018e-06 0)
(0.000998144 7.35189e-07 0)
(0.000998268 -2.71374e-07 0)
(0.000999794 -2.82373e-07 0)
(0.00100087 -1.00134e-08 0)
(0.00100133 2.07856e-07 0)
(0.00100084 1.00756e-07 0)
(0.000999995 -4.97913e-08 0)
(0.000999915 -2.06788e-07 0)
(0.000999753 -3.89882e-07 0)
(0.000999527 -7.36731e-07 0)
(0.000999284 -1.33916e-06 0)
(0.000999207 -2.48294e-06 0)
(0.000999702 -4.69053e-06 0)
(0.00100139 -8.07238e-06 0)
(0.00100491 -1.32889e-05 0)
(0.00100957 -1.49165e-05 0)
(0.00101189 3.84303e-06 0)
(0.00100892 1.87268e-05 0)
(0.00100221 1.57798e-05 0)
(0.000997562 5.7408e-06 0)
(0.000996879 -3.15836e-07 0)
(0.000998455 -1.26116e-06 0)
(0.00100027 -9.20224e-08 0)
(0.001001 6.33987e-07 0)
(0.00100107 6.48013e-07 0)
(0.00100053 2.41562e-07 0)
(0.000999804 -1.98888e-08 0)
(0.00100017 -6.73798e-08 0)
(0.000999212 -1.5216e-07 0)
(0.0009999 -2.4899e-07 0)
(0.000997518 -5.92536e-07 0)
(0.00099884 -1.13262e-06 0)
(0.000993343 -2.88565e-06 0)
(0.000997526 -5.59439e-06 0)
(0.000991659 -1.1543e-05 0)
(0.000915827 -1.27029e-05 0)
(0.000951457 2.73661e-07 0)
(0.00101022 1.46423e-05 0)
(0.000990947 1.30869e-05 0)
(0.000983969 5.14243e-06 0)
(0.00098958 1.96021e-07 0)
(0.000996275 -7.79546e-07 0)
(0.000999232 -1.10645e-07 0)
(0.000999408 2.47594e-07 0)
(0.000998642 1.71392e-07 0)
(0.000998498 -1.8685e-07 0)
(0.000999804 1.35432e-08 0)
(0.00100017 4.76501e-08 0)
(0.000999212 1.19316e-07 0)
(0.000999899 2.00868e-07 0)
(0.000997515 5.29122e-07 0)
(0.000998834 1.05055e-06 0)
(0.000993335 2.78552e-06 0)
(0.000997514 5.47318e-06 0)
(0.000991645 1.1398e-05 0)
(0.000915803 1.25492e-05 0)
(0.000951422 -4.65168e-07 0)
(0.0010102 -1.49023e-05 0)
(0.000990941 -1.34053e-05 0)
(0.000983961 -5.53186e-06 0)
(0.000989561 -6.45484e-07 0)
(0.000996236 2.49121e-07 0)
(0.000999189 -4.73369e-07 0)
(0.000999362 -1.00278e-06 0)
(0.000998628 -9.89681e-07 0)
(0.000998448 -8.90011e-07 0)
(0.000999995 4.37045e-08 0)
(0.000999915 1.87772e-07 0)
(0.000999752 3.57657e-07 0)
(0.000999526 6.89373e-07 0)
(0.000999282 1.27649e-06 0)
(0.000999207 2.40143e-06 0)
(0.000999698 4.59008e-06 0)
(0.00100139 7.94409e-06 0)
(0.00100489 1.31325e-05 0)
(0.00100958 1.47173e-05 0)
(0.00101189 -4.07365e-06 0)
(0.00100888 -1.90065e-05 0)
(0.00100213 -1.60931e-05 0)
(0.000997473 -6.1194e-06 0)
(0.000996808 -8.30165e-08 0)
(0.000998394 7.74014e-07 0)
(0.00100016 -4.29973e-07 0)
(0.00100085 -1.30585e-06 0)
(0.00100087 -1.37925e-06 0)
(0.00100036 -1.25168e-06 0)
(0.000999996 8.79701e-08 0)
(0.000999968 2.75686e-07 0)
(0.000999903 5.51034e-07 0)
(0.000999867 9.13472e-07 0)
(0.000999867 1.51391e-06 0)
(0.00100008 2.26187e-06 0)
(0.00100048 3.29605e-06 0)
(0.00100148 3.99408e-06 0)
(0.00100303 4.21199e-06 0)
(0.00100593 2.36299e-06 0)
(0.001009 -9.88512e-07 0)
(0.00100907 -4.54192e-06 0)
(0.00100542 -5.01752e-06 0)
(0.00100066 -3.12682e-06 0)
(0.000998051 -1.13092e-06 0)
(0.000998129 -2.54364e-07 0)
(0.000999617 -3.27291e-07 0)
(0.00100064 -7.42596e-07 0)
(0.00100106 -9.66212e-07 0)
(0.00100054 -1.07453e-06 0)
(0.001 9.90759e-08 0)
(0.001 3.22651e-07 0)
(0.00100002 5.79147e-07 0)
(0.00100007 9.21826e-07 0)
(0.00100019 1.33426e-06 0)
(0.00100046 1.87137e-06 0)
(0.00100097 2.40168e-06 0)
(0.00100185 2.97926e-06 0)
(0.00100317 3.11439e-06 0)
(0.00100468 2.7309e-06 0)
(0.00100568 5.12928e-07 0)
(0.00100527 -2.75226e-06 0)
(0.00100338 -5.0742e-06 0)
(0.00100096 -5.06607e-06 0)
(0.000999404 -3.44781e-06 0)
(0.000999117 -1.79718e-06 0)
(0.00099974 -1.02633e-06 0)
(0.00100025 -1.06026e-06 0)
(0.00100061 -1.30564e-06 0)
(0.00100023 -1.51613e-06 0)
(0.001 1.00958e-07 0)
(0.00100003 3.1045e-07 0)
(0.00100008 5.4353e-07 0)
(0.00100018 8.10594e-07 0)
(0.00100036 1.12267e-06 0)
(0.00100066 1.45974e-06 0)
(0.00100111 1.78123e-06 0)
(0.00100173 1.95573e-06 0)
(0.00100247 1.78611e-06 0)
(0.00100317 1.03514e-06 0)
(0.00100365 -2.82807e-07 0)
(0.00100363 -1.78209e-06 0)
(0.00100292 -2.70576e-06 0)
(0.0010017 -2.62618e-06 0)
(0.00100057 -1.77692e-06 0)
(0.0009999 -8.98224e-07 0)
(0.000999854 -4.32562e-07 0)
(0.000999977 -4.49309e-07 0)
(0.00100021 -6.14887e-07 0)
(0.001 -8.49091e-07 0)
(0.001 8.95707e-08 0)
(0.00100004 2.72351e-07 0)
(0.00100011 4.6201e-07 0)
(0.00100024 6.6608e-07 0)
(0.00100042 8.78978e-07 0)
(0.00100069 1.08484e-06 0)
(0.00100105 1.23257e-06 0)
(0.00100149 1.25745e-06 0)
(0.00100199 1.07691e-06 0)
(0.00100248 6.56592e-07 0)
(0.00100279 1.56119e-08 0)
(0.00100274 -7.71179e-07 0)
(0.00100227 -1.44681e-06 0)
(0.00100146 -1.76968e-06 0)
(0.00100062 -1.66618e-06 0)
(0.001 -1.3511e-06 0)
(0.000999789 -1.03495e-06 0)
(0.00099976 -9.38202e-07 0)
(0.000999879 -9.4336e-07 0)
(0.000999763 -1.1087e-06 0)
(0.001 7.28996e-08 0)
(0.00100004 2.1759e-07 0)
(0.00100012 3.60979e-07 0)
(0.00100025 5.04796e-07 0)
(0.00100043 6.44805e-07 0)
(0.00100066 7.6622e-07 0)
(0.00100095 8.39915e-07 0)
(0.00100128 8.30096e-07 0)
(0.00100162 6.94371e-07 0)
(0.0010019 4.05932e-07 0)
(0.00100205 -4.96821e-08 0)
(0.00100199 -5.7726e-07 0)
(0.0010017 -1.03285e-06 0)
(0.00100119 -1.27734e-06 0)
(0.00100064 -1.22838e-06 0)
(0.00100016 -9.9762e-07 0)
(0.000999909 -7.07339e-07 0)
(0.000999734 -5.57675e-07 0)
(0.000999748 -4.84789e-07 0)
(0.000999558 -5.98056e-07 0)
(0.001 5.38494e-08 0)
(0.00100004 1.5674e-07 0)
(0.00100012 2.52261e-07 0)
(0.00100025 3.4055e-07 0)
(0.00100041 4.21085e-07 0)
(0.00100061 4.83504e-07 0)
(0.00100085 5.11086e-07 0)
(0.00100111 4.77394e-07 0)
(0.00100136 3.64642e-07 0)
(0.00100156 1.55891e-07 0)
(0.00100166 -1.19297e-07 0)
(0.0010016 -4.22169e-07 0)
(0.00100139 -6.79514e-07 0)
(0.00100103 -8.39628e-07 0)
(0.00100063 -8.49976e-07 0)
(0.00100022 -7.73778e-07 0)
(0.000999945 -6.42002e-07 0)
(0.000999684 -5.96837e-07 0)
(0.000999624 -5.58577e-07 0)
(0.000999385 -6.83892e-07 0)
(0.001 3.70425e-08 0)
(0.00100004 1.09331e-07 0)
(0.00100011 1.78e-07 0)
(0.00100023 2.42298e-07 0)
(0.00100037 3.01024e-07 0)
(0.00100055 3.49484e-07 0)
(0.00100076 3.77181e-07 0)
(0.00100097 3.721e-07 0)
(0.00100116 3.22649e-07 0)
(0.00100129 2.24872e-07 0)
(0.00100135 8.53512e-08 0)
(0.0010013 -7.10673e-08 0)
(0.00100114 -2.05044e-07 0)
(0.00100086 -2.95648e-07 0)
(0.00100053 -3.12122e-07 0)
(0.00100016 -2.836e-07 0)
(0.000999896 -2.04971e-07 0)
(0.000999608 -1.68181e-07 0)
(0.000999514 -1.15994e-07 0)
(0.000999247 -1.97497e-07 0)
(0.001 -3.27581e-09 0)
(0.00100004 -8.42917e-09 0)
(0.00100012 -1.18074e-08 0)
(0.00100023 -1.46181e-08 0)
(0.00100038 -1.76303e-08 0)
(0.00100055 -2.30969e-08 0)
(0.00100074 -3.31985e-08 0)
(0.00100093 -5.23109e-08 0)
(0.00100111 -8.06576e-08 0)
(0.00100122 -1.21599e-07 0)
(0.00100127 -1.69903e-07 0)
(0.00100121 -2.31016e-07 0)
(0.00100106 -2.89561e-07 0)
(0.0010008 -3.40371e-07 0)
(0.00100053 -3.59447e-07 0)
(0.00100018 -3.68472e-07 0)
(0.000999942 -3.43036e-07 0)
(0.000999605 -3.52504e-07 0)
(0.000999519 -3.26827e-07 0)
(0.000999128 -4.10184e-07 0)
)
;

boundaryField
{
    sides
    {
        type            slip;
    }
    inlet
    {
        type            fixedValue;
        value           uniform (0.001 0 0);
    }
    outlet
    {
        type            zeroGradient;
    }
    frontAndBack
    {
        type            empty;
    }
}


// ************************************************************************* //
