/*--------------------------------*- C++ -*----------------------------------*\
  =========                 |
  \\      /  F ield         | OpenFOAM: The Open Source CFD Toolbox
   \\    /   O peration     | Website:  https://openfoam.org
    \\  /    A nd           | Version:  9
     \\/     M anipulation  |
\*---------------------------------------------------------------------------*/
FoamFile
{
    format      ascii;
    class       volVectorField;
    location    "42";
    object      ddt0(hU);
}
// * * * * * * * * * * * * * * * * * * * * * * * * * * * * * * * * * * * * * //

dimensions      [0 2 -2 0 0 0 0];

internalField   nonuniform List<vector> 
400
(
(2.58067e-09 -7.3153e-10 0)
(2.37891e-08 6.57459e-09 0)
(1.75004e-08 1.23296e-08 0)
(1.12955e-09 1.10517e-08 0)
(-2.69921e-09 9.7191e-10 0)
(1.35392e-09 -5.35783e-09 0)
(1.42298e-09 -2.76481e-09 0)
(-5.1395e-09 4.05029e-09 0)
(-2.50364e-08 5.18863e-09 0)
(-3.92852e-08 2.04635e-09 0)
(-3.71428e-08 -8.13962e-09 0)
(-2.33314e-08 -6.09499e-09 0)
(-4.15285e-09 -2.96868e-09 0)
(-2.16881e-09 2.20053e-09 0)
(-6.68304e-09 4.09474e-09 0)
(-1.2926e-08 -2.04451e-09 0)
(-8.62566e-09 -6.95907e-09 0)
(1.54673e-08 -4.79843e-09 0)
(1.94763e-08 -2.46554e-09 0)
(4.85689e-10 6.09517e-10 0)
(1.65273e-09 6.40028e-10 0)
(2.30064e-08 1.43753e-08 0)
(1.6147e-08 2.85285e-08 0)
(2.08879e-09 2.68169e-08 0)
(-7.17189e-10 2.30518e-09 0)
(2.91402e-10 -1.44798e-08 0)
(8.06097e-10 -9.886e-09 0)
(-8.43045e-09 7.23379e-09 0)
(-2.32895e-08 1.00079e-08 0)
(-4.1195e-08 4.34429e-09 0)
(-3.63934e-08 -1.09181e-08 0)
(-1.88537e-08 -1.63832e-08 0)
(-8.28909e-09 -4.76193e-09 0)
(-6.57328e-10 7.47009e-09 0)
(-4.49403e-09 1.09023e-08 0)
(-9.38448e-09 -2.49376e-09 0)
(-4.07873e-09 -2.13441e-08 0)
(9.16161e-09 -1.89894e-08 0)
(1.23672e-08 8.60882e-09 0)
(2.08759e-09 1.18013e-08 0)
(-1.28276e-09 1.62742e-09 0)
(1.73598e-08 1.90847e-08 0)
(1.33871e-08 4.21412e-08 0)
(4.7262e-09 3.74383e-08 0)
(1.92748e-09 1.25268e-09 0)
(-6.98995e-10 -2.46907e-08 0)
(-2.31048e-09 -1.51906e-08 0)
(-1.09092e-08 5.38917e-09 0)
(-2.41823e-08 1.66713e-08 0)
(-2.99019e-08 -6.45651e-10 0)
(-3.59917e-08 -1.00882e-08 0)
(-1.59195e-08 -2.80391e-08 0)
(-7.11339e-09 -1.07571e-08 0)
(-3.40864e-09 1.39275e-08 0)
(-1.08849e-09 1.58876e-08 0)
(-5.24875e-09 -2.17492e-09 0)
(-7.19628e-10 -2.86095e-08 0)
(1.74994e-08 -2.91386e-08 0)
(1.98599e-08 5.50878e-09 0)
(5.98097e-09 1.37333e-08 0)
(-1.82962e-09 -1.34745e-09 0)
(1.12264e-08 2.34309e-08 0)
(8.55226e-09 5.54246e-08 0)
(3.8372e-09 4.61627e-08 0)
(1.7179e-09 -1.06008e-09 0)
(-5.89566e-10 -3.205e-08 0)
(-6.1906e-09 -2.24284e-08 0)
(-9.74185e-09 2.86242e-09 0)
(-2.81754e-08 1.9238e-08 0)
(-2.53491e-08 1.08176e-09 0)
(-2.43784e-08 -3.53047e-08 0)
(-2.56779e-08 -2.91498e-08 0)
(3.08726e-09 -1.84265e-08 0)
(-2.01221e-09 1.60711e-08 0)
(-2.85753e-09 2.59207e-08 0)
(6.06574e-09 1.39137e-10 0)
(8.79799e-09 -3.73398e-08 0)
(5.22146e-09 -3.79399e-08 0)
(7.31403e-09 7.67667e-09 0)
(1.10318e-08 2.00825e-08 0)
(-2.8768e-10 -4.84173e-09 0)
(4.41229e-09 2.46294e-08 0)
(2.94936e-09 5.95009e-08 0)
(2.7884e-09 4.83154e-08 0)
(2.50433e-09 -2.12892e-09 0)
(-5.41999e-09 -3.72373e-08 0)
(-8.6437e-09 -3.31894e-08 0)
(-1.91614e-08 3.54605e-09 0)
(-1.3538e-08 8.64461e-09 0)
(-4.57555e-08 1.35305e-08 0)
(-5.25116e-09 -3.86132e-08 0)
(-7.2321e-09 -3.56425e-08 0)
(-1.27632e-08 -5.58637e-09 0)
(1.02337e-08 1.63057e-08 0)
(1.95928e-09 2.9842e-08 0)
(1.51916e-09 7.34723e-09 0)
(1.05693e-08 -3.79713e-08 0)
(1.80705e-08 -4.30332e-08 0)
(1.80298e-08 1.25479e-08 0)
(1.305e-08 2.48343e-08 0)
(2.11366e-09 -7.1262e-09 0)
(-1.59041e-09 2.42999e-08 0)
(-3.31544e-09 5.73557e-08 0)
(2.06246e-09 4.55495e-08 0)
(1.7411e-10 -4.34674e-09 0)
(-8.60277e-09 -4.43502e-08 0)
(-1.48187e-08 -3.65304e-08 0)
(-1.98887e-08 -4.74386e-09 0)
(-1.80178e-08 2.12632e-08 0)
(-1.40997e-08 -1.82093e-08 0)
(-3.70992e-08 2.32278e-08 0)
(2.60523e-08 -6.01455e-08 0)
(-5.63203e-09 -9.94826e-09 0)
(-1.17366e-08 3.08877e-08 0)
(9.14876e-09 3.566e-08 0)
(1.33025e-08 1.12795e-08 0)
(1.27749e-08 -3.34952e-08 0)
(6.33148e-09 -4.04129e-08 0)
(8.92588e-09 5.79864e-09 0)
(1.92732e-08 2.07935e-08 0)
(4.28447e-09 -7.47685e-09 0)
(-7.22541e-09 2.14731e-08 0)
(-8.86682e-09 5.02455e-08 0)
(3.77987e-10 3.89806e-08 0)
(-1.35848e-09 -8.40758e-09 0)
(-1.37867e-08 -4.55364e-08 0)
(-2.17171e-08 -3.63903e-08 0)
(-1.44601e-08 -5.69405e-09 0)
(-3.97895e-08 1.67477e-08 0)
(4.07147e-08 -3.16411e-08 0)
(-4.43098e-08 -1.50879e-08 0)
(-6.54117e-08 -1.35185e-08 0)
(4.44899e-08 -2.42174e-08 0)
(1.01313e-08 2.60929e-08 0)
(-1.87523e-09 4.20424e-08 0)
(7.95057e-09 1.32205e-08 0)
(1.37553e-08 -3.10729e-08 0)
(6.66171e-09 -3.83884e-08 0)
(8.85957e-09 1.06913e-08 0)
(2.05938e-08 2.36377e-08 0)
(5.24744e-09 -6.05903e-09 0)
(-1.14751e-08 1.63675e-08 0)
(-1.36673e-08 3.81604e-08 0)
(-1.18885e-09 2.84114e-08 0)
(-3.64136e-09 -1.12037e-08 0)
(-1.69753e-08 -3.97222e-08 0)
(-2.39059e-08 -2.98511e-08 0)
(-2.44193e-08 -5.4891e-10 0)
(-2.91511e-08 9.10533e-09 0)
(-6.86257e-08 6.00455e-08 0)
(2.15277e-07 -3.0456e-08 0)
(-4.64331e-08 5.64987e-09 0)
(-1.85055e-08 2.04359e-08 0)
(2.69982e-08 1.80086e-08 0)
(1.32796e-08 2.55523e-08 0)
(8.06466e-09 8.82875e-09 0)
(5.72409e-09 -2.28215e-08 0)
(-4.98084e-10 -2.86081e-08 0)
(5.24911e-09 8.18881e-09 0)
(2.08423e-08 1.81682e-08 0)
(5.42329e-09 -2.96411e-09 0)
(-1.49143e-08 1.0537e-08 0)
(-1.70266e-08 2.27441e-08 0)
(-2.49744e-09 1.45184e-08 0)
(-4.42001e-09 -1.11738e-08 0)
(-1.87911e-08 -2.82933e-08 0)
(-2.38861e-08 -1.75773e-08 0)
(-1.83558e-08 5.90357e-12 0)
(4.90604e-09 1.09068e-09 0)
(6.45764e-08 4.85925e-08 0)
(-2.13003e-07 -3.39076e-08 0)
(4.99818e-08 3.64431e-09 0)
(1.74255e-08 1.46221e-08 0)
(-1.65208e-08 6.08743e-09 0)
(8.48446e-09 5.80799e-09 0)
(1.5659e-08 7.12724e-12 0)
(1.38187e-08 -1.7087e-08 0)
(-2.88468e-09 -1.7743e-08 0)
(-1.24285e-09 7.15463e-09 0)
(1.92631e-08 1.65894e-08 0)
(5.04214e-09 6.18636e-10 0)
(-1.68506e-08 3.63279e-09 0)
(-1.98142e-08 4.93042e-09 0)
(-3.54501e-09 -6.58779e-10 0)
(-4.32591e-09 -8.59386e-09 0)
(-1.78742e-08 -1.19685e-08 0)
(-2.63992e-08 -6.34938e-09 0)
(-2.81889e-08 -2.67547e-09 0)
(1.02058e-08 -7.43284e-09 0)
(-4.6019e-08 -5.00187e-08 0)
(4.13224e-08 1.16231e-08 0)
(6.37638e-08 2.53155e-09 0)
(-4.22799e-08 -3.53664e-08 0)
(-6.53159e-10 -1.09306e-08 0)
(2.27813e-08 -6.32583e-09 0)
(2.38783e-08 -1.01337e-08 0)
(8.28184e-09 -1.41941e-08 0)
(-1.18978e-09 -1.27225e-08 0)
(8.03326e-10 5.72447e-10 0)
(1.32673e-08 1.04043e-08 0)
(4.61395e-09 2.85036e-09 0)
(-1.70998e-08 -5.51033e-09 0)
(-2.02391e-08 -1.45154e-08 0)
(-3.53502e-09 -1.47641e-08 0)
(-3.03258e-09 -4.12666e-09 0)
(-1.68029e-08 5.1733e-09 0)
(-2.9095e-08 4.24432e-09 0)
(-2.61923e-08 -3.52895e-09 0)
(-2.3432e-08 -3.18751e-09 0)
(7.44821e-09 -5.19888e-09 0)
(9.71951e-08 -1.06524e-07 0)
(-8.56e-08 -1.46851e-08 0)
(-1.08518e-08 -3.75566e-09 0)
(1.58017e-08 -9.60395e-09 0)
(1.86754e-08 -1.68415e-08 0)
(2.6049e-08 -1.56269e-08 0)
(1.81988e-08 -8.40325e-09 0)
(3.00796e-09 -6.28379e-09 0)
(2.10057e-09 -9.9274e-09 0)
(1.54133e-08 -1.00131e-09 0)
(4.29603e-09 3.73041e-09 0)
(-1.48559e-08 -1.44349e-08 0)
(-1.71486e-08 -3.12777e-08 0)
(-1.36494e-09 -2.71538e-08 0)
(-1.83059e-09 -1.37875e-09 0)
(-1.59227e-08 1.795e-08 0)
(-2.64706e-08 8.29629e-09 0)
(-2.99183e-08 -2.30638e-10 0)
(-4.89313e-10 1.15399e-09 0)
(-1.74422e-07 7.89539e-09 0)
(-1.63378e-07 1.53771e-07 0)
(1.96942e-07 1.9631e-09 0)
(-2.35651e-08 2.25978e-08 0)
(-7.35287e-09 -2.53546e-09 0)
(1.97028e-08 -1.39987e-08 0)
(2.57914e-08 -1.62345e-08 0)
(1.77332e-08 -2.06836e-09 0)
(5.06484e-09 1.69318e-09 0)
(4.88483e-09 -1.42787e-08 0)
(1.7051e-08 -6.96058e-09 0)
(4.13312e-09 4.23902e-09 0)
(-1.06435e-08 -2.23039e-08 0)
(-1.25641e-08 -4.68539e-08 0)
(4.60313e-10 -3.8545e-08 0)
(-1.01298e-09 -1.73446e-09 0)
(-1.6615e-08 2.65634e-08 0)
(-2.77224e-08 1.59081e-08 0)
(-2.03587e-08 -3.33104e-09 0)
(-3.72948e-08 5.26983e-09 0)
(1.98594e-07 8.28348e-09 0)
(1.21095e-07 1.45741e-07 0)
(-2.0442e-07 2.95986e-08 0)
(2.57673e-08 1.95689e-08 0)
(4.31619e-09 -2.53859e-09 0)
(4.2735e-09 -1.92958e-08 0)
(8.68488e-09 -1.9927e-08 0)
(1.39124e-08 7.79541e-09 0)
(1.0576e-08 1.28655e-08 0)
(8.67067e-09 -1.76968e-08 0)
(1.72757e-08 -1.28854e-08 0)
(2.894e-09 5.06007e-09 0)
(-5.61465e-09 -2.80282e-08 0)
(-6.10903e-09 -6.04275e-08 0)
(3.50147e-09 -4.98245e-08 0)
(1.31681e-09 -3.52919e-09 0)
(-1.49451e-08 3.19148e-08 0)
(-2.24482e-08 2.6416e-08 0)
(-2.04145e-08 -3.80007e-09 0)
(-1.75249e-09 -1.62845e-08 0)
(-3.77147e-08 1.92921e-08 0)
(-4.19241e-08 -1.39557e-07 0)
(6.87139e-08 4.67294e-08 0)
(8.40861e-10 1.3435e-08 0)
(-4.24809e-09 -2.36982e-08 0)
(-4.42139e-09 -4.1838e-08 0)
(4.28696e-09 -2.37815e-08 0)
(1.36535e-08 1.85935e-08 0)
(1.15255e-08 2.40227e-08 0)
(9.01154e-09 -1.88326e-08 0)
(1.62717e-08 -1.71056e-08 0)
(2.05067e-10 5.11259e-09 0)
(-9.67061e-11 -3.01495e-08 0)
(1.11399e-10 -6.78603e-08 0)
(6.20706e-09 -5.84081e-08 0)
(3.4539e-09 -8.11017e-09 0)
(-9.1438e-09 3.26893e-08 0)
(-2.06155e-08 2.89612e-08 0)
(-1.87515e-08 -3.06312e-09 0)
(-1.86545e-08 -2.44054e-08 0)
(-1.67622e-08 -2.04518e-08 0)
(-9.0895e-10 6.09962e-08 0)
(-1.47246e-08 3.22597e-08 0)
(-6.83951e-09 -1.15787e-09 0)
(-1.0908e-08 -3.8118e-08 0)
(-5.09735e-09 -4.74145e-08 0)
(8.50606e-09 -2.15703e-08 0)
(1.59486e-08 2.46579e-08 0)
(1.46497e-08 3.12768e-08 0)
(1.132e-08 -1.64772e-08 0)
(1.55137e-08 -1.81673e-08 0)
(-2.28563e-09 2.41092e-09 0)
(5.55382e-09 -3.03113e-08 0)
(5.74285e-09 -6.81675e-08 0)
(6.99731e-09 -6.07705e-08 0)
(5.1565e-09 -1.1663e-08 0)
(-4.71415e-09 2.81455e-08 0)
(-1.37479e-08 2.64014e-08 0)
(-1.82093e-08 -4.93281e-11 0)
(-2.1906e-08 -1.9654e-08 0)
(-1.60381e-08 -5.65479e-09 0)
(-1.74858e-08 1.02106e-08 0)
(-1.7847e-08 2.36672e-08 0)
(-1.43161e-08 1.20684e-09 0)
(-4.86916e-09 -3.17442e-08 0)
(3.07594e-09 -3.8774e-08 0)
(9.168e-09 -1.36163e-08 0)
(1.62407e-08 3.14765e-08 0)
(1.84812e-08 3.4346e-08 0)
(1.26182e-08 -1.56891e-08 0)
(1.19779e-08 -1.7829e-08 0)
(-2.60784e-09 -2.46364e-09 0)
(1.17365e-08 -2.89313e-08 0)
(1.09074e-08 -5.98909e-08 0)
(6.83715e-09 -5.43017e-08 0)
(4.68057e-09 -1.21073e-08 0)
(-9.21326e-10 2.00611e-08 0)
(-6.7437e-09 1.90513e-08 0)
(-1.50407e-08 -1.98004e-09 0)
(-2.1855e-08 -1.09807e-08 0)
(-3.27187e-08 -3.43803e-10 0)
(-2.7186e-08 2.0589e-08 0)
(-9.12973e-09 2.89775e-08 0)
(-2.6129e-09 7.11883e-09 0)
(1.79808e-09 -2.10566e-08 0)
(4.89752e-09 -2.78973e-08 0)
(1.04113e-08 -4.43198e-09 0)
(1.36428e-08 3.32882e-08 0)
(1.54563e-08 3.1113e-08 0)
(1.17558e-08 -1.45678e-08 0)
(8.04267e-09 -1.59313e-08 0)
(-4.72839e-10 -6.32758e-09 0)
(1.92456e-08 -2.64387e-08 0)
(1.63849e-08 -4.87135e-08 0)
(4.90958e-09 -4.29634e-08 0)
(1.41508e-09 -9.01569e-09 0)
(4.26159e-10 1.35432e-08 0)
(-5.54719e-10 8.34341e-09 0)
(-9.28729e-09 -8.82266e-09 0)
(-2.35091e-08 -1.16768e-08 0)
(-3.20795e-08 1.78169e-09 0)
(-2.82465e-08 2.71749e-08 0)
(-2.1685e-08 3.17585e-08 0)
(-5.14255e-09 1.47855e-08 0)
(7.95684e-09 -8.00695e-09 0)
(9.34605e-09 -1.29516e-08 0)
(6.65022e-09 2.81842e-09 0)
(5.44867e-09 2.61778e-08 0)
(1.22056e-08 2.21064e-08 0)
(9.72373e-09 -1.21568e-08 0)
(2.3948e-09 -1.30621e-08 0)
(2.01186e-09 -7.05017e-09 0)
(2.55018e-08 -1.69206e-08 0)
(2.12102e-08 -2.92898e-08 0)
(5.25992e-09 -2.58155e-08 0)
(-1.0071e-09 -5.04521e-09 0)
(2.88946e-11 8.61172e-09 0)
(9.38283e-10 2.45972e-09 0)
(-6.71639e-09 -8.81122e-09 0)
(-2.36223e-08 -1.07487e-08 0)
(-3.75688e-08 1.62748e-10 0)
(-3.33288e-08 1.20522e-08 0)
(-1.4776e-08 1.904e-08 0)
(2.86807e-09 1.39636e-08 0)
(6.79593e-09 -4.94189e-10 0)
(2.26352e-09 -5.03116e-09 0)
(-4.88562e-09 2.68523e-09 0)
(-5.04305e-09 1.50096e-08 0)
(9.8095e-09 1.14814e-08 0)
(8.86794e-09 -1.02447e-08 0)
(-1.35443e-09 -9.33479e-09 0)
(4.54755e-09 -3.30555e-09 0)
(3.10314e-08 -4.35022e-09 0)
(2.40019e-08 -7.33468e-09 0)
(4.41263e-09 -7.17766e-09 0)
(-3.35495e-09 -1.86252e-09 0)
(-8.83513e-10 2.78398e-09 0)
(1.60011e-09 9.07431e-10 0)
(-4.83154e-09 -1.85711e-09 0)
(-2.42389e-08 -2.88576e-09 0)
(-3.81569e-08 -3.42908e-10 0)
(-3.60867e-08 5.16786e-09 0)
(-1.90088e-08 6.85306e-09 0)
(-1.42312e-09 3.08639e-09 0)
(5.16022e-09 -2.24177e-09 0)
(1.543e-09 -2.48852e-09 0)
(-9.81506e-09 5.09749e-10 0)
(-1.1495e-08 4.48419e-09 0)
(6.64698e-09 3.34361e-09 0)
(8.29101e-09 -4.15532e-09 0)
(-1.78357e-09 -3.49417e-09 0)
)
;

boundaryField
{
    sides
    {
        type            calculated;
        value           nonuniform List<vector> 
40
(
(4.54755e-09 0 0)
(3.10314e-08 0 0)
(2.40019e-08 0 0)
(4.41263e-09 0 0)
(-3.35495e-09 0 0)
(-8.83513e-10 0 0)
(1.60011e-09 0 0)
(-4.83154e-09 0 0)
(-2.42389e-08 0 0)
(-3.81569e-08 0 0)
(-3.60867e-08 0 0)
(-1.90088e-08 0 0)
(-1.42312e-09 0 0)
(5.16022e-09 0 0)
(1.543e-09 0 0)
(-9.81506e-09 0 0)
(-1.1495e-08 0 0)
(6.64698e-09 0 0)
(8.29101e-09 0 0)
(-1.78357e-09 0 0)
(2.58067e-09 0 0)
(2.37891e-08 0 0)
(1.75004e-08 0 0)
(1.12955e-09 0 0)
(-2.69921e-09 0 0)
(1.35392e-09 0 0)
(1.42298e-09 0 0)
(-5.1395e-09 0 0)
(-2.50364e-08 0 0)
(-3.92852e-08 0 0)
(-3.71428e-08 0 0)
(-2.33314e-08 0 0)
(-4.15285e-09 0 0)
(-2.16881e-09 0 0)
(-6.68304e-09 0 0)
(-1.2926e-08 0 0)
(-8.62566e-09 0 0)
(1.54673e-08 0 0)
(1.94763e-08 0 0)
(4.85689e-10 0 0)
)
;
    }
    inlet
    {
        type            calculated;
        value           uniform (0 0 0);
    }
    outlet
    {
        type            calculated;
        value           nonuniform List<vector> 
20
(
(4.85689e-10 6.09517e-10 0)
(2.08759e-09 1.18013e-08 0)
(5.98097e-09 1.37333e-08 0)
(1.10318e-08 2.00825e-08 0)
(1.305e-08 2.48343e-08 0)
(1.92732e-08 2.07935e-08 0)
(2.05938e-08 2.36377e-08 0)
(2.08423e-08 1.81682e-08 0)
(1.92631e-08 1.65894e-08 0)
(1.32673e-08 1.04043e-08 0)
(1.54133e-08 -1.00131e-09 0)
(1.7051e-08 -6.96058e-09 0)
(1.72757e-08 -1.28854e-08 0)
(1.62717e-08 -1.71056e-08 0)
(1.55137e-08 -1.81673e-08 0)
(1.19779e-08 -1.7829e-08 0)
(8.04267e-09 -1.59313e-08 0)
(2.3948e-09 -1.30621e-08 0)
(-1.35443e-09 -9.33479e-09 0)
(-1.78357e-09 -3.49417e-09 0)
)
;
    }
    frontAndBack
    {
        type            empty;
    }
}


// ************************************************************************* //
