/*--------------------------------*- C++ -*----------------------------------*\
  =========                 |
  \\      /  F ield         | OpenFOAM: The Open Source CFD Toolbox
   \\    /   O peration     | Website:  https://openfoam.org
    \\  /    A nd           | Version:  9
     \\/     M anipulation  |
\*---------------------------------------------------------------------------*/
FoamFile
{
    format      ascii;
    class       surfaceScalarField;
    location    "42";
    object      ddtCorrDdt0(phi);
}
// * * * * * * * * * * * * * * * * * * * * * * * * * * * * * * * * * * * * * //

dimensions      [0 4 -2 0 0 0 0];

internalField   nonuniform List<scalar> 
760
(
7.6386e-11
5.81837e-12
1.0954e-10
4.57812e-11
4.33949e-11
8.48987e-11
1.74657e-11
8.85707e-11
3.34185e-12
7.12179e-12
1.82135e-11
-4.75499e-11
-2.1091e-11
-3.48822e-11
-8.16339e-11
2.42162e-11
-1.80143e-10
2.7438e-11
-1.95007e-10
2.31069e-11
-1.6958e-10
-3.70558e-11
-6.40234e-11
-4.82621e-11
-7.20304e-12
-2.10587e-11
-1.09949e-11
2.58143e-11
-3.07193e-11
4.24417e-11
-5.51225e-11
-1.43228e-11
9.79295e-12
-7.51636e-11
9.94437e-11
-6.65719e-11
4.36292e-11
2.66575e-11
2.81304e-11
8.30078e-11
1.56618e-11
8.97422e-11
8.81608e-11
5.22298e-11
1.73657e-10
1.9709e-11
1.59361e-10
5.20319e-12
3.41327e-12
1.21774e-11
-1.00641e-10
-2.39936e-11
-6.96348e-11
-9.44422e-11
4.44324e-11
-1.68213e-10
6.12467e-11
-2.24628e-10
2.50564e-11
-1.23274e-10
-6.46868e-11
-7.8634e-11
-1.21693e-10
-1.0108e-11
-2.8111e-11
8.167e-13
4.52469e-11
-2.71515e-11
6.21736e-11
-3.35897e-11
-1.13614e-11
1.4889e-11
-1.1641e-10
5.4996e-11
-1.09274e-10
4.34447e-11
2.07929e-11
7.56201e-11
5.87304e-11
5.28515e-12
5.93611e-11
1.12088e-10
6.44478e-11
2.49834e-10
2.26921e-11
2.09561e-10
1.04731e-11
1.99386e-12
-1.8816e-12
-1.49638e-10
-2.52539e-11
-7.88576e-11
-1.22463e-10
8.36907e-12
-1.31564e-10
1.0539e-10
-1.79167e-10
-3.82833e-11
-1.44326e-10
-6.01317e-11
-3.7456e-11
-1.69631e-10
-3.16071e-11
-8.59364e-11
1.12821e-12
8.5025e-11
-1.23645e-11
8.9714e-11
-6.79218e-12
-2.22328e-11
5.01503e-11
-1.7898e-10
9.62883e-11
-1.7618e-10
4.21369e-11
5.69629e-11
7.7507e-11
2.99366e-11
-1.49233e-11
3.86572e-11
1.20314e-10
4.98727e-11
2.91463e-10
1.43389e-11
2.39683e-10
-6.66841e-14
-1.37145e-11
1.39874e-11
-1.64733e-10
-6.69101e-11
-1.48265e-10
-8.33592e-11
9.11049e-12
-1.95552e-10
6.77224e-11
-6.61674e-11
2.93541e-11
-1.83539e-10
-2.72007e-10
-3.02398e-11
-1.00986e-10
2.28069e-11
-9.92136e-11
-2.33464e-11
6.50914e-11
1.27718e-11
1.55394e-10
4.76398e-11
2.4821e-11
4.00744e-11
-1.8112e-10
2.43189e-11
-1.97094e-10
4.82098e-11
3.25284e-11
9.9154e-11
-5.49436e-13
-3.08865e-11
2.1372e-11
1.23377e-10
3.15765e-11
2.93872e-10
-2.09787e-12
2.31475e-10
8.93194e-12
-1.07934e-11
-2.67553e-11
-2.05725e-10
-8.54055e-11
-1.91096e-10
-8.19707e-11
1.36466e-11
-1.51925e-10
1.05026e-11
-2.06341e-10
1.15122e-10
8.1839e-11
-1.51967e-10
-1.28433e-10
-2.94675e-10
3.66321e-11
4.6309e-11
3.63871e-11
1.2267e-10
-5.24046e-12
1.47857e-10
4.49357e-11
4.87635e-11
7.90461e-11
-1.86654e-10
8.15469e-11
-2.22982e-10
7.0629e-11
5.58347e-11
1.22813e-10
-2.16218e-11
-3.73747e-11
1.24688e-13
1.17161e-10
5.34629e-12
2.67229e-10
-3.83128e-12
2.12348e-10
-7.19758e-12
-3.44543e-11
-7.72378e-11
-2.35318e-10
-5.3455e-11
-1.75579e-10
-1.83881e-10
-8.25157e-11
4.11405e-11
2.15029e-10
-2.7187e-10
-3.60636e-10
2.94963e-11
4.33209e-10
1.06211e-10
-2.99873e-10
-9.1894e-11
-1.62526e-10
9.39877e-12
1.83058e-10
6.31237e-11
2.10456e-10
6.74617e-11
6.3991e-11
4.57969e-11
-1.73112e-10
3.16256e-11
-1.91344e-10
7.0218e-11
4.97312e-11
1.1272e-10
-3.43363e-11
-3.38636e-11
-2.83209e-11
9.81563e-11
-1.1354e-11
2.23538e-10
-1.04902e-11
1.67916e-10
-4.45023e-11
-5.30714e-11
-8.25434e-11
-2.20677e-10
-1.33195e-10
-1.94367e-10
-6.15638e-12
4.21448e-11
-3.32401e-10
-6.51311e-11
4.9219e-10
1.38695e-10
-7.24248e-10
-3.13537e-09
1.55756e-10
4.10375e-10
1.44517e-10
-1.68715e-11
-9.77754e-13
6.44136e-11
2.32022e-11
1.698e-10
4.12952e-11
4.37584e-11
5.33641e-11
3.95671e-10
3.57559e-11
-1.55472e-10
7.57695e-11
5.14302e-11
1.04916e-10
-4.33467e-11
-2.23984e-11
-5.01084e-11
7.14557e-11
-2.82433e-11
1.56739e-10
-2.2582e-11
1.09325e-10
-6.51915e-11
-6.68564e-11
-1.20178e-10
-1.75817e-10
-8.7466e-11
-1.07743e-10
-1.02256e-10
-6.13099e-11
-4.22821e-10
2.23135e-10
4.97799e-10
5.66177e-10
5.08536e-10
4.39058e-08
-3.05655e-10
-7.18399e-10
9.76637e-11
2.15545e-10
1.14457e-10
1.38278e-10
3.86253e-11
1.24315e-10
3.5118e-11
2.20725e-11
-4.99451e-12
-1.16223e-10
1.39859e-11
-1.06817e-10
7.00907e-11
4.90027e-11
8.98081e-11
-4.84277e-11
-4.45727e-12
-6.93504e-11
3.75394e-11
-3.77499e-11
7.11725e-11
-4.02349e-11
3.13179e-11
-7.72927e-11
-5.01615e-11
-9.56828e-11
-1.09591e-10
-1.33187e-10
-5.64622e-11
-6.81503e-11
4.58489e-11
3.47134e-10
-1.8557e-10
-4.95796e-10
8.15992e-11
-4.87733e-10
-2.50343e-09
3.32432e-10
4.07102e-10
-7.03256e-11
-4.79782e-11
-1.05774e-11
-4.01571e-11
6.9804e-11
-1.76783e-12
7.38952e-11
-3.50602e-11
1.49566e-11
-5.02892e-10
-1.35038e-11
-8.16483e-11
4.52844e-11
1.61846e-11
3.20803e-11
-5.22421e-11
1.14537e-11
-7.97489e-11
-2.93981e-12
-5.48129e-11
-2.61606e-11
-4.23004e-11
-4.06475e-11
-8.04364e-11
-3.41108e-11
-9.92654e-11
-9.18482e-12
-9.71009e-11
-2.63693e-12
-1.85965e-10
-6.89647e-11
2.01693e-10
7.59434e-11
-4.55779e-10
-4.25953e-10
7.03442e-10
7.60936e-10
-1.39348e-10
-1.6782e-10
-1.01081e-10
-1.66064e-10
7.45505e-11
-1.02009e-11
1.23952e-10
-5.1513e-11
7.37638e-11
-7.26009e-11
1.24826e-11
-6.24808e-11
-1.60579e-12
-5.10802e-11
4.12121e-11
-2.94093e-11
1.69271e-11
-5.098e-11
1.69464e-11
-8.42817e-11
-5.06855e-11
-6.05042e-11
-1.15397e-10
-3.72074e-11
-1.09524e-10
-6.68412e-11
-8.73066e-12
-8.67271e-11
5.47618e-11
-1.58514e-10
3.67308e-11
-8.61433e-11
-8.16096e-12
-2.40823e-10
-1.28465e-10
6.01665e-10
5.0772e-10
-1.53449e-10
-2.3169e-09
-2.60864e-10
1.09119e-10
7.76579e-11
2.18852e-10
6.58302e-11
1.10234e-11
1.21224e-10
-8.3258e-11
1.07161e-10
-7.9819e-11
4.75063e-11
-2.55623e-11
1.24822e-11
-1.83126e-11
4.46739e-11
-6.17355e-11
-2.01479e-11
-4.35549e-11
1.62548e-11
-7.17265e-11
-9.84603e-11
-5.3276e-11
-1.98638e-10
-1.51203e-11
-1.6403e-10
-5.84312e-11
-5.25947e-12
-9.27251e-11
1.15889e-10
-1.27019e-10
4.60672e-11
-1.93071e-10
3.51171e-11
1.01988e-10
1.39486e-10
-2.10896e-09
-3.25736e-10
1.32832e-09
5.57029e-08
9.85594e-12
-2.76068e-10
-8.67853e-11
5.31182e-11
4.16338e-11
-1.22555e-11
1.34591e-10
-9.76085e-11
9.34786e-11
-7.69209e-11
5.15674e-11
2.06396e-11
2.94483e-11
3.46928e-11
5.68527e-11
-8.21007e-11
-4.95561e-11
-3.62616e-11
2.02816e-11
-4.35044e-11
-1.32457e-10
-3.80384e-11
-2.69356e-10
-2.9768e-12
-2.15804e-10
-4.17198e-11
-7.2848e-12
-1.39643e-10
1.49822e-10
-1.247e-10
1.22025e-10
-6.32001e-11
-2.29017e-11
-1.77093e-10
-8.97879e-11
2.21905e-09
4.85713e-10
-1.60064e-09
-2.831e-09
9.11184e-11
4.11371e-10
5.6927e-11
1.4822e-10
2.26009e-11
-7.72291e-11
1.54741e-11
-1.5264e-10
5.45676e-11
-9.92484e-11
6.31416e-11
5.64468e-11
5.25964e-11
9.26433e-11
6.66967e-11
-9.24538e-11
-7.41243e-11
-2.6977e-11
2.71145e-11
-1.47321e-11
-1.48209e-10
-6.33118e-12
-3.22124e-10
1.01883e-11
-2.70253e-10
-2.66867e-11
-2.3981e-11
-1.207e-10
1.67348e-10
-1.18819e-10
1.43786e-10
-5.70387e-11
-3.09741e-11
6.21718e-11
-9.52792e-11
-5.6117e-10
-1.59941e-10
3.65815e-10
5.8834e-10
1.02721e-10
2.01344e-10
-1.09041e-12
3.4078e-11
-2.13748e-11
-1.41626e-10
-1.54769e-11
-2.26131e-10
4.78824e-11
-1.18253e-10
6.63505e-11
1.05135e-10
5.61489e-11
1.38643e-10
6.19433e-11
-9.21833e-11
-9.01545e-11
-1.5284e-11
2.20248e-11
8.57207e-12
-1.5113e-10
2.1643e-11
-3.46306e-10
2.53159e-11
-3.02976e-10
-1.45107e-12
-5.13282e-11
-8.89747e-11
1.59915e-10
-1.25863e-10
1.49913e-10
-7.16319e-11
7.13249e-12
-1.13649e-10
-1.27987e-10
-1.905e-11
-4.08452e-11
-5.65934e-11
1.88121e-10
-4.6273e-11
9.19438e-11
-2.85166e-11
-4.139e-12
-4.61347e-11
-1.97005e-10
-5.57935e-13
-2.30197e-10
6.88762e-11
-9.30037e-11
8.61679e-11
1.45474e-10
6.24312e-11
1.67965e-10
6.14556e-11
-8.06138e-11
-9.10034e-11
3.69387e-12
-9.45674e-13
2.41942e-11
-1.50387e-10
4.2999e-11
-3.24914e-10
3.18726e-11
-2.92976e-10
2.10216e-11
-6.2246e-11
-5.04787e-11
1.22926e-10
-9.53474e-11
1.2443e-10
-1.22071e-10
8.38235e-12
-9.22259e-11
-6.17793e-11
-7.11638e-11
-3.876e-11
-1.09635e-10
9.70161e-11
-6.29105e-11
1.20653e-10
-4.65518e-11
-9.88868e-12
-3.55038e-12
-1.53891e-10
2.56803e-11
-1.70878e-10
7.65922e-11
-4.2909e-11
9.92641e-11
1.6234e-10
6.91761e-11
1.66467e-10
5.24615e-11
-6.6908e-11
-8.13814e-11
2.90947e-11
-2.62855e-11
4.60512e-11
-1.40997e-10
5.60318e-11
-2.6961e-10
3.2463e-11
-2.40538e-10
2.73508e-11
-5.2508e-11
-9.84191e-12
7.99451e-11
-6.38017e-11
6.8877e-11
-1.19091e-10
-2.15465e-11
-1.33235e-10
-3.64677e-11
-1.79297e-10
2.97132e-11
-6.63124e-11
9.58509e-11
-4.22417e-11
1.5667e-10
8.25687e-12
7.0576e-11
2.49343e-11
-5.19437e-11
3.92215e-11
-9.17352e-11
7.14783e-11
-5.2752e-14
8.14204e-11
1.53817e-10
6.161e-11
1.36059e-10
4.07094e-11
-6.52903e-11
-7.12977e-11
5.94749e-11
-3.89297e-11
8.15904e-11
-1.10207e-10
6.37853e-11
-1.9101e-10
2.25304e-11
-1.69065e-10
1.36336e-11
-3.40145e-11
1.81876e-11
5.08123e-11
-3.27226e-11
2.05604e-11
-9.91666e-11
-4.47824e-11
-1.60345e-10
-4.95732e-11
-1.45956e-10
1.03875e-11
-1.36547e-10
1.2404e-10
-7.18467e-11
1.34529e-10
1.93267e-11
8.28472e-11
5.26901e-11
-1.30954e-11
4.81683e-11
-3.58318e-11
3.93167e-11
2.38991e-11
4.57504e-11
1.09233e-10
5.38436e-11
8.3014e-11
2.36675e-11
-5.88279e-11
-5.57985e-11
8.27714e-11
-3.11713e-11
1.15551e-10
-6.11031e-11
7.53451e-11
-1.00714e-10
2.21106e-11
-8.70086e-11
9.43304e-13
-1.65465e-11
1.74574e-11
3.19714e-11
-1.82431e-11
2.17788e-12
-8.71959e-11
-3.39132e-11
-1.70944e-10
-4.13304e-11
-1.89689e-10
2.21803e-12
-1.23785e-10
4.2751e-11
-3.49439e-11
6.90071e-11
3.28826e-11
5.33409e-11
4.04111e-11
4.93494e-12
6.66178e-12
-6.42881e-12
-2.74798e-11
1.33233e-11
7.98374e-12
4.31367e-11
5.49831e-11
3.30078e-11
1.37302e-11
-3.24496e-11
-3.15957e-11
1.07649e-10
1.39184e-10
7.96884e-11
1.43667e-11
-4.78645e-12
8.32639e-12
-6.88016e-12
-8.39638e-11
-1.72217e-10
-1.97542e-10
-1.48108e-10
-4.98962e-11
1.39046e-11
3.96891e-11
-5.31342e-12
-6.40814e-11
-1.81098e-11
5.08068e-11
1.29847e-11
)
;

boundaryField
{
    sides
    {
        type            calculated;
        value           uniform 0;
    }
    inlet
    {
        type            calculated;
        value           uniform 0;
    }
    outlet
    {
        type            calculated;
        value           nonuniform List<scalar> 
20
(
-1.75545e-11
-2.45113e-11
3.91362e-11
4.02454e-11
6.9043e-11
1.00317e-10
1.05092e-10
1.07903e-10
1.06925e-10
5.6851e-11
7.41618e-11
7.83265e-11
7.79909e-11
7.4404e-11
7.73329e-11
6.34109e-11
3.69091e-11
1.08802e-13
-2.57978e-11
-3.27467e-11
)
;
    }
    frontAndBack
    {
        type            empty;
        value           nonuniform List<scalar> 0();
    }
}


// ************************************************************************* //
