/*--------------------------------*- C++ -*----------------------------------*\
  =========                 |
  \\      /  F ield         | OpenFOAM: The Open Source CFD Toolbox
   \\    /   O peration     | Website:  https://openfoam.org
    \\  /    A nd           | Version:  9
     \\/     M anipulation  |
\*---------------------------------------------------------------------------*/
FoamFile
{
    format      ascii;
    class       volScalarField;
    location    "42";
    object      h;
}
// * * * * * * * * * * * * * * * * * * * * * * * * * * * * * * * * * * * * * //

dimensions      [0 1 0 0 0 0 0];

internalField   nonuniform List<scalar> 
400
(
0.0100004
0.0100003
0.0100002
0.0100001
0.00999989
0.00999967
0.00999944
0.00999921
0.00999902
0.00999888
0.00999881
0.00999884
0.00999896
0.00999916
0.00999942
0.00999967
0.00999988
0.01
0.0100001
0.01
0.0100003
0.0100003
0.0100002
0.01
0.0099998
0.00999957
0.00999932
0.00999907
0.00999884
0.00999866
0.00999858
0.00999862
0.00999877
0.00999902
0.00999931
0.00999959
0.0099998
0.00999992
0.00999997
0.00999998
0.0100003
0.0100003
0.0100002
0.01
0.00999981
0.00999956
0.00999927
0.00999898
0.0099987
0.00999849
0.00999836
0.00999839
0.00999857
0.0099989
0.0099993
0.00999967
0.00999994
0.0100001
0.0100001
0.01
0.0100004
0.0100003
0.0100002
0.0100001
0.00999984
0.00999956
0.00999922
0.00999885
0.00999846
0.00999811
0.00999791
0.00999794
0.00999826
0.00999877
0.00999935
0.00999978
0.00999998
0.01
0.00999997
0.00999996
0.0100004
0.0100004
0.0100003
0.0100002
0.00999994
0.00999963
0.00999922
0.00999872
0.00999817
0.00999761
0.00999724
0.00999725
0.00999775
0.00999863
0.00999957
0.0100002
0.0100004
0.0100003
0.0100001
0.00999999
0.0100005
0.0100005
0.0100005
0.0100003
0.0100001
0.00999982
0.00999931
0.00999861
0.00999776
0.00999696
0.00999637
0.00999635
0.00999711
0.00999847
0.00999977
0.0100005
0.0100005
0.0100002
0.00999994
0.00999992
0.0100007
0.0100007
0.0100007
0.0100006
0.0100005
0.0100002
0.00999966
0.00999868
0.00999719
0.00999545
0.0099942
0.00999459
0.00999676
0.00999953
0.0100013
0.0100016
0.0100008
0.0100001
0.00999975
0.00999987
0.0100008
0.0100009
0.0100009
0.010001
0.010001
0.0100008
0.0100003
0.0099993
0.00999744
0.00999435
0.00999052
0.00999027
0.00999454
0.0100002
0.0100034
0.0100031
0.0100013
0.00999987
0.00999951
0.00999983
0.0100009
0.010001
0.0100012
0.0100015
0.0100018
0.0100019
0.0100014
0.00999953
0.00999555
0.00998981
0.0099869
0.00998983
0.0099981
0.0100037
0.0100045
0.0100024
0.0100003
0.00999936
0.00999945
0.00999988
0.0100009
0.010001
0.0100013
0.0100018
0.0100026
0.010004
0.0100059
0.0100079
0.010005
0.00897853
0.00895251
0.00997593
0.0100089
0.0100179
0.0100105
0.0100023
0.00999888
0.00999892
0.00999979
0.0100002
0.0100008
0.010001
0.0100012
0.0100017
0.0100025
0.010004
0.0100058
0.0100078
0.0100049
0.00897851
0.0089525
0.00997585
0.0100088
0.0100178
0.0100105
0.0100023
0.00999887
0.00999891
0.00999976
0.0100001
0.0100007
0.0100008
0.010001
0.0100013
0.0100016
0.0100017
0.0100012
0.00999934
0.00999539
0.00998962
0.00998658
0.00998966
0.00999798
0.0100036
0.0100044
0.0100023
0.0100002
0.00999934
0.00999947
0.00999989
0.0100005
0.0100005
0.0100006
0.0100007
0.0100007
0.0100005
0.01
0.00999902
0.00999716
0.00999413
0.0099904
0.00999005
0.0099943
0.00999999
0.0100031
0.0100029
0.0100012
0.00999979
0.00999948
0.00999983
0.0100002
0.0100002
0.0100002
0.0100002
0.01
0.00999976
0.00999922
0.00999824
0.00999675
0.00999501
0.00999382
0.00999423
0.0099964
0.00999923
0.0100011
0.0100014
0.0100007
0.00999992
0.00999965
0.00999984
0.00999995
0.00999993
0.00999987
0.00999976
0.00999957
0.00999925
0.00999875
0.00999806
0.00999723
0.00999644
0.0099959
0.00999589
0.0099967
0.00999809
0.00999944
0.0100002
0.0100003
0.01
0.00999983
0.00999989
0.0099997
0.00999967
0.00999958
0.00999944
0.00999923
0.00999893
0.00999854
0.00999805
0.00999751
0.00999696
0.0099966
0.00999666
0.00999719
0.00999812
0.0099991
0.00999979
0.01
0.01
0.00999992
0.00999993
0.00999949
0.00999944
0.00999935
0.0099992
0.00999899
0.00999872
0.0099984
0.00999804
0.00999768
0.00999737
0.00999722
0.00999728
0.00999762
0.00999819
0.00999883
0.00999936
0.00999966
0.00999979
0.00999984
0.00999992
0.00999931
0.00999926
0.00999917
0.00999902
0.00999882
0.00999857
0.0099983
0.00999802
0.00999776
0.00999756
0.00999746
0.00999754
0.00999779
0.00999818
0.00999864
0.00999908
0.00999942
0.00999964
0.00999979
0.00999992
0.00999917
0.00999913
0.00999903
0.00999889
0.0099987
0.00999848
0.00999825
0.00999803
0.00999783
0.0099977
0.00999765
0.00999771
0.00999791
0.00999821
0.00999859
0.00999897
0.00999931
0.00999956
0.00999976
0.00999991
0.00999905
0.00999899
0.00999889
0.00999875
0.00999856
0.00999835
0.00999813
0.00999792
0.00999775
0.00999763
0.00999761
0.00999768
0.00999787
0.00999813
0.00999846
0.00999881
0.00999913
0.00999941
0.00999965
0.00999986
)
;

boundaryField
{
    sides
    {
        type            zeroGradient;
    }
    inlet
    {
        type            zeroGradient;
    }
    outlet
    {
        type            fixedValue;
        value           uniform 0.01;
    }
    frontAndBack
    {
        type            empty;
    }
}


// ************************************************************************* //
