/*--------------------------------*- C++ -*----------------------------------*\
  =========                 |
  \\      /  F ield         | OpenFOAM: The Open Source CFD Toolbox
   \\    /   O peration     | Website:  https://openfoam.org
    \\  /    A nd           | Version:  9
     \\/     M anipulation  |
\*---------------------------------------------------------------------------*/
FoamFile
{
    format      ascii;
    class       volVectorField;
    location    "42";
    object      hU_0;
}
// * * * * * * * * * * * * * * * * * * * * * * * * * * * * * * * * * * * * * //

dimensions      [0 2 -1 0 0 0 0];

internalField   nonuniform List<vector> 
400
(
(0.00100001 -2.20339e-08 0)
(0.00100004 -6.5005e-08 0)
(0.0010001 -1.09363e-07 0)
(0.00100022 -1.52288e-07 0)
(0.00100039 -1.87528e-07 0)
(0.00100058 -2.13428e-07 0)
(0.00100078 -2.3031e-07 0)
(0.00100098 -2.39368e-07 0)
(0.00100115 -2.33707e-07 0)
(0.0010013 -2.12149e-07 0)
(0.00100138 -1.69625e-07 0)
(0.00100137 -1.26854e-07 0)
(0.00100126 -9.55024e-08 0)
(0.00100107 -8.98303e-08 0)
(0.00100084 -9.91688e-08 0)
(0.00100062 -1.37392e-07 0)
(0.00100043 -1.57486e-07 0)
(0.00100033 -2.00491e-07 0)
(0.00100024 -1.87915e-07 0)
(0.00100031 -2.6803e-07 0)
(0.00100001 -2.10977e-08 0)
(0.00100004 -6.46554e-08 0)
(0.00100012 -1.17105e-07 0)
(0.00100024 -1.71824e-07 0)
(0.00100041 -2.12821e-07 0)
(0.00100062 -2.31911e-07 0)
(0.00100084 -2.29438e-07 0)
(0.00100106 -2.04844e-07 0)
(0.00100127 -1.47495e-07 0)
(0.00100144 -4.86416e-08 0)
(0.00100154 9.14808e-08 0)
(0.00100151 2.51643e-07 0)
(0.00100138 3.99391e-07 0)
(0.00100116 4.84943e-07 0)
(0.00100089 5.05959e-07 0)
(0.00100064 4.4638e-07 0)
(0.00100047 3.76428e-07 0)
(0.00100035 2.68759e-07 0)
(0.00100032 2.1932e-07 0)
(0.00100027 8.29598e-08 0)
(0.00100001 -4.37355e-08 0)
(0.00100004 -1.38055e-07 0)
(0.00100012 -2.50169e-07 0)
(0.00100025 -3.69968e-07 0)
(0.00100042 -4.72723e-07 0)
(0.00100064 -5.43084e-07 0)
(0.00100089 -5.79168e-07 0)
(0.00100115 -5.74369e-07 0)
(0.00100141 -5.07722e-07 0)
(0.00100161 -3.53225e-07 0)
(0.00100173 -1.13066e-07 0)
(0.00100173 1.68179e-07 0)
(0.00100156 4.169e-07 0)
(0.00100127 5.32278e-07 0)
(0.00100092 5.00626e-07 0)
(0.0010006 3.46088e-07 0)
(0.00100036 2.00234e-07 0)
(0.00100025 6.04243e-08 0)
(0.0010002 1.43058e-08 0)
(0.00100028 -1.14203e-07 0)
(0.001 -6.12531e-08 0)
(0.00100004 -1.95374e-07 0)
(0.00100012 -3.54374e-07 0)
(0.00100025 -5.26667e-07 0)
(0.00100044 -6.80247e-07 0)
(0.00100068 -7.94157e-07 0)
(0.00100099 -8.57835e-07 0)
(0.00100133 -8.56778e-07 0)
(0.00100168 -7.42704e-07 0)
(0.001002 -4.79121e-07 0)
(0.00100219 -2.82904e-08 0)
(0.00100216 4.99901e-07 0)
(0.00100189 9.54337e-07 0)
(0.00100143 1.15375e-06 0)
(0.00100094 1.05426e-06 0)
(0.00100056 7.31564e-07 0)
(0.00100039 4.20233e-07 0)
(0.00100033 1.8938e-07 0)
(0.00100039 1.24905e-07 0)
(0.00100033 3.93124e-09 0)
(0.001 -7.66739e-08 0)
(0.00100004 -2.47734e-07 0)
(0.00100011 -4.54082e-07 0)
(0.00100024 -6.89518e-07 0)
(0.00100043 -9.20202e-07 0)
(0.00100071 -1.12145e-06 0)
(0.00100108 -1.26444e-06 0)
(0.00100154 -1.30571e-06 0)
(0.00100204 -1.16259e-06 0)
(0.00100254 -7.82794e-07 0)
(0.00100287 -1.78203e-07 0)
(0.00100285 5.84757e-07 0)
(0.00100241 1.24752e-06 0)
(0.00100164 1.52506e-06 0)
(0.00100083 1.37385e-06 0)
(0.00100029 9.51191e-07 0)
(0.00100012 5.76636e-07 0)
(0.0010002 3.37503e-07 0)
(0.00100035 2.9109e-07 0)
(0.00100041 1.72816e-07 0)
(0.001 -8.88506e-08 0)
(0.00100002 -2.87865e-07 0)
(0.00100008 -5.38965e-07 0)
(0.00100019 -8.40096e-07 0)
(0.00100037 -1.17187e-06 0)
(0.00100067 -1.50708e-06 0)
(0.00100113 -1.82492e-06 0)
(0.00100176 -2.02262e-06 0)
(0.00100252 -1.90007e-06 0)
(0.00100323 -1.20498e-06 0)
(0.00100374 7.28401e-08 0)
(0.00100374 1.54505e-06 0)
(0.00100306 2.4507e-06 0)
(0.00100189 2.31673e-06 0)
(0.00100079 1.42673e-06 0)
(0.00100017 4.78417e-07 0)
(0.00100015 7.46697e-09 0)
(0.00100035 -6.77541e-08 0)
(0.00100062 8.47419e-08 0)
(0.00100053 5.52877e-08 0)
(0.000999999 -8.98285e-08 0)
(0.001 -3.05934e-07 0)
(0.00100002 -5.80866e-07 0)
(0.00100008 -9.57519e-07 0)
(0.0010002 -1.39099e-06 0)
(0.00100047 -1.92975e-06 0)
(0.00100098 -2.4587e-06 0)
(0.00100186 -3.05691e-06 0)
(0.00100318 -3.22254e-06 0)
(0.0010047 -2.88737e-06 0)
(0.0010057 -6.80226e-07 0)
(0.00100532 2.55407e-06 0)
(0.00100347 4.84058e-06 0)
(0.00100109 4.74656e-06 0)
(0.000999586 3.02292e-06 0)
(0.000999351 1.24801e-06 0)
(0.000999983 4.24829e-07 0)
(0.00100054 3.46364e-07 0)
(0.00100091 5.88698e-07 0)
(0.00100064 5.39857e-07 0)
(0.000999994 -8.29886e-08 0)
(0.000999966 -2.67437e-07 0)
(0.000999912 -5.6033e-07 0)
(0.000999876 -9.52714e-07 0)
(0.000999867 -1.57584e-06 0)
(0.00100008 -2.33084e-06 0)
(0.00100048 -3.37608e-06 0)
(0.0010015 -4.10034e-06 0)
(0.00100306 -4.36297e-06 0)
(0.00100598 -2.55137e-06 0)
(0.00100907 7.52568e-07 0)
(0.00100911 4.27318e-06 0)
(0.00100548 4.72749e-06 0)
(0.00100071 2.78861e-06 0)
(0.000998127 7.31211e-07 0)
(0.000998252 -2.87971e-07 0)
(0.000999774 -2.9161e-07 0)
(0.00100085 5.21077e-09 0)
(0.00100132 2.3362e-07 0)
(0.00100084 1.08726e-07 0)
(0.000999993 -4.35627e-08 0)
(0.000999913 -1.90987e-07 0)
(0.000999763 -3.7643e-07 0)
(0.000999533 -7.32479e-07 0)
(0.000999275 -1.3374e-06 0)
(0.000999191 -2.47232e-06 0)
(0.000999685 -4.66988e-06 0)
(0.00100137 -8.05111e-06 0)
(0.00100489 -1.3277e-05 0)
(0.00100955 -1.49119e-05 0)
(0.00101185 3.84223e-06 0)
(0.00100889 1.87341e-05 0)
(0.00100218 1.5786e-05 0)
(0.00099754 5.74414e-06 0)
(0.000996864 -3.18699e-07 0)
(0.000998438 -1.2709e-06 0)
(0.00100025 -9.69726e-08 0)
(0.00100098 6.44836e-07 0)
(0.00100106 6.69572e-07 0)
(0.00100053 2.50422e-07 0)
(0.000999802 -1.85362e-08 0)
(0.00100017 -6.38127e-08 0)
(0.000999224 -1.49376e-07 0)
(0.000999907 -2.48664e-07 0)
(0.000997508 -5.91772e-07 0)
(0.00099882 -1.12705e-06 0)
(0.000993323 -2.87554e-06 0)
(0.000997508 -5.58424e-06 0)
(0.000991641 -1.15364e-05 0)
(0.000915805 -1.27069e-05 0)
(0.000951439 2.69665e-07 0)
(0.00101018 1.4629e-05 0)
(0.000990916 1.30796e-05 0)
(0.000983951 5.13781e-06 0)
(0.000989565 1.89676e-07 0)
(0.000996257 -7.85406e-07 0)
(0.000999208 -1.10642e-07 0)
(0.000999386 2.55583e-07 0)
(0.000998632 1.88501e-07 0)
(0.00099849 -1.77291e-07 0)
(0.000999802 9.36864e-09 0)
(0.00100017 3.80514e-08 0)
(0.000999223 1.11143e-07 0)
(0.000999905 1.9777e-07 0)
(0.000997505 5.29856e-07 0)
(0.000998816 1.05202e-06 0)
(0.000993316 2.78656e-06 0)
(0.000997498 5.47527e-06 0)
(0.000991622 1.13989e-05 0)
(0.000915783 1.25485e-05 0)
(0.000951392 -4.7872e-07 0)
(0.00101016 -1.49128e-05 0)
(0.000990918 -1.34162e-05 0)
(0.000983944 -5.54452e-06 0)
(0.000989547 -6.54205e-07 0)
(0.00099622 2.47243e-07 0)
(0.000999167 -4.6953e-07 0)
(0.000999341 -1.00138e-06 0)
(0.000998617 -9.81911e-07 0)
(0.00099844 -8.81598e-07 0)
(0.000999993 3.46756e-08 0)
(0.000999914 1.66228e-07 0)
(0.000999762 3.39058e-07 0)
(0.000999531 6.82949e-07 0)
(0.000999272 1.27676e-06 0)
(0.000999189 2.39742e-06 0)
(0.00099968 4.57876e-06 0)
(0.00100137 7.93326e-06 0)
(0.00100487 1.31293e-05 0)
(0.00100954 1.47252e-05 0)
(0.00101187 -4.06039e-06 0)
(0.00100886 -1.90069e-05 0)
(0.00100211 -1.61078e-05 0)
(0.000997454 -6.13564e-06 0)
(0.000996795 -8.99581e-08 0)
(0.000998378 7.77641e-07 0)
(0.00100014 -4.22531e-07 0)
(0.00100082 -1.30879e-06 0)
(0.00100086 -1.37889e-06 0)
(0.00100035 -1.24436e-06 0)
(0.000999994 7.47454e-08 0)
(0.000999966 2.44444e-07 0)
(0.000999909 5.24155e-07 0)
(0.00099987 9.04653e-07 0)
(0.000999858 1.5141e-06 0)
(0.00100006 2.25319e-06 0)
(0.00100046 3.27551e-06 0)
(0.00100146 3.97418e-06 0)
(0.00100301 4.20648e-06 0)
(0.00100592 2.37264e-06 0)
(0.00100896 -9.69805e-07 0)
(0.00100902 -4.54322e-06 0)
(0.00100539 -5.03581e-06 0)
(0.00100064 -3.1447e-06 0)
(0.000998036 -1.13649e-06 0)
(0.000998112 -2.44985e-07 0)
(0.000999598 -3.15374e-07 0)
(0.00100062 -7.49622e-07 0)
(0.00100105 -9.72074e-07 0)
(0.00100054 -1.06768e-06 0)
(0.001 8.22862e-08 0)
(0.001 2.84604e-07 0)
(0.00100002 5.47089e-07 0)
(0.00100007 9.11713e-07 0)
(0.00100019 1.33428e-06 0)
(0.00100045 1.85947e-06 0)
(0.00100095 2.37527e-06 0)
(0.00100183 2.95438e-06 0)
(0.00100315 3.10568e-06 0)
(0.00100466 2.73691e-06 0)
(0.00100565 5.11915e-07 0)
(0.00100524 -2.75949e-06 0)
(0.00100335 -5.09773e-06 0)
(0.00100094 -5.0898e-06 0)
(0.000999385 -3.45409e-06 0)
(0.000999099 -1.78434e-06 0)
(0.000999721 -1.01269e-06 0)
(0.00100023 -1.07156e-06 0)
(0.0010006 -1.31645e-06 0)
(0.00100022 -1.50971e-06 0)
(0.001 8.24194e-08 0)
(0.00100002 2.69501e-07 0)
(0.00100008 5.09448e-07 0)
(0.00100018 7.99582e-07 0)
(0.00100035 1.12169e-06 0)
(0.00100065 1.44546e-06 0)
(0.0010011 1.75033e-06 0)
(0.00100172 1.92732e-06 0)
(0.00100245 1.776e-06 0)
(0.00100314 1.04217e-06 0)
(0.00100363 -2.72961e-07 0)
(0.0010036 -1.79517e-06 0)
(0.00100289 -2.73687e-06 0)
(0.00100168 -2.65308e-06 0)
(0.00100056 -1.78342e-06 0)
(0.000999883 -8.85231e-07 0)
(0.000999838 -4.19007e-07 0)
(0.000999963 -4.61818e-07 0)
(0.0010002 -6.28044e-07 0)
(0.000999993 -8.43261e-07 0)
(0.001 7.13584e-08 0)
(0.00100003 2.32223e-07 0)
(0.00100011 4.28983e-07 0)
(0.00100023 6.5576e-07 0)
(0.00100042 8.77704e-07 0)
(0.00100068 1.06931e-06 0)
(0.00100104 1.20046e-06 0)
(0.00100148 1.22773e-06 0)
(0.00100197 1.0665e-06 0)
(0.00100246 6.63859e-07 0)
(0.00100277 2.41631e-08 0)
(0.00100271 -7.78622e-07 0)
(0.00100225 -1.47238e-06 0)
(0.00100143 -1.79417e-06 0)
(0.0010006 -1.67292e-06 0)
(0.000999983 -1.33845e-06 0)
(0.000999776 -1.02226e-06 0)
(0.00099975 -9.53051e-07 0)
(0.00099987 -9.58974e-07 0)
(0.000999755 -1.10393e-06 0)
(0.001 5.69479e-08 0)
(0.00100004 1.82011e-07 0)
(0.00100011 3.31793e-07 0)
(0.00100024 4.96102e-07 0)
(0.00100042 6.43844e-07 0)
(0.00100065 7.51841e-07 0)
(0.00100094 8.10021e-07 0)
(0.00100127 8.01321e-07 0)
(0.0010016 6.82977e-07 0)
(0.00100188 4.11517e-07 0)
(0.00100204 -4.24567e-08 0)
(0.00100197 -5.84632e-07 0)
(0.00100168 -1.05667e-06 0)
(0.00100117 -1.29968e-06 0)
(0.00100062 -1.2333e-06 0)
(0.00100014 -9.84779e-07 0)
(0.000999898 -6.95937e-07 0)
(0.000999727 -5.72505e-07 0)
(0.000999738 -5.00812e-07 0)
(0.000999549 -5.94819e-07 0)
(0.00100001 4.11942e-08 0)
(0.00100004 1.28419e-07 0)
(0.00100011 2.29858e-07 0)
(0.00100023 3.35479e-07 0)
(0.0010004 4.21849e-07 0)
(0.00100061 4.7213e-07 0)
(0.00100085 4.85839e-07 0)
(0.0010011 4.52571e-07 0)
(0.00100135 3.53493e-07 0)
(0.00100154 1.59356e-07 0)
(0.00100164 -1.13837e-07 0)
(0.00100158 -4.30032e-07 0)
(0.00100137 -6.9974e-07 0)
(0.001001 -8.57382e-07 0)
(0.00100061 -8.53764e-07 0)
(0.0010002 -7.64508e-07 0)
(0.000999935 -6.34336e-07 0)
(0.000999678 -6.09595e-07 0)
(0.000999614 -5.73146e-07 0)
(0.000999376 -6.82633e-07 0)
(0.00100001 2.94675e-08 0)
(0.00100003 9.1884e-08 0)
(0.0010001 1.6387e-07 0)
(0.00100021 2.39248e-07 0)
(0.00100037 3.01877e-07 0)
(0.00100056 3.42574e-07 0)
(0.00100076 3.6088e-07 0)
(0.00100096 3.55278e-07 0)
(0.00100114 3.1417e-07 0)
(0.00100128 2.25273e-07 0)
(0.00100134 8.71541e-08 0)
(0.00100129 -7.5478e-08 0)
(0.00100112 -2.17634e-07 0)
(0.00100083 -3.08137e-07 0)
(0.00100051 -3.16191e-07 0)
(0.00100014 -2.78899e-07 0)
(0.000999888 -2.0129e-07 0)
(0.000999604 -1.78148e-07 0)
(0.000999503 -1.26877e-07 0)
(0.000999239 -1.97302e-07 0)
(0.00100001 -5.39312e-09 0)
(0.00100004 -1.37127e-08 0)
(0.0010001 -1.68265e-08 0)
(0.00100022 -1.65544e-08 0)
(0.00100037 -1.7939e-08 0)
(0.00100055 -2.52485e-08 0)
(0.00100074 -3.81959e-08 0)
(0.00100093 -5.78078e-08 0)
(0.00100109 -8.44598e-08 0)
(0.00100121 -1.22767e-07 0)
(0.00100126 -1.70637e-07 0)
(0.00100119 -2.34956e-07 0)
(0.00100104 -2.95788e-07 0)
(0.00100078 -3.45014e-07 0)
(0.0010005 -3.60471e-07 0)
(0.00100016 -3.66496e-07 0)
(0.000999933 -3.41534e-07 0)
(0.000999601 -3.55952e-07 0)
(0.000999509 -3.30672e-07 0)
(0.000999122 -4.10056e-07 0)
)
;

boundaryField
{
    sides
    {
        type            slip;
    }
    inlet
    {
        type            fixedValue;
        value           uniform (0.001 0 0);
    }
    outlet
    {
        type            zeroGradient;
    }
    frontAndBack
    {
        type            empty;
    }
}


// ************************************************************************* //
