/*--------------------------------*- C++ -*----------------------------------*\
  =========                 |
  \\      /  F ield         | OpenFOAM: The Open Source CFD Toolbox
   \\    /   O peration     | Website:  https://openfoam.org
    \\  /    A nd           | Version:  9
     \\/     M anipulation  |
\*---------------------------------------------------------------------------*/
FoamFile
{
    format      ascii;
    class       surfaceScalarField;
    location    "42";
    object      phi_0;
}
// * * * * * * * * * * * * * * * * * * * * * * * * * * * * * * * * * * * * * //

dimensions      [0 4 -1 0 0 0 0];

internalField   nonuniform List<scalar> 
760
(
5.00007e-06
-7.65477e-11
5.00034e-06
-2.59641e-10
5.00084e-06
-4.74983e-10
5.00157e-06
-6.97273e-10
5.00248e-06
-8.722e-10
5.00348e-06
-9.74913e-10
5.0045e-06
-1.00382e-09
5.00546e-06
-9.62001e-10
5.00627e-06
-8.07943e-10
5.00679e-06
-5.28636e-10
5.00691e-06
-1.33336e-10
5.0065e-06
4.12273e-10
5.00563e-06
8.87402e-10
5.00453e-06
1.13208e-09
5.00339e-06
1.17368e-09
5.0025e-06
9.30131e-10
5.00182e-06
7.03939e-10
5.00156e-06
2.81194e-10
5.00142e-06
1.53326e-10
-3.85641e-10
5.0001e-06
-1.77976e-10
5.0004e-06
-5.44751e-10
5.00091e-06
-9.75654e-10
5.00167e-06
-1.42894e-09
5.00263e-06
-1.80237e-09
5.00372e-06
-2.04007e-09
5.00487e-06
-2.14247e-09
5.006e-06
-2.09337e-09
5.007e-06
-1.80998e-09
5.00763e-06
-1.17503e-09
5.0076e-06
-1.12227e-10
5.0071e-06
9.09383e-10
5.0061e-06
1.90488e-09
5.00479e-06
2.46551e-09
5.00355e-06
2.45045e-09
5.00269e-06
1.82654e-09
5.00219e-06
1.23322e-09
5.00186e-06
6.3546e-10
5.00159e-06
4.35794e-10
-1.36326e-10
5.00009e-06
-2.67577e-10
5.00039e-06
-8.31532e-10
5.0009e-06
-1.48191e-09
5.00168e-06
-2.18472e-09
5.00269e-06
-2.80064e-09
5.00391e-06
-3.24394e-09
5.00526e-06
-3.48339e-09
5.00662e-06
-3.45953e-09
5.0078e-06
-3.0003e-09
5.00857e-06
-1.9737e-09
5.00879e-06
-3.30296e-10
5.00809e-06
1.59347e-09
5.00671e-06
3.30491e-09
5.005e-06
4.19656e-09
5.00338e-06
4.09103e-09
5.00223e-06
3.00199e-09
5.00162e-06
1.8663e-09
5.00142e-06
8.60732e-10
5.00135e-06
5.10243e-10
-2.06877e-10
5.00009e-06
-3.52733e-10
5.00037e-06
-1.11669e-09
5.0009e-06
-2.00164e-09
5.00171e-06
-2.98516e-09
5.00282e-06
-3.90771e-09
5.00424e-06
-4.66321e-09
5.00594e-06
-5.18377e-09
5.00784e-06
-5.37679e-09
5.0097e-06
-4.88188e-09
5.01092e-06
-3.21785e-09
5.01104e-06
-4.66103e-10
5.00984e-06
2.80036e-09
5.00749e-06
5.6496e-09
5.005e-06
6.70624e-09
5.00335e-06
5.75731e-09
5.0026e-06
3.76851e-09
5.00239e-06
2.09065e-09
5.00224e-06
1.02989e-09
5.00194e-06
8.26863e-10
3.59496e-10
5.00007e-06
-4.28167e-10
5.00032e-06
-1.36575e-09
5.0008e-06
-2.48857e-09
5.0016e-06
-3.78587e-09
5.00281e-06
-5.12786e-09
5.00452e-06
-6.37234e-09
5.00671e-06
-7.40376e-09
5.00931e-06
-7.98795e-09
5.01224e-06
-7.86129e-09
5.01463e-06
-5.60956e-09
5.01466e-06
-5.37937e-10
5.01269e-06
4.77692e-09
5.00852e-06
9.83243e-09
5.00445e-06
1.07739e-08
5.00212e-06
8.10148e-09
5.00166e-06
4.24909e-09
5.00198e-06
1.77912e-09
5.00218e-06
8.39167e-10
5.00192e-06
1.09192e-09
6.52867e-10
5.00003e-06
-4.73569e-10
5.00018e-06
-1.529e-09
5.00052e-06
-2.83372e-09
5.00118e-06
-4.4576e-09
5.00236e-06
-6.32401e-09
5.00445e-06
-8.48911e-09
5.0075e-06
-1.0488e-08
5.01155e-06
-1.20743e-08
5.01539e-06
-1.17186e-08
5.01884e-06
-9.09987e-09
5.02005e-06
-1.73628e-09
5.01584e-06
8.92934e-09
5.00936e-06
1.633e-08
5.00409e-06
1.60646e-08
5.00206e-06
1.0143e-08
5.00239e-06
3.93176e-09
5.00317e-06
1.00492e-09
5.00332e-06
6.96916e-10
5.00273e-06
1.68209e-09
1.4531e-09
4.99997e-06
-4.66465e-10
4.99994e-06
-1.51082e-09
5.00003e-06
-2.94314e-09
5.00033e-06
-4.78818e-09
5.00116e-06
-7.18266e-09
5.00283e-06
-1.02014e-08
5.0067e-06
-1.43952e-08
5.0138e-06
-1.92098e-08
5.02361e-06
-2.15494e-08
5.03073e-06
-1.63057e-08
5.02856e-06
5.14063e-10
5.01659e-06
2.09452e-08
5.00403e-06
2.88595e-08
4.9986e-06
2.14983e-08
5.00047e-06
8.29675e-09
5.00274e-06
1.6707e-09
5.00361e-06
1.35372e-10
5.00357e-06
7.31933e-10
5.00297e-06
2.29034e-09
1.71229e-09
4.99986e-06
-3.50874e-10
4.99956e-06
-1.23387e-09
4.99913e-06
-2.54412e-09
4.99883e-06
-4.5252e-09
4.99926e-06
-7.65677e-09
5.00025e-06
-1.12467e-08
5.00353e-06
-1.77178e-08
5.00971e-06
-2.54178e-08
5.02472e-06
-3.66258e-08
5.05596e-06
-4.74296e-08
5.04984e-06
6.18939e-09
5.02303e-06
4.78592e-08
4.99804e-06
5.38661e-08
4.99337e-06
2.61649e-08
4.99936e-06
2.31837e-09
5.00396e-06
-2.9221e-09
5.00479e-06
-6.88555e-10
5.00362e-06
1.90516e-09
5.00344e-06
2.48342e-09
1.00164e-09
4.99977e-06
-1.41232e-10
4.99917e-06
-6.65225e-10
4.99794e-06
-1.34799e-09
4.99609e-06
-2.72579e-09
4.99394e-06
-5.57332e-09
4.99363e-06
-1.09908e-08
4.99933e-06
-2.34645e-08
5.017e-06
-4.31243e-08
5.05557e-06
-7.51892e-08
5.06663e-06
-5.8641e-08
5.04954e-06
2.37238e-08
4.99629e-06
1.01e-07
4.98914e-06
6.09906e-08
4.99579e-06
1.95311e-08
5.00008e-06
-1.96733e-09
5.00281e-06
-5.64306e-09
5.00239e-06
-2.8028e-10
5.00174e-06
2.56713e-09
5.00247e-06
1.75315e-09
1.01253e-10
4.99986e-06
-2.23157e-11
4.99923e-06
-6.4169e-11
4.99793e-06
-9.68045e-11
4.99528e-06
-1.32633e-10
4.98981e-06
-1.65325e-10
4.97897e-06
-2.04354e-10
4.9557e-06
-2.44018e-10
4.91284e-06
-3.05978e-10
4.83799e-06
-3.90108e-10
4.77985e-06
-4.61863e-10
4.8041e-06
-6.15583e-10
4.90584e-06
-7.84946e-10
4.96765e-06
-7.74071e-10
4.98811e-06
-9.33046e-10
4.98734e-06
-1.19371e-09
4.98313e-06
-1.44014e-09
4.98442e-06
-1.54817e-09
4.9888e-06
-1.80924e-09
4.9924e-06
-1.84725e-09
-2.55119e-09
4.99986e-06
9.72101e-11
4.99923e-06
5.36069e-10
4.99793e-06
1.15845e-09
4.99527e-06
2.46659e-09
4.98979e-06
5.25389e-09
4.97894e-06
1.05931e-08
4.95566e-06
2.29846e-08
4.91278e-06
4.25254e-08
4.83788e-06
7.44511e-08
4.77959e-06
5.7857e-08
4.80403e-06
-2.5216e-08
4.90584e-06
-1.02478e-07
4.96764e-06
-6.2569e-08
4.98796e-06
-2.12505e-08
4.98725e-06
-4.83533e-10
4.98281e-06
3.00166e-09
4.98429e-06
-3.03055e-09
4.98878e-06
-6.2931e-09
4.99227e-06
-5.34195e-09
-4.95103e-09
4.99977e-06
3.0697e-10
4.99917e-06
1.11132e-09
4.99793e-06
2.35425e-09
4.99608e-06
4.27244e-09
4.99394e-06
7.33514e-09
4.99362e-06
1.08562e-08
4.99931e-06
1.72455e-08
5.01695e-06
2.48306e-08
5.05546e-06
3.59053e-08
5.06693e-06
4.64313e-08
5.04937e-06
-7.29196e-09
4.99593e-06
-4.91119e-08
4.98871e-06
-5.53156e-08
4.99559e-06
-2.81096e-08
4.99999e-06
-4.89068e-09
5.00219e-06
8.06346e-10
5.00153e-06
-2.36047e-09
5.0008e-06
-5.56874e-09
5.00161e-06
-6.15265e-09
-5.92151e-09
4.99986e-06
4.25113e-10
4.99956e-06
1.39637e-09
4.99911e-06
2.76408e-09
4.9988e-06
4.54804e-09
4.9992e-06
6.88988e-09
5.00016e-06
9.84473e-09
5.00336e-06
1.39999e-08
5.00948e-06
1.86751e-08
5.02448e-06
2.08902e-08
5.05536e-06
1.54384e-08
5.0495e-06
-1.69209e-09
5.02265e-06
-2.21929e-08
4.99772e-06
-3.04125e-08
4.99304e-06
-2.34255e-08
4.99853e-06
-1.03725e-08
5.00333e-06
-3.98673e-09
5.00361e-06
-2.63675e-09
5.00226e-06
-4.21374e-09
5.00209e-06
-5.98261e-09
-6.50721e-09
4.99997e-06
4.37471e-10
4.99992e-06
1.42808e-09
5e-06
2.6737e-09
5.00027e-06
4.24273e-09
5.00107e-06
6.06345e-09
5.0027e-06
8.16847e-09
5.00656e-06
1.00907e-08
5.01366e-06
1.15588e-08
5.02344e-06
1.10915e-08
5.03055e-06
8.2951e-09
5.02824e-06
6.55745e-10
5.01607e-06
-1.00917e-08
5.00334e-06
-1.76765e-08
4.99764e-06
-1.7715e-08
4.9993e-06
-1.20127e-08
5.00149e-06
-6.17271e-09
5.00229e-06
-3.42784e-09
5.00204e-06
-3.95848e-09
5.00112e-06
-5.06254e-09
-5.95051e-09
5.00003e-06
3.99032e-10
5.00017e-06
1.28163e-09
5.00048e-06
2.35159e-09
5.00111e-06
3.59715e-09
5.00226e-06
4.8918e-09
5.00431e-06
6.08484e-09
5.00731e-06
7.05517e-09
5.01128e-06
7.56653e-09
5.015e-06
7.35159e-09
5.01838e-06
4.91984e-09
5.01939e-06
-3.81257e-10
5.01506e-06
-5.7477e-09
5.00839e-06
-1.09906e-08
5.00298e-06
-1.22842e-08
5.00076e-06
-9.77699e-09
5.0009e-06
-6.29704e-09
5.00146e-06
-3.97228e-09
5.00123e-06
-3.72949e-09
5.00028e-06
-4.10985e-09
-4.95293e-09
5.00007e-06
3.29174e-10
5.00029e-06
1.04901e-09
5.00075e-06
1.89103e-09
5.00152e-06
2.82819e-09
5.0027e-06
3.70939e-09
5.00435e-06
4.42429e-09
5.00647e-06
4.90618e-09
5.00898e-06
5.02623e-09
5.0119e-06
4.41595e-09
5.01425e-06
2.54507e-09
5.01398e-06
-1.11538e-10
5.01193e-06
-3.68729e-09
5.00761e-06
-6.65203e-09
5.00336e-06
-8.00592e-09
5.00081e-06
-7.20893e-09
5.00003e-06
-5.5047e-09
5.00002e-06
-3.95241e-09
4.9998e-06
-3.49876e-09
4.9991e-06
-3.40985e-09
-4.15354e-09
5.00008e-06
2.45317e-10
5.00035e-06
7.77155e-10
5.00085e-06
1.39975e-09
5.00162e-06
2.0678e-09
5.00269e-06
2.64909e-09
5.00407e-06
3.04961e-09
5.00572e-06
3.2541e-09
5.00753e-06
3.19468e-09
5.0092e-06
2.71045e-09
5.01013e-06
1.59236e-09
5.01029e-06
-2.82346e-10
5.00888e-06
-2.27349e-09
5.00634e-06
-4.10318e-09
5.00352e-06
-5.16699e-09
5.00142e-06
-5.08382e-09
5.00025e-06
-4.31671e-09
4.99963e-06
-3.31954e-09
4.9991e-06
-2.95843e-09
4.99838e-06
-2.68889e-09
-3.20237e-09
5.00008e-06
1.6045e-10
5.00036e-06
5.06558e-10
5.00085e-06
9.12634e-10
5.0016e-06
1.34047e-09
5.00258e-06
1.69345e-09
5.00374e-06
1.90606e-09
5.00503e-06
1.97386e-09
5.00635e-06
1.86882e-09
5.00752e-06
1.51981e-09
5.00825e-06
8.39933e-10
5.00808e-06
-1.20148e-10
5.0072e-06
-1.39519e-09
5.00555e-06
-2.45283e-09
5.00353e-06
-3.1294e-09
5.00166e-06
-3.185e-09
5.00024e-06
-2.87116e-09
4.99925e-06
-2.31097e-09
4.99846e-06
-2.14978e-09
4.99766e-06
-1.88177e-09
-2.27052e-09
5.00006e-06
9.4584e-11
5.00031e-06
2.5873e-10
5.00078e-06
4.55906e-10
5.00148e-06
6.6567e-10
5.00237e-06
8.32652e-10
5.00338e-06
9.25608e-10
5.00443e-06
9.45822e-10
5.00541e-06
8.86653e-10
5.00621e-06
7.12583e-10
5.00668e-06
3.62491e-10
5.00669e-06
-1.39873e-10
5.00594e-06
-6.46919e-10
5.00463e-06
-1.13044e-09
5.00298e-06
-1.46372e-09
5.00135e-06
-1.51267e-09
4.99993e-06
-1.42701e-09
4.99883e-06
-1.17991e-09
4.99787e-06
-1.16218e-09
4.99701e-06
-1.00231e-09
-1.42157e-09
5.00008e-06
5.00035e-06
5.00082e-06
5.00152e-06
5.00238e-06
5.00334e-06
5.0043e-06
5.0052e-06
5.00591e-06
5.00627e-06
5.00612e-06
5.00548e-06
5.00437e-06
5.00294e-06
5.00147e-06
5.00008e-06
4.99893e-06
4.9978e-06
4.99682e-06
)
;

boundaryField
{
    sides
    {
        type            calculated;
        value           uniform 0;
    }
    inlet
    {
        type            calculated;
        value           nonuniform List<scalar> 
20
(
-5e-06
-5e-06
-5e-06
-5e-06
-5e-06
-5e-06
-5e-06
-5e-06
-5e-06
-5e-06
-5e-06
-5e-06
-5e-06
-5e-06
-5e-06
-5e-06
-5e-06
-5e-06
-5e-06
-5e-06
)
;
    }
    outlet
    {
        type            calculated;
        value           nonuniform List<scalar> 
20
(
5.00182e-06
5.00134e-06
5.00143e-06
5.00137e-06
5.00163e-06
5.00193e-06
5.00271e-06
5.00415e-06
5.00337e-06
4.99506e-06
4.99467e-06
5.00258e-06
5.00268e-06
5.00057e-06
4.99929e-06
4.9983e-06
4.99743e-06
4.99673e-06
4.99616e-06
4.9954e-06
)
;
    }
    frontAndBack
    {
        type            empty;
        value           nonuniform List<scalar> 0();
    }
}


// ************************************************************************* //
