/*--------------------------------*- C++ -*----------------------------------*\
  =========                 |
  \\      /  F ield         | OpenFOAM: The Open Source CFD Toolbox
   \\    /   O peration     | Website:  https://openfoam.org
    \\  /    A nd           | Version:  9
     \\/     M anipulation  |
\*---------------------------------------------------------------------------*/
FoamFile
{
    format      ascii;
    class       volVectorField;
    location    "17";
    object      ddt0(hU);
}
// * * * * * * * * * * * * * * * * * * * * * * * * * * * * * * * * * * * * * //

dimensions      [0 2 -2 0 0 0 0];

internalField   nonuniform List<vector> 
400
(
(-4.60084e-07 -1.83571e-07 0)
(4.82996e-08 -1.61595e-07 0)
(3.06854e-07 -1.45242e-07 0)
(-1.86705e-07 -2.12902e-07 0)
(-4.44422e-07 -1.552e-07 0)
(-3.69816e-07 -6.48804e-08 0)
(-9.20222e-08 -2.45999e-08 0)
(3.68625e-07 -3.79266e-08 0)
(7.79396e-07 -3.19497e-08 0)
(9.04978e-07 4.77094e-08 0)
(6.85461e-07 8.98721e-08 0)
(4.01615e-07 9.17295e-08 0)
(2.73447e-07 2.49532e-08 0)
(4.46121e-07 3.33149e-08 0)
(6.27881e-07 8.59056e-08 0)
(5.88674e-07 1.18299e-07 0)
(3.83858e-07 1.1521e-07 0)
(1.95617e-07 6.08718e-08 0)
(3.33225e-07 -1.61769e-08 0)
(5.91399e-07 6.84635e-09 0)
(-4.28944e-07 -4.79543e-07 0)
(-3.03544e-09 -4.5084e-07 0)
(1.55574e-07 -3.69607e-07 0)
(-1.75829e-07 -4.54324e-07 0)
(-3.11085e-07 -3.74398e-07 0)
(-2.61111e-07 -1.55739e-07 0)
(-1.53327e-08 -2.34926e-08 0)
(3.9548e-07 -3.64851e-08 0)
(7.7525e-07 -3.4267e-08 0)
(8.53512e-07 1.49218e-07 0)
(6.48508e-07 3.01448e-07 0)
(3.64154e-07 2.26635e-07 0)
(3.50495e-07 9.10312e-09 0)
(4.37503e-07 -4.47927e-08 0)
(5.19362e-07 1.46483e-07 0)
(4.62142e-07 3.16866e-07 0)
(3.23938e-07 3.72821e-07 0)
(1.78558e-07 1.09552e-07 0)
(3.3998e-07 -1.69639e-07 0)
(5.25285e-07 -9.25261e-08 0)
(-3.95143e-07 -6.3957e-07 0)
(-9.72239e-08 -6.24138e-07 0)
(1.29609e-07 -4.93705e-07 0)
(-1.38536e-07 -5.28782e-07 0)
(-2.12889e-07 -4.50753e-07 0)
(-1.0423e-07 -1.60673e-07 0)
(1.39571e-07 3.41138e-08 0)
(4.74722e-07 -3.61093e-08 0)
(7.30927e-07 -6.08804e-08 0)
(7.64289e-07 1.79951e-07 0)
(5.58549e-07 4.36462e-07 0)
(3.43807e-07 3.12718e-07 0)
(2.80099e-07 -7.58079e-08 0)
(3.7124e-07 -1.94996e-07 0)
(4.35941e-07 1.19221e-07 0)
(3.4478e-07 4.64784e-07 0)
(1.50548e-07 5.1735e-07 0)
(-9.98285e-09 2.26923e-07 0)
(1.21364e-07 -1.47773e-07 0)
(3.9905e-07 -7.23565e-08 0)
(-3.67088e-07 -6.83176e-07 0)
(-1.9676e-07 -6.60584e-07 0)
(3.0138e-08 -4.96437e-07 0)
(-4.64605e-08 -5.56643e-07 0)
(-5.93217e-08 -4.64751e-07 0)
(7.5223e-08 -1.05684e-07 0)
(2.87027e-07 8.83986e-08 0)
(5.30907e-07 -6.61349e-08 0)
(6.66598e-07 -1.33529e-07 0)
(6.47878e-07 1.5128e-07 0)
(4.69365e-07 4.48893e-07 0)
(2.86025e-07 3.19914e-07 0)
(2.03271e-07 -1.65373e-07 0)
(2.838e-07 -2.96832e-07 0)
(3.06193e-07 9.34788e-08 0)
(1.95227e-07 5.84127e-07 0)
(1.11119e-07 7.29115e-07 0)
(1.3189e-07 2.9938e-07 0)
(1.35992e-07 -2.02945e-07 0)
(1.55626e-07 -6.92734e-08 0)
(-3.32546e-07 -6.30357e-07 0)
(-3.0573e-07 -6.15776e-07 0)
(-6.8945e-08 -4.17324e-07 0)
(-2.60426e-08 -5.03028e-07 0)
(7.12763e-08 -4.21206e-07 0)
(2.67008e-07 -3.06262e-08 0)
(4.63967e-07 1.39309e-07 0)
(5.75847e-07 -5.91478e-08 0)
(5.90066e-07 -1.65481e-07 0)
(5.06561e-07 1.32418e-07 0)
(3.82332e-07 4.18838e-07 0)
(2.28167e-07 2.48076e-07 0)
(1.79636e-07 -2.45081e-07 0)
(2.25851e-07 -3.7872e-07 0)
(2.15807e-07 6.42428e-08 0)
(1.40673e-07 5.93058e-07 0)
(-3.5792e-08 8.67054e-07 0)
(-1.6177e-07 3.44915e-07 0)
(-4.17025e-08 -2.48999e-07 0)
(1.97865e-08 -1.27594e-07 0)
(-2.98515e-07 -5.04086e-07 0)
(-4.11866e-07 -5.10759e-07 0)
(-1.9694e-07 -3.34551e-07 0)
(-2.47053e-08 -4.14854e-07 0)
(1.98902e-07 -3.18645e-07 0)
(4.44039e-07 5.40436e-08 0)
(6.13141e-07 2.00986e-07 0)
(6.26326e-07 -4.00819e-08 0)
(5.15717e-07 -1.75496e-07 0)
(3.44366e-07 1.46049e-07 0)
(3.10832e-07 3.6984e-07 0)
(2.53992e-07 1.56515e-07 0)
(2.21951e-07 -3.90828e-07 0)
(1.86459e-07 -5.52937e-07 0)
(8.92573e-08 -6.70255e-08 0)
(5.57849e-08 4.5586e-07 0)
(-2.85996e-08 6.65761e-07 0)
(-6.18385e-08 2.61142e-07 0)
(-2.15931e-07 -2.55137e-07 0)
(-2.56382e-07 -9.73471e-08 0)
(-2.68674e-07 -3.42327e-07 0)
(-5.17421e-07 -3.40112e-07 0)
(-3.15518e-07 -2.22258e-07 0)
(-1.78645e-08 -2.98107e-07 0)
(3.19091e-07 -2.05243e-07 0)
(6.10047e-07 1.18411e-07 0)
(7.36009e-07 2.38112e-07 0)
(6.5451e-07 1.44097e-08 0)
(4.58373e-07 -1.07535e-07 0)
(2.53686e-07 1.3151e-07 0)
(1.65039e-07 2.54699e-07 0)
(2.4925e-07 1.27059e-07 0)
(2.10111e-07 -3.50287e-07 0)
(1.92566e-07 -5.73549e-07 0)
(9.90726e-08 -1.87168e-07 0)
(1.71999e-08 3.49896e-07 0)
(-3.33969e-08 4.85318e-07 0)
(-6.79939e-08 9.50778e-08 0)
(-1.44092e-07 -3.51848e-07 0)
(-2.29413e-07 -1.15518e-07 0)
(-2.28645e-07 -1.92201e-07 0)
(-6.04725e-07 -1.91745e-07 0)
(-4.44982e-07 -1.21307e-07 0)
(-3.16938e-08 -1.86232e-07 0)
(4.06979e-07 -1.14059e-07 0)
(7.30134e-07 1.31054e-07 0)
(8.52159e-07 2.18748e-07 0)
(7.07003e-07 4.23901e-08 0)
(3.89449e-07 -6.24502e-08 0)
(1.09445e-07 4.63747e-08 0)
(5.04276e-07 3.74823e-07 0)
(4.49284e-07 1.04096e-07 0)
(3.09728e-07 -3.66602e-07 0)
(1.28097e-07 -4.94984e-07 0)
(6.34497e-08 -1.87422e-07 0)
(-1.52637e-08 2.75381e-07 0)
(-5.24571e-09 4.39535e-07 0)
(3.38871e-08 1.0583e-07 0)
(-8.12884e-08 -2.28061e-07 0)
(-2.19961e-07 -7.26679e-08 0)
(-2.06946e-07 -9.30634e-08 0)
(-6.8686e-07 -1.07903e-07 0)
(-5.28474e-07 -6.29062e-08 0)
(-4.8983e-08 -9.77277e-08 0)
(4.58426e-07 -4.77477e-08 0)
(8.07991e-07 9.35176e-08 0)
(9.12203e-07 1.38055e-07 0)
(7.06821e-07 3.73992e-08 0)
(3.52348e-07 -1.92372e-08 0)
(1.79202e-07 9.00991e-09 0)
(-1.51805e-07 2.38082e-07 0)
(1.13931e-07 -7.42696e-09 0)
(2.83574e-07 -3.80266e-07 0)
(2.66512e-07 -5.10252e-07 0)
(1.36974e-07 -2.17943e-07 0)
(2.45122e-08 1.58088e-07 0)
(-2.48988e-09 3.19494e-07 0)
(6.04596e-08 5.2298e-08 0)
(-2.38867e-08 -9.09566e-08 0)
(-1.99103e-07 2.17921e-08 0)
(-2.01257e-07 -3.86337e-08 0)
(-7.08787e-07 -5.0775e-08 0)
(-5.60802e-07 -3.35823e-08 0)
(-5.62392e-08 -3.98526e-08 0)
(4.75312e-07 -2.6328e-08 0)
(8.56336e-07 1.92092e-08 0)
(9.46956e-07 2.70208e-08 0)
(7.04655e-07 1.69829e-08 0)
(3.29111e-07 3.94384e-08 0)
(1.45777e-07 3.8116e-08 0)
(1.11024e-07 -8.31489e-08 0)
(2.1135e-07 -4.0028e-08 0)
(3.67887e-07 -1.54489e-07 0)
(2.72674e-07 -3.09587e-07 0)
(1.1322e-07 -1.61269e-07 0)
(9.08052e-08 3.71306e-08 0)
(1.3664e-07 7.51925e-08 0)
(7.51183e-08 1.81657e-08 0)
(-7.34688e-08 7.21112e-08 0)
(-2.16782e-07 9.36847e-08 0)
(-2.02557e-07 -3.52146e-09 0)
(-7.14098e-07 -1.30493e-08 0)
(-5.5921e-07 -3.0354e-08 0)
(-5.63734e-08 -1.41067e-08 0)
(4.68117e-07 -3.78807e-08 0)
(8.58426e-07 -8.49467e-08 0)
(9.50197e-07 -8.17881e-08 0)
(7.14455e-07 -3.46639e-08 0)
(3.40361e-07 -2.43174e-08 0)
(1.17332e-07 2.61042e-08 0)
(1.83718e-08 1.17034e-07 0)
(3.04344e-07 -2.05445e-08 0)
(3.75214e-07 4.2021e-08 0)
(2.57886e-07 9.00652e-08 0)
(1.22663e-07 -4.99651e-08 0)
(9.90227e-08 -1.58146e-07 0)
(1.22555e-07 -8.30512e-08 0)
(8.16427e-08 8.86089e-08 0)
(-9.53476e-08 1.66041e-07 0)
(-2.29564e-07 8.91244e-08 0)
(-2.09344e-07 4.33231e-08 0)
(-6.84804e-07 4.65787e-08 0)
(-5.24752e-07 -8.04031e-09 0)
(-5.41253e-08 2.77013e-08 0)
(4.36305e-07 -5.86939e-09 0)
(7.93599e-07 -1.40158e-07 0)
(9.06926e-07 -1.70397e-07 0)
(7.14177e-07 -2.52507e-08 0)
(3.46731e-07 5.40554e-08 0)
(3.13641e-07 1.44293e-08 0)
(-4.02614e-07 -1.99203e-07 0)
(8.50863e-08 2.4699e-08 0)
(3.19583e-07 2.23743e-07 0)
(2.39504e-07 2.9533e-07 0)
(1.65508e-07 3.01972e-08 0)
(5.76026e-08 -2.63469e-07 0)
(1.40501e-09 -2.37241e-07 0)
(8.27733e-08 1.24197e-08 0)
(-8.09558e-08 2.57495e-07 0)
(-2.80633e-07 1.4383e-07 0)
(-2.17039e-07 1.54645e-07 0)
(-6.29131e-07 1.52498e-07 0)
(-4.54577e-07 6.49768e-08 0)
(-4.26589e-08 1.21892e-07 0)
(3.8529e-07 7.84497e-08 0)
(7.12085e-07 -1.33826e-07 0)
(8.61977e-07 -2.02345e-07 0)
(7.1886e-07 6.73778e-10 0)
(4.17052e-07 1.40645e-07 0)
(-2.83881e-08 1.64391e-08 0)
(7.50184e-07 -2.96683e-07 0)
(4.11593e-07 -5.58324e-08 0)
(2.09255e-07 2.66985e-07 0)
(1.87288e-07 3.60264e-07 0)
(1.4966e-07 2.09674e-08 0)
(7.87823e-08 -4.25583e-07 0)
(-3.25414e-08 -5.08872e-07 0)
(-5.80964e-08 -1.1076e-07 0)
(-1.18637e-07 3.42306e-07 0)
(-2.57968e-07 1.92064e-07 0)
(-2.51784e-07 3.25445e-07 0)
(-5.1549e-07 2.97228e-07 0)
(-3.42385e-07 1.72367e-07 0)
(-4.27431e-08 2.50014e-07 0)
(2.96771e-07 1.91146e-07 0)
(5.90025e-07 -9.96391e-08 0)
(7.33431e-07 -2.05393e-07 0)
(6.60131e-07 3.3504e-08 0)
(4.70258e-07 2.11583e-07 0)
(3.26415e-07 -3.57156e-08 0)
(2.31031e-07 -1.65587e-07 0)
(1.55082e-07 -1.901e-07 0)
(2.05495e-07 3.11928e-07 0)
(2.06113e-07 4.86321e-07 0)
(1.1356e-07 2.32312e-08 0)
(3.28154e-09 -5.51254e-07 0)
(-1.7097e-08 -7.01536e-07 0)
(-1.76046e-08 -1.7977e-07 0)
(-1.46407e-07 3.97654e-07 0)
(-2.13469e-07 2.15324e-07 0)
(-2.89899e-07 5.06454e-07 0)
(-4.20085e-07 4.61931e-07 0)
(-2.20154e-07 2.9035e-07 0)
(-5.01246e-08 3.88506e-07 0)
(1.70238e-07 3.15563e-07 0)
(4.1931e-07 -2.84453e-08 0)
(6.02917e-07 -1.53164e-07 0)
(6.52457e-07 1.11037e-07 0)
(5.28597e-07 2.46191e-07 0)
(3.74849e-07 -5.13739e-08 0)
(2.90452e-07 -3.97741e-07 0)
(3.09834e-07 -2.03077e-07 0)
(3.04911e-07 3.2388e-07 0)
(1.94982e-07 4.36454e-07 0)
(6.47002e-08 -5.38771e-08 0)
(-1.63461e-09 -5.91674e-07 0)
(-2.89321e-08 -7.08698e-07 0)
(-6.92324e-08 -2.39274e-07 0)
(-1.21739e-07 3.88223e-07 0)
(-1.13227e-07 2.27847e-07 0)
(-3.28749e-07 6.57326e-07 0)
(-3.12774e-07 5.96606e-07 0)
(-9.58205e-08 3.9405e-07 0)
(-7.25761e-08 5.01948e-07 0)
(3.33256e-08 4.18636e-07 0)
(2.40527e-07 6.9212e-08 0)
(4.46878e-07 -8.18169e-08 0)
(5.82147e-07 1.04362e-07 0)
(6.05689e-07 1.73575e-07 0)
(5.4118e-07 -1.17396e-07 0)
(3.82648e-07 -4.15025e-07 0)
(2.85981e-07 -2.71203e-07 0)
(2.23267e-07 1.40522e-07 0)
(2.20872e-07 2.63184e-07 0)
(1.88349e-07 -1.53488e-07 0)
(7.94264e-08 -6.35949e-07 0)
(-3.06228e-08 -7.36929e-07 0)
(-9.10754e-08 -2.26058e-07 0)
(-4.10996e-08 4.08377e-07 0)
(3.30574e-08 2.2458e-07 0)
(-3.71484e-07 7.1494e-07 0)
(-2.06112e-07 6.46882e-07 0)
(-2.33736e-09 4.53229e-07 0)
(-1.07027e-07 5.599e-07 0)
(-1.05323e-07 4.90269e-07 0)
(4.53986e-08 1.38462e-07 0)
(2.72557e-07 -3.76334e-08 0)
(4.98535e-07 7.0401e-08 0)
(6.70833e-07 1.21563e-07 0)
(6.47772e-07 -1.85453e-07 0)
(5.19979e-07 -4.919e-07 0)
(2.85169e-07 -3.35742e-07 0)
(2.54971e-07 1.1542e-07 0)
(3.37542e-07 2.07483e-07 0)
(2.97587e-07 -2.12104e-07 0)
(1.89996e-07 -6.3053e-07 0)
(8.94897e-08 -6.878e-07 0)
(6.01472e-09 -2.14902e-07 0)
(4.7686e-08 3.42005e-07 0)
(1.81898e-07 1.86088e-07 0)
(-4.06642e-07 6.38214e-07 0)
(-9.96437e-08 5.89489e-07 0)
(8.5159e-08 4.70443e-07 0)
(-1.50878e-07 5.62846e-07 0)
(-2.46307e-07 4.77558e-07 0)
(-1.44782e-07 1.66424e-07 0)
(8.27324e-08 6.51644e-09 0)
(4.2108e-07 1.07124e-07 0)
(7.07044e-07 1.22595e-07 0)
(7.86369e-07 -1.65701e-07 0)
(6.23114e-07 -4.01876e-07 0)
(4.58607e-07 -2.86782e-07 0)
(3.22339e-07 1.70383e-08 0)
(3.27236e-07 6.4548e-08 0)
(3.98123e-07 -2.28575e-07 0)
(3.52418e-07 -5.14836e-07 0)
(1.91918e-07 -5.59754e-07 0)
(4.14871e-08 -2.38799e-07 0)
(1.51361e-07 1.93441e-07 0)
(3.74953e-07 1.28289e-07 0)
(-4.28387e-07 4.3447e-07 0)
(-7.8629e-11 4.12727e-07 0)
(2.2342e-07 3.36282e-07 0)
(-2.29239e-07 3.67076e-07 0)
(-4.06933e-07 3.31116e-07 0)
(-2.9283e-07 1.43384e-07 0)
(-2.74887e-08 2.11566e-08 0)
(3.81396e-07 8.35117e-08 0)
(7.38434e-07 8.14949e-08 0)
(8.62116e-07 -1.02724e-07 0)
(7.04124e-07 -2.7898e-07 0)
(3.8997e-07 -2.44284e-07 0)
(2.83054e-07 -4.88677e-08 0)
(4.80276e-07 2.35462e-08 0)
(6.02716e-07 -1.40166e-07 0)
(4.84372e-07 -3.25894e-07 0)
(2.41156e-07 -3.62848e-07 0)
(7.46046e-08 -1.40901e-07 0)
(2.72942e-07 1.53048e-07 0)
(5.54569e-07 9.51568e-08 0)
(-4.3849e-07 1.51202e-07 0)
(4.03538e-08 1.46076e-07 0)
(1.9209e-07 1.01237e-07 0)
(-2.25306e-07 9.12448e-08 0)
(-3.96728e-07 1.1205e-07 0)
(-3.55978e-07 5.60836e-08 0)
(-1.08266e-07 6.87286e-09 0)
(3.32004e-07 9.66875e-09 0)
(7.67397e-07 5.36129e-09 0)
(9.20096e-07 -3.91473e-08 0)
(7.30202e-07 -1.15973e-07 0)
(4.652e-07 -1.15544e-07 0)
(4.07897e-07 2.69067e-08 0)
(5.17291e-07 4.9124e-08 0)
(6.46009e-07 -3.83275e-08 0)
(5.57403e-07 -1.12888e-07 0)
(3.30219e-07 -1.20449e-07 0)
(1.53871e-07 -2.57281e-08 0)
(3.24938e-07 7.82138e-08 0)
(6.16289e-07 3.85076e-08 0)
)
;

boundaryField
{
    sides
    {
        type            calculated;
        value           nonuniform List<vector> 
40
(
(-4.3849e-07 0 0)
(4.03538e-08 0 0)
(1.9209e-07 0 0)
(-2.25306e-07 0 0)
(-3.96728e-07 0 0)
(-3.55978e-07 0 0)
(-1.08266e-07 0 0)
(3.32004e-07 0 0)
(7.67397e-07 0 0)
(9.20096e-07 0 0)
(7.30202e-07 0 0)
(4.652e-07 0 0)
(4.07897e-07 0 0)
(5.17291e-07 0 0)
(6.46009e-07 0 0)
(5.57403e-07 0 0)
(3.30219e-07 0 0)
(1.53871e-07 0 0)
(3.24938e-07 0 0)
(6.16289e-07 0 0)
(-4.60084e-07 0 0)
(4.82996e-08 0 0)
(3.06854e-07 0 0)
(-1.86705e-07 0 0)
(-4.44422e-07 0 0)
(-3.69816e-07 0 0)
(-9.20222e-08 0 0)
(3.68625e-07 0 0)
(7.79396e-07 0 0)
(9.04978e-07 0 0)
(6.85461e-07 0 0)
(4.01615e-07 0 0)
(2.73447e-07 0 0)
(4.46121e-07 0 0)
(6.27881e-07 0 0)
(5.88674e-07 0 0)
(3.83858e-07 0 0)
(1.95617e-07 0 0)
(3.33225e-07 0 0)
(5.91399e-07 0 0)
)
;
    }
    inlet
    {
        type            calculated;
        value           uniform (0 0 0);
    }
    outlet
    {
        type            calculated;
        value           nonuniform List<vector> 
20
(
(5.91399e-07 6.84635e-09 0)
(5.25285e-07 -9.25261e-08 0)
(3.9905e-07 -7.23565e-08 0)
(1.55626e-07 -6.92734e-08 0)
(1.97865e-08 -1.27594e-07 0)
(-2.56382e-07 -9.73471e-08 0)
(-2.29413e-07 -1.15518e-07 0)
(-2.19961e-07 -7.26679e-08 0)
(-1.99103e-07 2.17921e-08 0)
(-2.16782e-07 9.36847e-08 0)
(-2.29564e-07 8.91244e-08 0)
(-2.80633e-07 1.4383e-07 0)
(-2.57968e-07 1.92064e-07 0)
(-2.13469e-07 2.15324e-07 0)
(-1.13227e-07 2.27847e-07 0)
(3.30574e-08 2.2458e-07 0)
(1.81898e-07 1.86088e-07 0)
(3.74953e-07 1.28289e-07 0)
(5.54569e-07 9.51568e-08 0)
(6.16289e-07 3.85076e-08 0)
)
;
    }
    frontAndBack
    {
        type            empty;
    }
}


// ************************************************************************* //
