/*--------------------------------*- C++ -*----------------------------------*\
  =========                 |
  \\      /  F ield         | OpenFOAM: The Open Source CFD Toolbox
   \\    /   O peration     | Website:  https://openfoam.org
    \\  /    A nd           | Version:  9
     \\/     M anipulation  |
\*---------------------------------------------------------------------------*/
FoamFile
{
    format      ascii;
    class       volScalarField;
    location    "17";
    object      ddt0(h);
}
// * * * * * * * * * * * * * * * * * * * * * * * * * * * * * * * * * * * * * //

dimensions      [0 1 -1 0 0 0 0];

internalField   nonuniform List<scalar> 
400
(
-7.58979e-06
-6.97874e-06
-5.46531e-06
-2.85094e-06
4.48555e-07
2.94028e-06
3.47812e-06
2.5157e-06
1.84235e-06
2.39313e-06
3.5603e-06
4.83338e-06
5.04756e-06
4.95811e-06
3.798e-06
2.55793e-06
1.69388e-06
9.33104e-07
1.73547e-07
-1.14795e-08
-6.9674e-06
-6.43148e-06
-5.49751e-06
-2.68736e-06
4.72338e-07
2.76382e-06
3.17098e-06
2.07941e-06
1.50965e-06
2.08716e-06
3.21352e-06
3.85224e-06
4.94448e-06
4.3413e-06
3.25941e-06
2.15072e-06
1.33809e-06
6.57006e-07
3.26007e-07
3.8649e-08
-5.83323e-06
-5.56218e-06
-4.33907e-06
-2.34157e-06
2.94329e-07
2.1973e-06
2.33158e-06
1.50276e-06
1.15684e-06
1.70941e-06
2.72152e-06
3.48566e-06
3.6235e-06
3.24056e-06
2.3768e-06
1.17091e-06
3.45341e-07
-2.51695e-07
-8.16249e-07
-3.42631e-07
-4.60406e-06
-4.08153e-06
-3.30911e-06
-1.70636e-06
1.29924e-07
1.3949e-06
1.43137e-06
1.09416e-06
8.85919e-07
1.32743e-06
1.76582e-06
2.29865e-06
2.02693e-06
1.61345e-06
1.02648e-06
5.80066e-07
-2.29166e-07
-2.78004e-07
-3.25056e-07
-2.3124e-07
-3.37312e-06
-2.8145e-06
-2.07581e-06
-1.27733e-06
-3.2725e-07
4.94714e-07
7.84733e-07
6.55685e-07
8.82857e-07
1.1267e-06
1.30718e-06
1.04301e-06
6.69108e-07
2.21486e-07
-4.95721e-07
-9.5611e-07
-1.12562e-06
-1.27407e-06
-6.71887e-07
-2.96766e-07
-2.12198e-06
-1.48902e-06
-1.12773e-06
-1.02073e-06
-8.16451e-07
-3.85866e-07
1.86284e-07
6.36254e-07
1.11618e-06
1.04776e-06
1.25276e-06
3.92269e-07
-5.32891e-07
-1.2872e-06
-1.85088e-06
-1.88619e-06
-1.92142e-06
-9.43137e-07
-9.44196e-07
-3.98354e-07
-9.91033e-07
-2.26605e-07
-1.72096e-07
-7.41131e-07
-1.27787e-06
-1.10368e-06
-2.80836e-07
7.946e-07
1.35768e-06
1.69015e-06
1.21574e-06
4.91065e-07
-1.13508e-06
-2.269e-06
-2.63585e-06
-2.32622e-06
-1.74082e-06
-9.10608e-07
-3.2186e-07
-5.33546e-08
-1.74692e-07
7.19959e-07
5.63471e-07
-5.49189e-07
-1.68651e-06
-1.78233e-06
-5.65247e-07
1.0202e-06
1.90082e-06
2.66874e-06
5.2221e-06
8.11531e-07
-1.14491e-06
-2.69357e-06
-3.12681e-06
-2.63104e-06
-1.18254e-06
-1.94965e-07
4.68021e-07
3.06395e-07
3.99573e-07
1.25746e-06
1.15168e-06
-4.23286e-07
-2.04276e-06
-2.27139e-06
-8.32068e-07
1.1447e-06
2.73007e-06
2.58131e-06
-9.19052e-07
5.10639e-07
-1.3606e-06
-2.89883e-06
-3.49587e-06
-2.9816e-06
-1.08939e-06
4.46842e-07
1.1759e-06
6.03413e-07
6.95761e-07
1.75041e-06
1.53108e-06
-2.81216e-07
-2.15021e-06
-2.42296e-06
-8.576e-07
1.28889e-06
2.93192e-06
3.38086e-06
2.50624e-06
7.25242e-07
-1.02882e-06
-2.92794e-06
-3.7391e-06
-2.99351e-06
-9.36577e-07
7.92649e-07
1.45912e-06
6.43565e-07
7.70372e-07
1.82237e-06
1.56281e-06
-1.64619e-07
-1.99886e-06
-2.31075e-06
-8.08895e-07
1.33905e-06
2.66346e-06
3.44863e-06
2.00196e-06
1.16727e-06
-9.55903e-07
-3.09779e-06
-3.86622e-06
-2.97401e-06
-1.15201e-06
7.11801e-07
1.36847e-06
6.39065e-07
5.88082e-07
1.55512e-06
1.31027e-06
-1.79584e-07
-1.67823e-06
-1.98647e-06
-7.58202e-07
1.15156e-06
2.40598e-06
3.11519e-06
-3.28691e-06
5.73789e-07
-1.13485e-06
-3.01313e-06
-3.74547e-06
-3.03136e-06
-1.33686e-06
3.61364e-07
9.381e-07
4.80087e-07
1.45925e-07
8.67685e-07
8.247e-07
-2.57959e-07
-1.30682e-06
-1.48548e-06
-4.68754e-07
9.86182e-07
2.01836e-06
1.46207e-06
7.17562e-06
3.18993e-07
-1.3817e-06
-2.63339e-06
-3.31761e-06
-2.91844e-06
-1.43848e-06
-1.40975e-07
3.79254e-07
2.20333e-07
-7.04639e-07
1.24449e-07
1.73948e-07
-4.10492e-07
-9.59529e-07
-8.47557e-07
-9.81828e-08
7.2805e-07
1.35421e-06
1.42174e-06
1.18335e-06
1.34736e-07
-1.03017e-06
-2.12875e-06
-2.61953e-06
-2.34224e-06
-1.53952e-06
-6.6268e-07
-1.51017e-07
-1.14063e-08
-1.82669e-06
-1.18738e-06
-7.50522e-07
-7.11503e-07
-5.94933e-07
-7.62369e-08
3.15766e-07
5.13874e-07
8.70484e-07
1.45719e-06
1.26446e-06
7.09056e-07
-1.85327e-07
-1.19021e-06
-1.71058e-06
-1.71499e-06
-1.42554e-06
-1.01064e-06
-5.63509e-07
-1.89619e-07
-3.11581e-06
-2.57721e-06
-1.78166e-06
-1.04621e-06
-1.64338e-07
6.58307e-07
8.45118e-07
7.87166e-07
9.27646e-07
1.25711e-06
1.2871e-06
1.29163e-06
6.36304e-07
6.73371e-08
-4.34075e-07
-8.89495e-07
-1.10253e-06
-1.07506e-06
-7.6088e-07
-2.91738e-07
-4.44585e-06
-3.87068e-06
-3.06418e-06
-1.46411e-06
2.08545e-07
1.43115e-06
1.87371e-06
1.26033e-06
1.06007e-06
1.29273e-06
2.21473e-06
2.07023e-06
1.92124e-06
1.46354e-06
7.84141e-07
1.66172e-07
-3.32091e-07
-6.14947e-07
-6.65015e-07
-3.05273e-07
-5.68817e-06
-5.07361e-06
-4.2665e-06
-2.0182e-06
5.47658e-07
2.26808e-06
2.61012e-06
1.9788e-06
1.33053e-06
1.86714e-06
2.6211e-06
3.49492e-06
3.43005e-06
2.91493e-06
2.06774e-06
1.21023e-06
4.51032e-07
-1.18097e-07
-4.45296e-07
-2.56338e-07
-6.71183e-06
-6.24873e-06
-4.77652e-06
-2.5224e-06
5.86697e-07
2.88402e-06
3.26189e-06
2.45595e-06
1.94422e-06
2.2931e-06
3.16202e-06
4.14775e-06
4.55284e-06
4.27655e-06
3.28243e-06
2.02793e-06
1.04487e-06
3.69311e-07
-8.12747e-08
-1.28191e-07
-7.32767e-06
-6.8644e-06
-5.54297e-06
-2.53792e-06
8.76056e-07
3.29313e-06
3.73367e-06
2.76772e-06
2.19699e-06
2.68064e-06
3.72689e-06
4.64891e-06
5.46378e-06
5.11341e-06
3.94711e-06
2.55988e-06
1.56835e-06
8.65739e-07
2.48688e-07
-2.44185e-09
)
;

boundaryField
{
    sides
    {
        type            calculated;
        value           nonuniform List<scalar> 
40
(
-7.32767e-06
-6.8644e-06
-5.54297e-06
-2.53792e-06
8.76056e-07
3.29313e-06
3.73367e-06
2.76772e-06
2.19699e-06
2.68064e-06
3.72689e-06
4.64891e-06
5.46378e-06
5.11341e-06
3.94711e-06
2.55988e-06
1.56835e-06
8.65739e-07
2.48688e-07
-2.44185e-09
-7.58979e-06
-6.97874e-06
-5.46531e-06
-2.85094e-06
4.48555e-07
2.94028e-06
3.47812e-06
2.5157e-06
1.84235e-06
2.39313e-06
3.5603e-06
4.83338e-06
5.04756e-06
4.95811e-06
3.798e-06
2.55793e-06
1.69388e-06
9.33104e-07
1.73547e-07
-1.14795e-08
)
;
    }
    inlet
    {
        type            calculated;
        value           nonuniform List<scalar> 
20
(
-7.58979e-06
-6.9674e-06
-5.83323e-06
-4.60406e-06
-3.37312e-06
-2.12198e-06
-9.91033e-07
-1.74692e-07
3.99573e-07
6.95761e-07
7.70372e-07
5.88082e-07
1.45925e-07
-7.04639e-07
-1.82669e-06
-3.11581e-06
-4.44585e-06
-5.68817e-06
-6.71183e-06
-7.32767e-06
)
;
    }
    outlet
    {
        type            calculated;
        value           uniform 0;
    }
    frontAndBack
    {
        type            empty;
    }
}


// ************************************************************************* //
