/*--------------------------------*- C++ -*----------------------------------*\
  =========                 |
  \\      /  F ield         | OpenFOAM: The Open Source CFD Toolbox
   \\    /   O peration     | Website:  https://openfoam.org
    \\  /    A nd           | Version:  9
     \\/     M anipulation  |
\*---------------------------------------------------------------------------*/
FoamFile
{
    format      ascii;
    class       volScalarField;
    location    "17";
    object      h_0;
}
// * * * * * * * * * * * * * * * * * * * * * * * * * * * * * * * * * * * * * //

dimensions      [0 1 0 0 0 0 0];

internalField   nonuniform List<scalar> 
400
(
0.0100022
0.0100013
0.0100005
0.0100001
0.01
0.0100002
0.0100005
0.0100004
0.01
0.00999954
0.00999927
0.00999932
0.00999957
0.00999998
0.0100004
0.0100006
0.0100007
0.0100006
0.0100005
0.0100002
0.0100022
0.0100014
0.0100007
0.0100003
0.0100002
0.0100003
0.0100004
0.0100003
0.00999981
0.00999931
0.00999904
0.00999905
0.00999932
0.00999973
0.0100001
0.0100004
0.0100005
0.0100005
0.0100004
0.0100001
0.0100023
0.0100016
0.010001
0.0100007
0.0100005
0.0100005
0.0100005
0.0100001
0.00999959
0.00999906
0.00999877
0.00999882
0.00999908
0.00999951
0.00999997
0.0100004
0.0100005
0.0100005
0.0100004
0.0100002
0.0100024
0.0100019
0.0100015
0.0100011
0.0100009
0.0100007
0.0100004
0.00999994
0.00999928
0.00999868
0.00999834
0.00999837
0.00999873
0.00999928
0.00999984
0.0100002
0.0100004
0.0100003
0.0100001
0.01
0.0100025
0.0100022
0.0100019
0.0100017
0.0100014
0.010001
0.0100004
0.00999973
0.00999891
0.00999818
0.00999772
0.00999772
0.00999824
0.00999907
0.00999992
0.0100004
0.0100005
0.0100003
0.0100001
0.00999999
0.0100026
0.0100025
0.0100024
0.0100023
0.0100019
0.0100013
0.0100005
0.00999951
0.00999846
0.00999753
0.00999695
0.00999692
0.00999766
0.00999887
0.00999996
0.0100005
0.0100003
0.01
0.00999979
0.00999986
0.0100027
0.0100027
0.0100029
0.0100029
0.0100025
0.0100018
0.0100008
0.00999946
0.0099978
0.009996
0.00999494
0.00999535
0.00999743
0.00999999
0.0100015
0.0100015
0.0100006
0.00999979
0.00999957
0.00999981
0.0100027
0.0100029
0.0100033
0.0100035
0.0100032
0.0100025
0.0100014
0.00999996
0.00999795
0.00999492
0.00999136
0.00999114
0.00999531
0.0100007
0.0100035
0.0100029
0.0100009
0.00999953
0.00999931
0.00999978
0.0100027
0.0100031
0.0100037
0.0100041
0.0100041
0.0100036
0.0100024
0.0100001
0.00999602
0.00999042
0.00998763
0.00999077
0.009999
0.0100043
0.0100046
0.0100022
0.00999985
0.00999896
0.00999924
0.00999983
0.0100026
0.0100031
0.0100038
0.0100045
0.010005
0.0100057
0.0100068
0.0100084
0.0100054
0.00897917
0.00895335
0.009977
0.0100099
0.0100186
0.0100107
0.0100021
0.00999834
0.00999846
0.00999955
0.0100001
0.0100025
0.010003
0.0100037
0.0100045
0.0100049
0.0100057
0.0100068
0.0100084
0.0100054
0.00897913
0.00895341
0.00997697
0.0100099
0.0100185
0.0100107
0.0100021
0.00999835
0.00999844
0.00999951
0.0100001
0.0100025
0.0100029
0.0100035
0.0100039
0.010004
0.0100034
0.0100023
0.00999996
0.0099959
0.00999029
0.00998741
0.00999065
0.00999893
0.0100043
0.0100046
0.0100021
0.00999974
0.00999888
0.0099992
0.00999982
0.0100023
0.0100026
0.010003
0.0100032
0.010003
0.0100022
0.0100012
0.00999976
0.00999778
0.00999474
0.00999122
0.00999091
0.00999514
0.0100006
0.0100033
0.0100027
0.0100007
0.00999939
0.00999924
0.00999975
0.0100022
0.0100022
0.0100024
0.0100025
0.0100021
0.0100014
0.0100005
0.00999913
0.00999745
0.00999566
0.00999452
0.00999501
0.00999714
0.00999976
0.0100013
0.0100013
0.0100004
0.00999968
0.00999949
0.00999978
0.0100019
0.0100018
0.0100018
0.0100017
0.0100014
0.0100008
0.01
0.00999907
0.00999798
0.00999708
0.00999655
0.00999657
0.00999731
0.00999855
0.0099997
0.0100003
0.0100002
0.00999993
0.00999976
0.00999986
0.0100017
0.0100014
0.0100012
0.010001
0.0100007
0.0100003
0.00999984
0.00999914
0.00999833
0.0099976
0.00999716
0.00999723
0.00999776
0.00999862
0.0099995
0.0100001
0.0100002
0.0100001
0.00999995
0.00999994
0.0100014
0.0100009
0.0100005
0.0100003
0.0100001
0.0099999
0.00999967
0.00999923
0.00999861
0.00999803
0.00999778
0.00999785
0.00999822
0.00999878
0.0099994
0.00999985
0.01
0.0100001
0.01
0.00999997
0.0100012
0.0100005
0.00999995
0.00999962
0.00999948
0.00999952
0.00999952
0.00999928
0.00999878
0.00999829
0.00999803
0.00999808
0.00999839
0.00999888
0.00999938
0.00999978
0.01
0.0100001
0.0100001
0.01
0.010001
0.0100002
0.00999947
0.00999909
0.00999902
0.00999921
0.0099994
0.00999929
0.00999889
0.00999847
0.00999823
0.00999828
0.00999861
0.00999907
0.00999952
0.00999985
0.0100001
0.0100002
0.0100002
0.0100001
0.0100008
0.0099999
0.00999914
0.00999878
0.00999871
0.00999896
0.00999924
0.00999921
0.00999885
0.00999843
0.00999822
0.00999829
0.00999858
0.00999903
0.00999946
0.00999975
0.00999995
0.0100001
0.0100001
0.01
)
;

boundaryField
{
    sides
    {
        type            zeroGradient;
    }
    inlet
    {
        type            zeroGradient;
    }
    outlet
    {
        type            fixedValue;
        value           uniform 0.01;
    }
    frontAndBack
    {
        type            empty;
    }
}


// ************************************************************************* //
