/*--------------------------------*- C++ -*----------------------------------*\
  =========                 |
  \\      /  F ield         | OpenFOAM: The Open Source CFD Toolbox
   \\    /   O peration     | Website:  https://openfoam.org
    \\  /    A nd           | Version:  9
     \\/     M anipulation  |
\*---------------------------------------------------------------------------*/
FoamFile
{
    format      ascii;
    class       volScalarField;
    location    "17";
    object      hTotal;
}
// * * * * * * * * * * * * * * * * * * * * * * * * * * * * * * * * * * * * * //

dimensions      [0 1 0 0 0 0 0];

internalField   nonuniform List<scalar> 
400
(
0.0100015
0.0100007
0.01
0.00999988
0.0100001
0.0100005
0.0100008
0.0100006
0.0100002
0.00999978
0.00999963
0.00999978
0.0100001
0.0100004
0.0100007
0.0100008
0.0100008
0.0100007
0.0100005
0.0100002
0.0100016
0.0100008
0.0100002
0.0100001
0.0100002
0.0100005
0.0100007
0.0100004
0.00999995
0.00999953
0.00999936
0.00999946
0.00999979
0.0100001
0.0100004
0.0100006
0.0100006
0.0100005
0.0100004
0.0100001
0.0100017
0.0100011
0.0100006
0.0100005
0.0100005
0.0100007
0.0100006
0.0100003
0.00999971
0.00999925
0.00999906
0.00999916
0.00999944
0.00999983
0.0100002
0.0100005
0.0100005
0.0100005
0.0100003
0.0100001
0.010002
0.0100015
0.0100011
0.010001
0.0100009
0.0100008
0.0100005
0.01
0.00999937
0.00999883
0.00999854
0.00999861
0.00999894
0.00999945
0.00999994
0.0100002
0.0100003
0.0100002
0.0100001
0.00999998
0.0100022
0.0100019
0.0100017
0.0100016
0.0100013
0.010001
0.0100005
0.00999979
0.00999901
0.0099983
0.00999786
0.00999785
0.00999831
0.0099991
0.00999989
0.0100004
0.0100004
0.0100002
0.01
0.00999997
0.0100024
0.0100023
0.0100023
0.0100022
0.0100018
0.0100013
0.0100005
0.00999958
0.00999857
0.00999766
0.00999708
0.00999698
0.00999762
0.00999876
0.00999981
0.0100003
0.0100002
0.00999994
0.00999973
0.00999984
0.0100026
0.0100027
0.0100028
0.0100028
0.0100024
0.0100017
0.0100007
0.00999955
0.00999795
0.0099962
0.00999506
0.0099954
0.00999733
0.00999979
0.0100013
0.0100013
0.0100004
0.00999972
0.00999954
0.00999981
0.0100027
0.010003
0.0100033
0.0100034
0.010003
0.0100023
0.0100013
0.0100001
0.00999817
0.0099952
0.00999146
0.0099912
0.0099952
0.0100005
0.0100032
0.0100027
0.0100008
0.00999952
0.00999934
0.0099998
0.0100028
0.0100032
0.0100037
0.010004
0.0100039
0.0100033
0.0100023
0.0100002
0.00999631
0.00999069
0.00998794
0.00999083
0.00999885
0.010004
0.0100043
0.0100019
0.00999977
0.009999
0.00999933
0.00999988
0.0100028
0.0100033
0.0100039
0.0100044
0.0100047
0.0100054
0.0100068
0.0100085
0.0100057
0.00997948
0.00995361
0.00997705
0.0100098
0.0100183
0.0100103
0.0100018
0.00999827
0.00999854
0.00999967
0.0100001
0.0100027
0.0100032
0.0100039
0.0100044
0.0100047
0.0100054
0.0100067
0.0100085
0.0100056
0.00997947
0.00995359
0.00997705
0.0100097
0.0100182
0.0100103
0.0100018
0.00999826
0.00999851
0.00999963
0.0100001
0.0100026
0.010003
0.0100036
0.0100039
0.0100037
0.0100032
0.0100022
0.0100001
0.00999616
0.00999056
0.00998767
0.00999068
0.0099988
0.010004
0.0100042
0.0100018
0.00999964
0.00999892
0.00999929
0.00999986
0.0100024
0.0100027
0.010003
0.0100031
0.0100028
0.0100021
0.0100011
0.00999988
0.00999798
0.00999494
0.00999134
0.00999097
0.009995
0.0100003
0.010003
0.0100025
0.0100006
0.00999939
0.00999927
0.00999977
0.0100021
0.0100022
0.0100024
0.0100024
0.010002
0.0100013
0.0100004
0.00999921
0.0099976
0.00999581
0.00999468
0.00999503
0.00999704
0.00999956
0.0100011
0.0100011
0.0100003
0.00999962
0.00999948
0.00999978
0.0100018
0.0100017
0.0100017
0.0100016
0.0100013
0.0100008
0.0100001
0.00999912
0.00999809
0.00999724
0.0099967
0.00999664
0.0099973
0.00999846
0.00999956
0.0100001
0.0100001
0.00999985
0.00999971
0.00999984
0.0100014
0.0100011
0.010001
0.0100009
0.0100007
0.0100004
0.00999989
0.00999921
0.00999843
0.00999774
0.0099973
0.00999737
0.00999784
0.00999864
0.00999947
0.01
0.0100001
0.01
0.00999988
0.00999991
0.010001
0.0100006
0.0100002
0.0100001
0.0100001
0.01
0.00999981
0.00999933
0.00999871
0.00999819
0.00999801
0.00999807
0.00999842
0.00999894
0.00999949
0.00999987
0.01
0.01
0.00999995
0.00999994
0.0100006
0.01
0.00999956
0.00999945
0.00999955
0.00999971
0.00999973
0.00999943
0.00999891
0.00999849
0.00999831
0.00999843
0.00999874
0.00999917
0.00999959
0.00999989
0.01
0.0100001
0.01
0.00999999
0.0100003
0.00999957
0.00999904
0.00999891
0.00999911
0.00999947
0.00999966
0.00999949
0.00999907
0.0099987
0.00999856
0.00999871
0.00999906
0.00999947
0.00999982
0.01
0.0100002
0.0100002
0.0100002
0.01
0.0100001
0.00999926
0.00999866
0.00999859
0.00999884
0.00999927
0.00999955
0.00999943
0.00999905
0.0099987
0.00999859
0.00999875
0.00999911
0.00999951
0.00999982
0.01
0.0100001
0.0100001
0.0100001
0.01
)
;

boundaryField
{
    sides
    {
        type            calculated;
        value           nonuniform List<scalar> 
40
(
0.0100001
0.00999926
0.00999866
0.00999859
0.00999884
0.00999927
0.00999955
0.00999943
0.00999905
0.0099987
0.00999859
0.00999875
0.00999911
0.00999951
0.00999982
0.01
0.0100001
0.0100001
0.0100001
0.01
0.0100015
0.0100007
0.01
0.00999988
0.0100001
0.0100005
0.0100008
0.0100006
0.0100002
0.00999978
0.00999963
0.00999978
0.0100001
0.0100004
0.0100007
0.0100008
0.0100008
0.0100007
0.0100005
0.0100002
)
;
    }
    inlet
    {
        type            calculated;
        value           nonuniform List<scalar> 
20
(
0.0100015
0.0100016
0.0100017
0.010002
0.0100022
0.0100024
0.0100026
0.0100027
0.0100028
0.0100028
0.0100027
0.0100026
0.0100024
0.0100021
0.0100018
0.0100014
0.010001
0.0100006
0.0100003
0.0100001
)
;
    }
    outlet
    {
        type            calculated;
        value           uniform 0.01;
    }
    frontAndBack
    {
        type            empty;
    }
}


// ************************************************************************* //
