/*--------------------------------*- C++ -*----------------------------------*\
  =========                 |
  \\      /  F ield         | OpenFOAM: The Open Source CFD Toolbox
   \\    /   O peration     | Website:  https://openfoam.org
    \\  /    A nd           | Version:  9
     \\/     M anipulation  |
\*---------------------------------------------------------------------------*/
FoamFile
{
    format      ascii;
    class       volVectorField;
    location    "17";
    object      hU;
}
// * * * * * * * * * * * * * * * * * * * * * * * * * * * * * * * * * * * * * //

dimensions      [0 2 -1 0 0 0 0];

internalField   nonuniform List<vector> 
400
(
(0.000999978 -7.92251e-09 0)
(0.00100053 -2.12206e-09 0)
(0.00100069 -5.18727e-08 0)
(0.0010008 -1.16803e-07 0)
(0.00100098 -1.72856e-07 0)
(0.00100112 -2.31197e-07 0)
(0.00100127 -2.81735e-07 0)
(0.00100148 -2.91622e-07 0)
(0.00100166 -2.51338e-07 0)
(0.00100171 -2.11628e-07 0)
(0.00100164 -2.11096e-07 0)
(0.00100154 -2.16032e-07 0)
(0.00100141 -1.8688e-07 0)
(0.00100119 -1.47196e-07 0)
(0.00100081 -1.13994e-07 0)
(0.00100046 -1.38249e-07 0)
(0.00100019 -1.66352e-07 0)
(0.00100016 -2.41938e-07 0)
(0.0010002 -2.10274e-07 0)
(0.00100025 -2.629e-07 0)
(0.000999979 2.24851e-08 0)
(0.00100052 1.18843e-07 0)
(0.00100069 3.81032e-08 0)
(0.00100081 -9.74634e-08 0)
(0.00100099 -1.98054e-07 0)
(0.00100114 -2.94304e-07 0)
(0.00100132 -3.75097e-07 0)
(0.00100155 -3.51989e-07 0)
(0.00100176 -2.07365e-07 0)
(0.00100182 -5.89586e-08 0)
(0.00100178 -6.72474e-09 0)
(0.00100169 1.45684e-10 0)
(0.00100153 9.703e-08 0)
(0.00100124 2.9539e-07 0)
(0.00100086 4.43456e-07 0)
(0.0010005 4.049e-07 0)
(0.00100026 2.41725e-07 0)
(0.00100019 3.55474e-08 0)
(0.00100026 8.07716e-08 0)
(0.0010002 8.69367e-08 0)
(0.000999979 2.56871e-08 0)
(0.00100046 1.42935e-07 0)
(0.00100063 -7.20625e-09 0)
(0.00100076 -2.49316e-07 0)
(0.00100097 -4.46873e-07 0)
(0.00100116 -6.3288e-07 0)
(0.00100136 -7.87523e-07 0)
(0.00100161 -7.77522e-07 0)
(0.00100185 -5.73559e-07 0)
(0.00100197 -3.48425e-07 0)
(0.00100196 -2.431e-07 0)
(0.00100186 -2.08994e-07 0)
(0.00100167 -5.00225e-08 0)
(0.00100134 2.46347e-07 0)
(0.00100087 4.11318e-07 0)
(0.00100043 2.98793e-07 0)
(0.00100014 4.72092e-08 0)
(0.00100013 -2.30345e-07 0)
(0.00100019 -1.41276e-07 0)
(0.00100027 -8.54351e-08 0)
(0.000999977 2.42818e-08 0)
(0.00100039 1.47396e-07 0)
(0.00100057 -4.26411e-08 0)
(0.00100072 -3.53655e-07 0)
(0.00100094 -6.2434e-07 0)
(0.00100118 -8.81406e-07 0)
(0.00100145 -1.09008e-06 0)
(0.00100177 -1.081e-06 0)
(0.00100208 -7.93489e-07 0)
(0.00100231 -4.39676e-07 0)
(0.00100237 -1.8176e-07 0)
(0.00100225 4.5607e-08 0)
(0.00100195 3.98709e-07 0)
(0.00100145 8.11657e-07 0)
(0.00100089 9.56487e-07 0)
(0.00100047 6.87807e-07 0)
(0.00100027 2.32991e-07 0)
(0.00100023 -1.73602e-07 0)
(0.00100033 -5.8638e-08 0)
(0.00100027 4.68666e-08 0)
(0.000999973 1.77663e-08 0)
(0.00100031 1.18627e-07 0)
(0.00100049 -1.1647e-07 0)
(0.00100064 -5.00538e-07 0)
(0.00100088 -8.50376e-07 0)
(0.00100119 -1.19807e-06 0)
(0.00100153 -1.49378e-06 0)
(0.00100194 -1.52333e-06 0)
(0.00100239 -1.19361e-06 0)
(0.00100279 -7.19598e-07 0)
(0.00100301 -3.08298e-07 0)
(0.0010029 1.22251e-07 0)
(0.00100241 6.70197e-07 0)
(0.00100162 1.16891e-06 0)
(0.00100077 1.27998e-06 0)
(0.00100017 9.21643e-07 0)
(0.001 3.91018e-07 0)
(0.00100015 -5.28316e-08 0)
(0.00100034 9.29366e-08 0)
(0.00100041 2.25416e-07 0)
(0.000999967 9.23939e-09 0)
(0.00100021 6.83741e-08 0)
(0.00100037 -2.03285e-07 0)
(0.00100051 -6.43518e-07 0)
(0.00100076 -1.0863e-06 0)
(0.00100113 -1.56014e-06 0)
(0.00100158 -2.02568e-06 0)
(0.00100215 -2.20794e-06 0)
(0.00100282 -1.8887e-06 0)
(0.00100345 -1.09538e-06 0)
(0.00100386 -2.30232e-08 0)
(0.00100376 1.09139e-06 0)
(0.001003 1.88233e-06 0)
(0.0010018 2.00135e-06 0)
(0.00100072 1.38548e-06 0)
(0.00100015 5.03012e-07 0)
(0.00100014 -1.11274e-07 0)
(0.00100031 -3.88624e-07 0)
(0.00100056 -6.19617e-08 0)
(0.0010005 1.07402e-07 0)
(0.000999959 2.95884e-09 0)
(0.00100011 1.05855e-08 0)
(0.00100022 -2.73206e-07 0)
(0.00100032 -7.65796e-07 0)
(0.00100055 -1.29416e-06 0)
(0.00100091 -1.95336e-06 0)
(0.00100143 -2.60696e-06 0)
(0.00100223 -3.18978e-06 0)
(0.00100346 -3.18999e-06 0)
(0.00100488 -2.76182e-06 0)
(0.00100577 -7.22644e-07 0)
(0.0010053 2.21553e-06 0)
(0.00100339 4.37381e-06 0)
(0.001001 4.48338e-06 0)
(0.000999519 3.02221e-06 0)
(0.000999339 1.31388e-06 0)
(0.00100002 3.32221e-07 0)
(0.00100057 7.1542e-08 0)
(0.00100087 4.71504e-07 0)
(0.00100061 5.93501e-07 0)
(0.000999948 -6.82536e-09 0)
(0.00100001 -1.99035e-08 0)
(0.00100004 -3.11246e-07 0)
(0.00100006 -7.86547e-07 0)
(0.00100017 -1.47768e-06 0)
(0.00100051 -2.32571e-06 0)
(0.00100093 -3.47078e-06 0)
(0.00100185 -4.17923e-06 0)
(0.00100329 -4.31223e-06 0)
(0.00100616 -2.44012e-06 0)
(0.00100918 7.33991e-07 0)
(0.00100908 3.99715e-06 0)
(0.00100531 4.37563e-06 0)
(0.00100055 2.60157e-06 0)
(0.000998077 7.42536e-07 0)
(0.000998304 -2.02749e-07 0)
(0.000999893 -3.04609e-07 0)
(0.00100092 -1.53765e-07 0)
(0.00100126 1.79352e-07 0)
(0.0010008 1.56304e-07 0)
(0.00099994 1.08065e-08 0)
(0.000999911 -2.21033e-08 0)
(0.000999838 -1.98777e-07 0)
(0.000999679 -6.02202e-07 0)
(0.000999553 -1.24932e-06 0)
(0.00099961 -2.4456e-06 0)
(0.00100013 -4.70489e-06 0)
(0.00100172 -8.07767e-06 0)
(0.00100512 -1.32314e-05 0)
(0.00100969 -1.48358e-05 0)
(0.00101191 3.82237e-06 0)
(0.00100884 1.85327e-05 0)
(0.00100205 1.55137e-05 0)
(0.000997389 5.60619e-06 0)
(0.00099681 -3.03089e-07 0)
(0.000998512 -1.21187e-06 0)
(0.00100041 -1.17342e-07 0)
(0.00100108 5.54605e-07 0)
(0.001001 6.63085e-07 0)
(0.00100048 2.68627e-07 0)
(0.000999746 9.29464e-09 0)
(0.00100014 1.87156e-08 0)
(0.000999265 -5.27354e-08 0)
(0.00100002 -1.60714e-07 0)
(0.000997768 -5.14268e-07 0)
(0.000999238 -1.07682e-06 0)
(0.000993764 -2.84868e-06 0)
(0.000997855 -5.5593e-06 0)
(0.000991876 -1.15233e-05 0)
(0.000915939 -1.26998e-05 0)
(0.000951519 2.50416e-07 0)
(0.00101012 1.45623e-05 0)
(0.000990727 1.2952e-05 0)
(0.000983745 5.07074e-06 0)
(0.000989508 2.2288e-07 0)
(0.000996396 -7.26776e-07 0)
(0.00099941 -7.66872e-08 0)
(0.000999477 2.93161e-07 0)
(0.000998595 2.45104e-07 0)
(0.000998457 -1.78582e-07 0)
(0.000999746 3.50148e-09 0)
(0.00100014 2.00018e-08 0)
(0.000999264 1.11068e-07 0)
(0.00100002 2.31973e-07 0)
(0.000997764 5.87439e-07 0)
(0.000999231 1.12373e-06 0)
(0.000993753 2.85612e-06 0)
(0.000997838 5.51235e-06 0)
(0.000991852 1.13961e-05 0)
(0.000915906 1.25224e-05 0)
(0.000951468 -5.2289e-07 0)
(0.00101012 -1.49393e-05 0)
(0.000990738 -1.33822e-05 0)
(0.000983744 -5.52578e-06 0)
(0.000989492 -6.60438e-07 0)
(0.000996357 3.04127e-07 0)
(0.000999363 -3.5207e-07 0)
(0.000999425 -8.85612e-07 0)
(0.000998573 -9.24296e-07 0)
(0.000998405 -9.12575e-07 0)
(0.000999941 -1.93106e-09 0)
(0.000999907 5.38348e-08 0)
(0.000999831 2.49425e-07 0)
(0.00099967 6.65099e-07 0)
(0.000999539 1.31291e-06 0)
(0.000999598 2.48797e-06 0)
(0.00100012 4.71269e-06 0)
(0.00100172 8.03106e-06 0)
(0.00100511 1.31143e-05 0)
(0.00100971 1.46192e-05 0)
(0.0010119 -4.11506e-06 0)
(0.0010088 -1.89031e-05 0)
(0.00100195 -1.59284e-05 0)
(0.000997278 -6.03301e-06 0)
(0.00099673 -8.91585e-08 0)
(0.00099845 8.08281e-07 0)
(0.00100031 -2.9801e-07 0)
(0.00100094 -1.12118e-06 0)
(0.00100081 -1.28284e-06 0)
(0.00100031 -1.29925e-06 0)
(0.000999949 1.13197e-08 0)
(0.001 4.52949e-08 0)
(0.00100003 3.54867e-07 0)
(0.00100005 8.42169e-07 0)
(0.00100015 1.53368e-06 0)
(0.00100048 2.3675e-06 0)
(0.0010009 3.47506e-06 0)
(0.0010018 4.13302e-06 0)
(0.00100323 4.19398e-06 0)
(0.00100607 2.2469e-06 0)
(0.00100909 -1.00933e-06 0)
(0.00100899 -4.36314e-06 0)
(0.00100523 -4.7608e-06 0)
(0.00100046 -2.96976e-06 0)
(0.000997954 -1.09593e-06 0)
(0.000998127 -1.90282e-07 0)
(0.00099969 -1.19466e-07 0)
(0.00100071 -4.23269e-07 0)
(0.00100103 -8.04191e-07 0)
(0.00100051 -1.13631e-06 0)
(0.000999962 -3.86111e-09 0)
(0.0010001 5.0662e-09 0)
(0.0010002 3.09215e-07 0)
(0.0010003 8.13388e-07 0)
(0.00100052 1.34302e-06 0)
(0.00100088 1.9893e-06 0)
(0.00100138 2.61573e-06 0)
(0.00100219 3.15572e-06 0)
(0.00100343 3.11256e-06 0)
(0.00100485 2.62149e-06 0)
(0.00100572 5.24126e-07 0)
(0.00100519 -2.48627e-06 0)
(0.00100325 -4.68923e-06 0)
(0.00100081 -4.83411e-06 0)
(0.000999304 -3.38728e-06 0)
(0.000999101 -1.7096e-06 0)
(0.000999783 -7.59714e-07 0)
(0.00100026 -6.51843e-07 0)
(0.00100056 -1.10454e-06 0)
(0.00100021 -1.59002e-06 0)
(0.00099997 -1.37353e-08 0)
(0.0010002 -6.37286e-08 0)
(0.00100034 2.30061e-07 0)
(0.00100048 6.83562e-07 0)
(0.00100073 1.12792e-06 0)
(0.00100109 1.59152e-06 0)
(0.00100154 2.03738e-06 0)
(0.0010021 2.18322e-06 0)
(0.00100275 1.8096e-06 0)
(0.00100336 9.36345e-07 0)
(0.00100374 -2.15308e-07 0)
(0.00100361 -1.39695e-06 0)
(0.00100282 -2.22615e-06 0)
(0.00100156 -2.34807e-06 0)
(0.00100045 -1.69472e-06 0)
(0.000999825 -8.06806e-07 0)
(0.000999813 -1.84692e-07 0)
(0.000999943 -4.02258e-08 0)
(0.00100018 -3.94771e-07 0)
(0.000999998 -9.19822e-07 0)
(0.000999976 -2.35493e-08 0)
(0.00100029 -1.18623e-07 0)
(0.00100045 1.35371e-07 0)
(0.0010006 5.33273e-07 0)
(0.00100085 8.84746e-07 0)
(0.00100115 1.22942e-06 0)
(0.00100148 1.51142e-06 0)
(0.00100188 1.50847e-06 0)
(0.00100232 1.12906e-06 0)
(0.00100272 5.97836e-07 0)
(0.0010029 1.27381e-07 0)
(0.00100274 -3.78041e-07 0)
(0.0010022 -9.59514e-07 0)
(0.00100137 -1.4681e-06 0)
(0.00100049 -1.56846e-06 0)
(0.00099986 -1.24763e-06 0)
(0.000999679 -7.55609e-07 0)
(0.000999713 -4.87194e-07 0)
(0.000999892 -7.09394e-07 0)
(0.000999776 -1.18341e-06 0)
(0.000999979 -2.94995e-08 0)
(0.00100037 -1.51426e-07 0)
(0.00100054 5.80078e-08 0)
(0.00100068 3.87491e-07 0)
(0.00100091 6.59235e-07 0)
(0.00100114 9.09252e-07 0)
(0.0010014 1.11121e-06 0)
(0.0010017 1.08378e-06 0)
(0.001002 7.74898e-07 0)
(0.00100219 3.86308e-07 0)
(0.00100219 8.38366e-08 0)
(0.00100203 -1.63534e-07 0)
(0.0010017 -5.32587e-07 0)
(0.00100114 -9.71445e-07 0)
(0.00100051 -1.11662e-06 0)
(0.00099999 -8.65305e-07 0)
(0.000999759 -4.05201e-07 0)
(0.000999636 -1.09242e-07 0)
(0.000999731 -2.48484e-07 0)
(0.000999547 -6.49498e-07 0)
(0.000999981 -3.00158e-08 0)
(0.00100044 -1.48029e-07 0)
(0.0010006 3.95795e-09 0)
(0.00100073 2.39247e-07 0)
(0.00100093 4.30185e-07 0)
(0.00100112 6.02425e-07 0)
(0.00100132 7.36575e-07 0)
(0.00100157 6.92886e-07 0)
(0.0010018 4.38278e-07 0)
(0.00100189 1.48391e-07 0)
(0.00100185 -1.1194e-09 0)
(0.00100168 -7.71525e-08 0)
(0.00100141 -2.72861e-07 0)
(0.001001 -5.85551e-07 0)
(0.00100052 -7.47561e-07 0)
(0.00100003 -6.68148e-07 0)
(0.000999746 -4.23961e-07 0)
(0.000999556 -2.71295e-07 0)
(0.000999619 -3.76093e-07 0)
(0.000999377 -7.18436e-07 0)
(0.000999982 -2.26203e-08 0)
(0.00100048 -9.55482e-08 0)
(0.00100063 1.85466e-08 0)
(0.00100074 1.83245e-07 0)
(0.00100094 3.1558e-07 0)
(0.00100109 4.35578e-07 0)
(0.00100124 5.31107e-07 0)
(0.00100144 5.19387e-07 0)
(0.00100162 3.78669e-07 0)
(0.00100166 2.28223e-07 0)
(0.00100157 1.69633e-07 0)
(0.00100141 1.47876e-07 0)
(0.00100122 6.87125e-08 0)
(0.00100088 -1.10822e-07 0)
(0.00100042 -2.31579e-07 0)
(0.00099994 -2.07825e-07 0)
(0.000999655 -5.32305e-08 0)
(0.000999462 5.77934e-08 0)
(0.000999525 8.9706e-09 0)
(0.000999238 -2.25934e-07 0)
(0.000999985 -2.66873e-08 0)
(0.00100053 -8.23524e-08 0)
(0.00100067 -6.25062e-08 0)
(0.00100078 -2.27975e-08 0)
(0.00100096 -1.20984e-09 0)
(0.00100109 1.3322e-08 0)
(0.00100123 2.41071e-08 0)
(0.00100143 3.81215e-09 0)
(0.0010016 -4.90129e-08 0)
(0.00100161 -1.05829e-07 0)
(0.0010015 -1.32259e-07 0)
(0.00100134 -1.38458e-07 0)
(0.00100116 -1.73706e-07 0)
(0.00100083 -2.65621e-07 0)
(0.00100043 -3.21587e-07 0)
(0.00099996 -3.25021e-07 0)
(0.000999694 -2.66522e-07 0)
(0.000999439 -2.46804e-07 0)
(0.000999509 -2.64528e-07 0)
(0.000999106 -4.06878e-07 0)
)
;

boundaryField
{
    sides
    {
        type            slip;
    }
    inlet
    {
        type            fixedValue;
        value           uniform (0.001 0 0);
    }
    outlet
    {
        type            zeroGradient;
    }
    frontAndBack
    {
        type            empty;
    }
}


// ************************************************************************* //
