/*--------------------------------*- C++ -*----------------------------------*\
  =========                 |
  \\      /  F ield         | OpenFOAM: The Open Source CFD Toolbox
   \\    /   O peration     | Website:  https://openfoam.org
    \\  /    A nd           | Version:  9
     \\/     M anipulation  |
\*---------------------------------------------------------------------------*/
FoamFile
{
    format      ascii;
    class       volVectorField;
    location    "17";
    object      hU_0;
}
// * * * * * * * * * * * * * * * * * * * * * * * * * * * * * * * * * * * * * //

dimensions      [0 2 -1 0 0 0 0];

internalField   nonuniform List<vector> 
400
(
(0.00100002 1.08599e-08 0)
(0.00100054 1.70896e-08 0)
(0.00100068 -3.69609e-08 0)
(0.00100083 -9.66315e-08 0)
(0.00100104 -1.57491e-07 0)
(0.00100117 -2.25157e-07 0)
(0.00100128 -2.80789e-07 0)
(0.00100144 -2.89858e-07 0)
(0.00100159 -2.49179e-07 0)
(0.00100163 -2.16783e-07 0)
(0.00100158 -2.22048e-07 0)
(0.0010015 -2.28457e-07 0)
(0.00100139 -1.91293e-07 0)
(0.00100114 -1.52596e-07 0)
(0.00100074 -1.23811e-07 0)
(0.00100039 -1.51707e-07 0)
(0.00100014 -1.79404e-07 0)
(0.00100013 -2.50491e-07 0)
(0.00100016 -2.08905e-07 0)
(0.0010002 -2.63093e-07 0)
(0.00100002 7.25315e-08 0)
(0.00100053 1.71435e-07 0)
(0.00100068 7.98985e-08 0)
(0.00100084 -5.1906e-08 0)
(0.00100104 -1.61458e-07 0)
(0.00100118 -2.81094e-07 0)
(0.00100132 -3.77634e-07 0)
(0.00100152 -3.52582e-07 0)
(0.00100169 -2.05912e-07 0)
(0.00100174 -7.44606e-08 0)
(0.00100172 -3.99833e-08 0)
(0.00100165 -3.04691e-08 0)
(0.0010015 8.70676e-08 0)
(0.00100119 2.9262e-07 0)
(0.0010008 4.2489e-07 0)
(0.00100045 3.68279e-07 0)
(0.00100022 1.96959e-07 0)
(0.00100016 1.58741e-08 0)
(0.00100023 9.12954e-08 0)
(0.00100015 9.48002e-08 0)
(0.00100002 9.32259e-08 0)
(0.00100047 2.17195e-07 0)
(0.00100063 5.12523e-08 0)
(0.00100079 -1.93164e-07 0)
(0.00100101 -4.0293e-07 0)
(0.00100118 -6.21518e-07 0)
(0.00100135 -7.97731e-07 0)
(0.00100157 -7.7853e-07 0)
(0.00100178 -5.68913e-07 0)
(0.0010019 -3.67041e-07 0)
(0.00100191 -2.91518e-07 0)
(0.00100183 -2.50842e-07 0)
(0.00100164 -5.85295e-08 0)
(0.0010013 2.53422e-07 0)
(0.00100082 3.91958e-07 0)
(0.00100038 2.47001e-07 0)
(0.00100012 -1.36725e-08 0)
(0.00100012 -2.61919e-07 0)
(0.00100018 -1.31588e-07 0)
(0.00100024 -7.86006e-08 0)
(0.00100001 9.66214e-08 0)
(0.00100042 2.28034e-07 0)
(0.00100058 1.77281e-08 0)
(0.00100074 -2.94449e-07 0)
(0.00100096 -5.80111e-07 0)
(0.00100118 -8.76266e-07 0)
(0.00100143 -1.1053e-06 0)
(0.00100172 -1.07922e-06 0)
(0.00100202 -7.8013e-07 0)
(0.00100224 -4.54455e-07 0)
(0.00100232 -2.32112e-07 0)
(0.00100222 1.8471e-10 0)
(0.00100193 3.96938e-07 0)
(0.00100142 8.27426e-07 0)
(0.00100085 9.3791e-07 0)
(0.00100044 6.23028e-07 0)
(0.00100026 1.51949e-07 0)
(0.00100022 -2.13628e-07 0)
(0.00100031 -4.06354e-08 0)
(0.00100026 5.55199e-08 0)
(0.001 8.57106e-08 0)
(0.00100034 1.94501e-07 0)
(0.0010005 -6.34603e-08 0)
(0.00100065 -4.48008e-07 0)
(0.00100089 -8.11884e-07 0)
(0.00100117 -1.20034e-06 0)
(0.00100149 -1.51317e-06 0)
(0.00100189 -1.52068e-06 0)
(0.00100234 -1.17541e-06 0)
(0.00100274 -7.30349e-07 0)
(0.00100297 -3.52117e-07 0)
(0.00100287 8.49937e-08 0)
(0.00100238 6.77581e-07 0)
(0.00100159 1.19331e-06 0)
(0.00100074 1.26524e-06 0)
(0.00100015 8.55532e-07 0)
(0.000999999 2.97895e-07 0)
(0.00100016 -9.54055e-08 0)
(0.00100035 1.12915e-07 0)
(0.00100041 2.38437e-07 0)
(0.000999994 6.56716e-08 0)
(0.00100026 1.33234e-07 0)
(0.00100039 -1.59822e-07 0)
(0.00100052 -6.00596e-07 0)
(0.00100075 -1.05776e-06 0)
(0.00100109 -1.57012e-06 0)
(0.00100153 -2.0502e-06 0)
(0.00100209 -2.20491e-06 0)
(0.00100277 -1.8683e-06 0)
(0.00100341 -1.10314e-06 0)
(0.00100383 -6.0409e-08 0)
(0.00100373 1.06826e-06 0)
(0.00100297 1.9085e-06 0)
(0.00100177 2.04541e-06 0)
(0.00100071 1.38705e-06 0)
(0.00100014 4.54278e-07 0)
(0.00100014 -1.8105e-07 0)
(0.00100032 -4.1825e-07 0)
(0.00100058 -3.72507e-08 0)
(0.00100053 1.19371e-07 0)
(0.000999982 4.3269e-08 0)
(0.00100016 5.70176e-08 0)
(0.00100026 -2.4208e-07 0)
(0.00100033 -7.34641e-07 0)
(0.00100052 -1.27641e-06 0)
(0.00100086 -1.96888e-06 0)
(0.00100136 -2.63361e-06 0)
(0.00100217 -3.19092e-06 0)
(0.00100342 -3.17446e-06 0)
(0.00100484 -2.76468e-06 0)
(0.00100575 -7.4838e-07 0)
(0.00100527 2.20006e-06 0)
(0.00100335 4.40158e-06 0)
(0.00100097 4.53377e-06 0)
(0.000999505 3.03869e-06 0)
(0.000999338 1.27879e-06 0)
(0.00100002 2.84366e-07 0)
(0.00100058 6.05921e-08 0)
(0.00100089 5.0982e-07 0)
(0.00100063 6.09403e-07 0)
(0.000999966 1.76117e-08 0)
(0.00100007 8.65513e-09 0)
(0.00100008 -2.91906e-07 0)
(0.00100007 -7.66794e-07 0)
(0.00100014 -1.46849e-06 0)
(0.00100045 -2.34193e-06 0)
(0.00100086 -3.49459e-06 0)
(0.00100179 -4.18266e-06 0)
(0.00100326 -4.29948e-06 0)
(0.00100614 -2.43915e-06 0)
(0.00100916 7.07813e-07 0)
(0.00100903 3.98415e-06 0)
(0.00100526 4.40614e-06 0)
(0.00100053 2.64718e-06 0)
(0.000998068 7.60426e-07 0)
(0.000998311 -2.29325e-07 0)
(0.000999902 -3.45463e-07 0)
(0.00100092 -1.62046e-07 0)
(0.00100127 2.0712e-07 0)
(0.00100082 1.67484e-07 0)
(0.000999955 2.37734e-08 0)
(0.000999976 -5.25703e-09 0)
(0.000999887 -1.87325e-07 0)
(0.000999682 -5.91177e-07 0)
(0.000999511 -1.2456e-06 0)
(0.00099954 -2.45661e-06 0)
(0.00100006 -4.71969e-06 0)
(0.00100166 -8.08047e-06 0)
(0.00100508 -1.32245e-05 0)
(0.00100968 -1.48335e-05 0)
(0.00101188 3.8066e-06 0)
(0.00100881 1.85304e-05 0)
(0.00100201 1.55475e-05 0)
(0.000997353 5.65504e-06 0)
(0.000996794 -2.82e-07 0)
(0.000998516 -1.22671e-06 0)
(0.00100042 -1.48586e-07 0)
(0.00100108 5.51216e-07 0)
(0.001001 6.76464e-07 0)
(0.0010005 2.68921e-07 0)
(0.00099976 1.47384e-08 0)
(0.00100021 2.65441e-08 0)
(0.000999317 -4.70923e-08 0)
(0.00100002 -1.553e-07 0)
(0.000997723 -5.11086e-07 0)
(0.000999164 -1.07859e-06 0)
(0.000993684 -2.8511e-06 0)
(0.000997796 -5.56025e-06 0)
(0.000991846 -1.15267e-05 0)
(0.000915924 -1.27001e-05 0)
(0.000951498 2.52212e-07 0)
(0.00101009 1.45669e-05 0)
(0.000990677 1.29677e-05 0)
(0.000983705 5.10018e-06 0)
(0.000989495 2.38432e-07 0)
(0.000996398 -7.29561e-07 0)
(0.00099941 -8.46391e-08 0)
(0.000999478 2.92483e-07 0)
(0.000998603 2.39692e-07 0)
(0.000998471 -1.87491e-07 0)
(0.00099976 3.09333e-09 0)
(0.00100021 1.9851e-08 0)
(0.000999315 1.12881e-07 0)
(0.00100002 2.3405e-07 0)
(0.000997719 5.92969e-07 0)
(0.000999156 1.13369e-06 0)
(0.000993672 2.86466e-06 0)
(0.000997777 5.51531e-06 0)
(0.000991822 1.1396e-05 0)
(0.000915888 1.25184e-05 0)
(0.000951458 -5.34757e-07 0)
(0.00101008 -1.49392e-05 0)
(0.000990684 -1.33859e-05 0)
(0.000983705 -5.53521e-06 0)
(0.000989478 -6.56193e-07 0)
(0.000996356 3.19759e-07 0)
(0.000999364 -3.43921e-07 0)
(0.000999426 -8.94804e-07 0)
(0.000998582 -9.42769e-07 0)
(0.000998421 -9.22734e-07 0)
(0.000999956 -9.54829e-09 0)
(0.000999972 4.36115e-08 0)
(0.00099988 2.45922e-07 0)
(0.000999673 6.61914e-07 0)
(0.000999499 1.31584e-06 0)
(0.000999529 2.50453e-06 0)
(0.00100004 4.73106e-06 0)
(0.00100166 8.03298e-06 0)
(0.00100508 1.31051e-05 0)
(0.00100968 1.46093e-05 0)
(0.00101187 -4.09921e-06 0)
(0.00100878 -1.89044e-05 0)
(0.0010019 -1.59502e-05 0)
(0.000997242 -6.06074e-06 0)
(0.000996712 -9.20619e-08 0)
(0.000998451 8.33714e-07 0)
(0.00100033 -2.74378e-07 0)
(0.00100094 -1.12331e-06 0)
(0.00100082 -1.31181e-06 0)
(0.00100033 -1.31618e-06 0)
(0.000999965 -9.50288e-09 0)
(0.00100006 2.14716e-08 0)
(0.00100007 3.42065e-07 0)
(0.00100005 8.29163e-07 0)
(0.00100012 1.52825e-06 0)
(0.00100042 2.38447e-06 0)
(0.00100083 3.49797e-06 0)
(0.00100174 4.13219e-06 0)
(0.00100319 4.17472e-06 0)
(0.00100606 2.23676e-06 0)
(0.00100907 -9.85724e-07 0)
(0.00100894 -4.35508e-06 0)
(0.00100519 -4.78326e-06 0)
(0.00100044 -3.00129e-06 0)
(0.000997936 -1.09601e-06 0)
(0.000998123 -1.47473e-07 0)
(0.000999701 -6.84143e-08 0)
(0.00100072 -4.12235e-07 0)
(0.00100104 -8.41323e-07 0)
(0.00100054 -1.15889e-06 0)
(0.000999983 -4.28616e-08 0)
(0.00100015 -3.67362e-08 0)
(0.00100024 2.83674e-07 0)
(0.00100031 7.87099e-07 0)
(0.0010005 1.32645e-06 0)
(0.00100083 2.00342e-06 0)
(0.00100132 2.6394e-06 0)
(0.00100213 3.15176e-06 0)
(0.00100338 3.08681e-06 0)
(0.00100481 2.62025e-06 0)
(0.00100568 5.41044e-07 0)
(0.00100517 -2.4649e-06 0)
(0.00100322 -4.7102e-06 0)
(0.00100078 -4.87465e-06 0)
(0.000999289 -3.38609e-06 0)
(0.000999101 -1.65312e-06 0)
(0.00099979 -6.88343e-07 0)
(0.00100026 -6.32033e-07 0)
(0.00100058 -1.14596e-06 0)
(0.00100023 -1.6149e-06 0)
(0.000999996 -7.07068e-08 0)
(0.00100024 -1.24814e-07 0)
(0.00100037 1.90872e-07 0)
(0.00100049 6.43043e-07 0)
(0.00100073 1.0992e-06 0)
(0.00100106 1.59866e-06 0)
(0.00100149 2.05704e-06 0)
(0.00100204 2.17454e-06 0)
(0.0010027 1.78251e-06 0)
(0.00100332 9.37376e-07 0)
(0.00100371 -1.787e-07 0)
(0.00100357 -1.36786e-06 0)
(0.00100278 -2.24572e-06 0)
(0.00100153 -2.38166e-06 0)
(0.00100044 -1.68358e-06 0)
(0.000999823 -7.44406e-07 0)
(0.000999817 -1.10375e-07 0)
(0.000999951 -1.23124e-08 0)
(0.0010002 -4.32929e-07 0)
(0.00100001 -9.45029e-07 0)
(0.00100001 -9.44383e-08 0)
(0.00100033 -1.93132e-07 0)
(0.00100047 8.44416e-08 0)
(0.00100062 4.81055e-07 0)
(0.00100086 8.45695e-07 0)
(0.00100113 1.2274e-06 0)
(0.00100145 1.52654e-06 0)
(0.00100183 1.5026e-06 0)
(0.00100227 1.11071e-06 0)
(0.00100266 6.0586e-07 0)
(0.00100286 1.71429e-07 0)
(0.00100271 -3.40688e-07 0)
(0.00100217 -9.59633e-07 0)
(0.00100134 -1.48261e-06 0)
(0.00100047 -1.54594e-06 0)
(0.000999846 -1.17857e-06 0)
(0.000999678 -6.75005e-07 0)
(0.000999722 -4.56386e-07 0)
(0.000999899 -7.47123e-07 0)
(0.000999777 -1.20763e-06 0)
(0.00100001 -1.04946e-07 0)
(0.0010004 -2.29933e-07 0)
(0.00100055 9.91482e-10 0)
(0.0010007 3.2872e-07 0)
(0.00100093 6.13034e-07 0)
(0.00100115 9.00624e-07 0)
(0.00100138 1.12266e-06 0)
(0.00100165 1.08215e-06 0)
(0.00100194 7.63197e-07 0)
(0.00100213 4.03616e-07 0)
(0.00100214 1.38029e-07 0)
(0.001002 -1.16487e-07 0)
(0.00100168 -5.27083e-07 0)
(0.0010011 -9.79507e-07 0)
(0.00100047 -1.08825e-06 0)
(0.000999964 -7.954e-07 0)
(0.000999745 -3.27184e-07 0)
(0.000999632 -7.74346e-08 0)
(0.000999728 -2.7828e-07 0)
(0.000999533 -6.69159e-07 0)
(0.00100002 -9.70828e-08 0)
(0.00100046 -2.19387e-07 0)
(0.0010006 -5.07242e-08 0)
(0.00100076 1.80821e-07 0)
(0.00100097 3.84384e-07 0)
(0.00100114 5.90492e-07 0)
(0.00100132 7.42027e-07 0)
(0.00100153 6.88209e-07 0)
(0.00100173 4.28719e-07 0)
(0.00100182 1.6565e-07 0)
(0.00100179 4.26902e-08 0)
(0.00100164 -3.5964e-08 0)
(0.00100137 -2.59667e-07 0)
(0.00100096 -5.80239e-07 0)
(0.00100047 -7.16599e-07 0)
(0.000999988 -6.09581e-07 0)
(0.000999719 -3.59929e-07 0)
(0.000999547 -2.38794e-07 0)
(0.000999605 -3.90592e-07 0)
(0.000999344 -7.31222e-07 0)
(0.00100002 -6.88617e-08 0)
(0.00100049 -1.45732e-07 0)
(0.00100062 -2.03526e-08 0)
(0.00100078 1.45048e-07 0)
(0.001001 2.84133e-07 0)
(0.00100113 4.25153e-07 0)
(0.00100125 5.33718e-07 0)
(0.00100141 5.1537e-07 0)
(0.00100155 3.73436e-07 0)
(0.00100158 2.40242e-07 0)
(0.0010015 2.01396e-07 0)
(0.00100137 1.78783e-07 0)
(0.00100119 8.45106e-08 0)
(0.00100083 -1.03455e-07 0)
(0.00100035 -2.10678e-07 0)
(0.000999882 -1.69749e-07 0)
(0.000999621 -1.0618e-08 0)
(0.000999449 7.92836e-08 0)
(0.000999499 -1.54877e-09 0)
(0.000999186 -2.34793e-07 0)
(0.00100003 -4.31399e-08 0)
(0.00100053 -1.00038e-07 0)
(0.00100067 -7.57466e-08 0)
(0.00100082 -3.28493e-08 0)
(0.00100102 -1.1225e-08 0)
(0.00100113 9.40341e-09 0)
(0.00100125 2.54161e-08 0)
(0.0010014 4.29207e-09 0)
(0.00100153 -4.8608e-08 0)
(0.00100153 -1.00617e-07 0)
(0.00100143 -1.18965e-07 0)
(0.0010013 -1.25156e-07 0)
(0.00100112 -1.71217e-07 0)
(0.00100078 -2.66568e-07 0)
(0.00100035 -3.15327e-07 0)
(0.000999893 -3.11612e-07 0)
(0.000999651 -2.51568e-07 0)
(0.000999417 -2.40629e-07 0)
(0.000999477 -2.70149e-07 0)
(0.000999047 -4.10366e-07 0)
)
;

boundaryField
{
    sides
    {
        type            slip;
    }
    inlet
    {
        type            fixedValue;
        value           uniform (0.001 0 0);
    }
    outlet
    {
        type            zeroGradient;
    }
    frontAndBack
    {
        type            empty;
    }
}


// ************************************************************************* //
