/*--------------------------------*- C++ -*----------------------------------*\
  =========                 |
  \\      /  F ield         | OpenFOAM: The Open Source CFD Toolbox
   \\    /   O peration     | Website:  https://openfoam.org
    \\  /    A nd           | Version:  9
     \\/     M anipulation  |
\*---------------------------------------------------------------------------*/
FoamFile
{
    format      ascii;
    class       surfaceScalarField;
    location    "17";
    object      phi;
}
// * * * * * * * * * * * * * * * * * * * * * * * * * * * * * * * * * * * * * //

dimensions      [0 4 -1 0 0 0 0];

internalField   nonuniform List<scalar> 
760
(
5.00172e-06
8.35752e-11
5.00291e-06
3.73042e-10
5.00397e-06
2.06414e-11
5.00481e-06
-5.16569e-10
5.00535e-06
-8.67481e-10
5.0059e-06
-1.20786e-09
5.00684e-06
-1.50881e-09
5.00796e-06
-1.46943e-09
5.00862e-06
-1.0116e-09
5.00857e-06
-5.51751e-10
5.00805e-06
-4.2749e-10
5.00732e-06
-3.92913e-10
5.00623e-06
-1.51219e-10
5.00464e-06
4.99047e-10
5.00284e-06
1.00962e-09
5.00143e-06
8.37503e-10
5.0008e-06
2.54412e-10
5.00097e-06
-3.79743e-10
5.00122e-06
-2.47132e-10
-3.61727e-10
5.00166e-06
1.19954e-10
5.00289e-06
5.91563e-10
5.00395e-06
-1.46401e-13
5.00482e-06
-9.31324e-10
5.00544e-06
-1.72232e-09
5.00611e-06
-2.4613e-09
5.00718e-06
-3.07002e-09
5.00843e-06
-2.975e-09
5.0092e-06
-2.09148e-09
5.00923e-06
-1.15098e-09
5.00876e-06
-7.61575e-10
5.00796e-06
-6.63889e-10
5.00657e-06
1.02559e-10
5.00481e-06
1.25255e-09
5.00305e-06
2.01126e-09
5.00183e-06
1.56099e-09
5.00113e-06
6.13726e-10
5.00135e-06
-7.038e-10
5.00132e-06
-2.19021e-10
-2.22276e-11
5.00142e-06
1.42809e-10
5.00255e-06
7.48684e-10
5.00364e-06
-1.49723e-10
5.00464e-06
-1.4877e-09
5.00542e-06
-2.63471e-09
5.00628e-06
-3.72387e-09
5.00751e-06
-4.6117e-09
5.00889e-06
-4.56821e-09
5.00987e-06
-3.34066e-09
5.01012e-06
-1.91838e-09
5.0097e-06
-1.10951e-09
5.00868e-06
-4.48174e-10
5.00709e-06
8.06466e-10
5.00498e-06
2.59207e-09
5.00276e-06
3.65473e-09
5.00117e-06
2.84757e-09
5.0009e-06
8.39044e-10
5.00099e-06
-7.54774e-10
5.00135e-06
-3.73785e-10
-6.5936e-11
5.00116e-06
1.17246e-10
5.00222e-06
6.75928e-10
5.00329e-06
-4.09573e-10
5.00435e-06
-2.12209e-09
5.00537e-06
-3.64319e-09
5.00658e-06
-5.11361e-09
5.00817e-06
-6.38448e-09
5.00998e-06
-6.53106e-09
5.01151e-06
-5.11103e-09
5.01219e-06
-3.00568e-09
5.01174e-06
-1.21898e-09
5.01019e-06
4.50734e-10
5.00763e-06
2.803e-09
5.00482e-06
4.95661e-09
5.00298e-06
5.22279e-09
5.00212e-06
3.56722e-09
5.00169e-06
1.33038e-09
5.00193e-06
-8.52383e-10
5.00164e-06
1.97404e-11
5.57286e-10
5.00085e-06
7.24242e-11
5.00175e-06
4.57722e-10
5.00275e-06
-8.05919e-10
5.00388e-06
-2.8407e-09
5.0052e-06
-4.76889e-09
5.00683e-06
-6.72337e-09
5.00889e-06
-8.48857e-09
5.01125e-06
-9.01592e-09
5.01378e-06
-7.91157e-09
5.0156e-06
-5.17614e-09
5.01525e-06
-1.27671e-09
5.01271e-06
2.62936e-09
5.0084e-06
6.92324e-09
5.00417e-06
9.08106e-09
5.00162e-06
7.81645e-09
5.00102e-06
4.29753e-09
5.00171e-06
9.03189e-10
5.00197e-06
-8.7453e-10
5.00194e-06
2.10939e-10
9.61492e-10
5.00051e-06
2.42783e-11
5.00118e-06
1.85689e-10
5.00199e-06
-1.21445e-09
5.00308e-06
-3.49658e-09
5.00457e-06
-5.88522e-09
5.00676e-06
-8.69003e-09
5.00966e-06
-1.13578e-08
5.01333e-06
-1.28479e-08
5.01673e-06
-1.1618e-08
5.01973e-06
-8.54681e-09
5.0203e-06
-2.18489e-09
5.01568e-06
7.06192e-09
5.0089e-06
1.37923e-08
5.00365e-06
1.45739e-08
5.00183e-06
9.94388e-09
5.00241e-06
4.04106e-09
5.00299e-06
5.2187e-10
5.00311e-06
-8.53801e-10
5.00244e-06
9.80771e-10
1.70609e-09
5.00019e-06
-2.30406e-11
5.0005e-06
-2.32612e-11
5.00104e-06
-1.51453e-09
5.00188e-06
-3.87984e-09
5.00323e-06
-6.70607e-09
5.00516e-06
-1.02443e-08
5.00887e-06
-1.50045e-08
5.0155e-06
-1.97211e-08
5.02478e-06
-2.13018e-08
5.03129e-06
-1.55975e-08
5.02858e-06
2.36343e-10
5.01625e-06
1.92863e-08
5.00355e-06
2.67065e-08
4.9982e-06
2.03932e-08
5.0003e-06
8.35805e-09
5.0028e-06
2.01936e-09
5.00391e-06
-2.40028e-10
5.00354e-06
-3.28319e-10
5.00274e-06
1.85e-09
1.9664e-09
4.99986e-06
-4.61451e-12
4.99977e-06
-1.10103e-10
4.99974e-06
-1.42351e-09
5.00007e-06
-3.75071e-09
5.0012e-06
-7.17769e-09
5.00261e-06
-1.11681e-08
5.00568e-06
-1.80104e-08
5.01126e-06
-2.56403e-08
5.0258e-06
-3.64192e-08
5.05657e-06
-4.70969e-08
5.04996e-06
7.51203e-09
5.02241e-06
4.67454e-08
4.99716e-06
5.22234e-08
4.99284e-06
2.53054e-08
4.99942e-06
2.43828e-09
5.00456e-06
-2.60175e-09
5.00523e-06
-7.21066e-10
5.00368e-06
1.22684e-09
5.00313e-06
2.33884e-09
1.16836e-09
4.99961e-06
7.43073e-11
4.99912e-06
1.65689e-13
4.99827e-06
-6.43481e-10
4.99712e-06
-2.14574e-09
4.9958e-06
-5.12132e-09
4.99598e-06
-1.07755e-08
5.00153e-06
-2.34861e-08
5.01858e-06
-4.31363e-08
5.05646e-06
-7.50202e-08
5.06709e-06
-5.83938e-08
5.04938e-06
2.3531e-08
4.99573e-06
1.00246e-07
4.98834e-06
6.00255e-08
4.99532e-06
1.906e-08
5.00021e-06
-1.68272e-09
5.00351e-06
-5.34723e-09
5.00316e-06
-2.43553e-10
5.00184e-06
2.43902e-09
5.00212e-06
1.87156e-09
1.30431e-10
4.99962e-06
3.91587e-11
4.99903e-06
1.02236e-10
4.99808e-06
1.50496e-10
4.99617e-06
1.88257e-10
4.99162e-06
1.89593e-10
4.98132e-06
1.20275e-10
4.95787e-06
1.22633e-11
4.9144e-06
-1.40401e-10
4.8389e-06
-3.61867e-10
4.78025e-06
-5.0082e-10
4.80397e-06
-8.3395e-10
4.90514e-06
-9.98326e-10
4.96655e-06
-9.79411e-10
4.98742e-06
-1.03092e-09
4.98773e-06
-1.07571e-09
4.98414e-06
-1.14387e-09
4.98522e-06
-1.192e-09
4.98894e-06
-1.47101e-09
4.99214e-06
-1.58357e-09
-2.63557e-09
4.99961e-06
-9.76063e-12
4.99902e-06
1.86074e-10
4.99808e-06
9.22481e-10
4.99616e-06
2.49868e-09
4.99159e-06
5.48563e-09
4.98127e-06
1.10163e-08
4.9578e-06
2.35292e-08
4.91431e-06
4.28894e-08
4.83878e-06
7.43884e-08
4.7799e-06
5.75154e-08
4.80399e-06
-2.53286e-08
4.90515e-06
-1.02251e-07
4.96657e-06
-6.20445e-08
4.98731e-06
-2.09698e-08
4.98762e-06
-4.88039e-10
4.9838e-06
3.28078e-09
4.98506e-06
-2.3093e-09
4.98888e-06
-5.47845e-09
4.99199e-06
-4.94616e-09
-5.15251e-09
4.99959e-06
2.97881e-11
4.99909e-06
2.75862e-10
4.99824e-06
1.67019e-09
4.99706e-06
4.05495e-09
4.99573e-06
7.48108e-09
4.99592e-06
1.13726e-08
5.00148e-06
1.80342e-08
5.01854e-06
2.54186e-08
5.0564e-06
3.58365e-08
5.06741e-06
4.58912e-08
5.04909e-06
-8.94335e-09
4.99526e-06
-4.8427e-08
4.98776e-06
-5.41604e-08
4.99496e-06
-2.73892e-08
5.0001e-06
-4.77636e-09
5.00303e-06
9.4714e-10
5.0023e-06
-1.39097e-09
5.00093e-06
-4.23209e-09
5.00129e-06
-5.49498e-09
-6.2369e-09
4.99981e-06
3.19367e-11
4.99973e-06
1.31428e-10
4.99969e-06
1.72474e-09
4.99999e-06
4.13904e-09
5.00108e-06
6.96298e-09
5.00247e-06
1.04355e-08
5.00547e-06
1.51012e-08
5.011e-06
1.95494e-08
5.02546e-06
2.08508e-08
5.05595e-06
1.47656e-08
5.04967e-06
-1.59033e-09
5.02201e-06
-2.09715e-08
4.99678e-06
-2.85837e-08
4.99238e-06
-2.23186e-08
4.99845e-06
-1.01046e-08
5.00368e-06
-3.73583e-09
5.00422e-06
-1.70633e-09
5.00243e-06
-2.4655e-09
5.0019e-06
-5.05733e-09
-6.87669e-09
5.00014e-06
-4.00854e-11
5.00043e-06
-1.47179e-10
5.00094e-06
1.3626e-09
5.00175e-06
3.70918e-09
5.00306e-06
6.1144e-09
5.00494e-06
8.86881e-09
5.00869e-06
1.14024e-08
5.01534e-06
1.26828e-08
5.02458e-06
1.12205e-08
5.03114e-06
7.79138e-09
5.02819e-06
8.29946e-10
5.01563e-06
-8.4934e-09
5.00269e-06
-1.54171e-08
4.99713e-06
-1.62817e-08
4.99917e-06
-1.16012e-08
5.00171e-06
-5.82597e-09
5.00255e-06
-2.26957e-09
5.00203e-06
-1.84214e-09
5.00097e-06
-3.95884e-09
-6.3519e-09
5.00046e-06
-1.02874e-10
5.00109e-06
-4.51276e-10
5.00186e-06
9.20835e-10
5.00292e-06
3.02158e-09
5.0044e-06
4.95347e-09
5.00656e-06
6.87107e-09
5.00943e-06
8.56406e-09
5.01304e-06
8.94127e-09
5.01632e-06
7.603e-09
5.01919e-06
4.4797e-09
5.01965e-06
-2.97729e-11
5.01484e-06
-3.85535e-09
5.00784e-06
-8.39809e-09
5.00241e-06
-1.0688e-08
5.00039e-06
-9.29345e-09
5.00073e-06
-5.8447e-09
5.00137e-06
-2.63112e-09
5.00116e-06
-1.44732e-09
5.00024e-06
-2.9075e-09
-5.35034e-09
5.00079e-06
-1.4312e-10
5.00165e-06
-6.78033e-10
5.00258e-06
4.994e-10
5.00369e-06
2.27814e-09
5.00499e-06
3.80582e-09
5.0066e-06
5.26338e-09
5.00861e-06
6.47732e-09
5.01093e-06
6.45477e-09
5.01345e-06
4.79728e-09
5.0152e-06
2.31827e-09
5.01446e-06
3.37213e-10
5.01182e-06
-1.57394e-09
5.00726e-06
-4.06678e-09
5.00288e-06
-6.39435e-09
5.00022e-06
-6.62048e-09
4.99949e-06
-4.96944e-09
4.99971e-06
-2.64336e-09
4.99979e-06
-1.31099e-09
4.99921e-06
-2.17646e-09
-4.47706e-09
5.00109e-06
-1.6475e-10
5.00208e-06
-7.47127e-10
5.00312e-06
1.91655e-10
5.00414e-06
1.61284e-09
5.00518e-06
2.77051e-09
5.00637e-06
3.83221e-09
5.0079e-06
4.70262e-09
5.00962e-06
4.55098e-09
5.011e-06
3.15403e-09
5.01138e-06
1.48139e-09
5.01075e-06
3.68984e-10
5.0091e-06
-5.06454e-10
5.0063e-06
-1.76868e-09
5.00312e-06
-3.62731e-09
5.00074e-06
-4.49377e-09
4.99952e-06
-3.8093e-09
4.99905e-06
-2.11634e-09
4.99885e-06
-9.83972e-10
4.99841e-06
-1.59194e-09
-3.44226e-09
5.00136e-06
-1.54039e-10
5.00244e-06
-6.55019e-10
5.00349e-06
4.71801e-11
5.00442e-06
1.05799e-09
5.00519e-06
1.81731e-09
5.00609e-06
2.51006e-09
5.00731e-06
3.05916e-09
5.00866e-06
2.93683e-09
5.00954e-06
1.96425e-09
5.00967e-06
8.51778e-10
5.009e-06
3.29803e-10
5.00753e-06
1.05303e-10
5.00555e-06
-6.54198e-10
5.0032e-06
-1.99412e-09
5.00097e-06
-2.74464e-09
4.99934e-06
-2.45333e-09
4.99846e-06
-1.35994e-09
4.99814e-06
-6.41652e-10
4.99773e-06
-1.05061e-09
-2.43714e-09
5.00152e-06
-6.88017e-11
5.00261e-06
-3.39507e-10
5.00365e-06
-3.44187e-11
5.00455e-06
4.57549e-10
5.00516e-06
8.90855e-10
5.00578e-06
1.2711e-09
5.00674e-06
1.55962e-09
5.00783e-06
1.47123e-09
5.00843e-06
9.64429e-10
5.00829e-06
4.18188e-10
5.00759e-06
1.78379e-10
5.00649e-06
8.99656e-11
5.00495e-06
-2.04443e-10
5.00281e-06
-7.94004e-10
5.00057e-06
-1.20675e-09
4.99881e-06
-1.16348e-09
4.99787e-06
-6.79312e-10
4.99756e-06
-3.82749e-10
4.99712e-06
-5.26175e-10
-1.47808e-09
5.00171e-06
5.00288e-06
5.00388e-06
5.0047e-06
5.00521e-06
5.00574e-06
5.00666e-06
5.0077e-06
5.00821e-06
5.00796e-06
5.00721e-06
5.00619e-06
5.00471e-06
5.00278e-06
5.00072e-06
4.99896e-06
4.99791e-06
4.99736e-06
4.99684e-06
)
;

boundaryField
{
    sides
    {
        type            calculated;
        value           uniform 0;
    }
    inlet
    {
        type            calculated;
        value           nonuniform List<scalar> 
20
(
-5e-06
-5e-06
-5e-06
-5e-06
-5e-06
-5e-06
-5e-06
-5e-06
-5e-06
-5e-06
-5e-06
-5e-06
-5e-06
-5e-06
-5e-06
-5e-06
-5e-06
-5e-06
-5e-06
-5e-06
)
;
    }
    outlet
    {
        type            calculated;
        value           nonuniform List<scalar> 
20
(
5.00162e-06
5.001e-06
5.00152e-06
5.00105e-06
5.0016e-06
5.00175e-06
5.00249e-06
5.00389e-06
5.00308e-06
4.9948e-06
4.9944e-06
5.00229e-06
5.0025e-06
5.00046e-06
4.99928e-06
4.9984e-06
4.99744e-06
4.9968e-06
4.99622e-06
4.99541e-06
)
;
    }
    frontAndBack
    {
        type            empty;
        value           nonuniform List<scalar> 0();
    }
}


// ************************************************************************* //
