/*--------------------------------*- C++ -*----------------------------------*\
  =========                 |
  \\      /  F ield         | OpenFOAM: The Open Source CFD Toolbox
   \\    /   O peration     | Website:  https://openfoam.org
    \\  /    A nd           | Version:  9
     \\/     M anipulation  |
\*---------------------------------------------------------------------------*/
FoamFile
{
    format      ascii;
    class       surfaceScalarField;
    location    "17";
    object      phi_0;
}
// * * * * * * * * * * * * * * * * * * * * * * * * * * * * * * * * * * * * * //

dimensions      [0 4 -1 0 0 0 0];

internalField   nonuniform List<scalar> 
760
(
5.00163e-06
2.72387e-10
5.00281e-06
5.55975e-10
5.00403e-06
1.49072e-10
5.0051e-06
-3.54257e-10
5.00572e-06
-7.32605e-10
5.00614e-06
-1.15608e-09
5.00678e-06
-1.51221e-09
5.00763e-06
-1.47763e-09
5.00819e-06
-1.01877e-09
5.0082e-06
-6.10105e-10
5.00785e-06
-5.35147e-10
5.00718e-06
-5.43544e-10
5.00608e-06
-1.63736e-10
5.00436e-06
4.84869e-10
5.00248e-06
9.30637e-10
5.00113e-06
7.07733e-10
5.00062e-06
8.87886e-11
5.00082e-06
-4.3721e-10
5.00099e-06
-2.08489e-10
-3.34972e-10
5.00158e-06
4.32239e-10
5.00282e-06
9.27439e-10
5.00407e-06
2.69355e-10
5.00506e-06
-6.72521e-10
5.00574e-06
-1.52362e-09
5.00629e-06
-2.40248e-09
5.0071e-06
-3.11022e-09
5.00809e-06
-2.99285e-09
5.00878e-06
-2.08564e-09
5.0089e-06
-1.24951e-09
5.00854e-06
-9.76261e-10
5.00783e-06
-8.05054e-10
5.00639e-06
4.61288e-11
5.00454e-06
1.24862e-09
5.00274e-06
1.91288e-09
5.00159e-06
1.32266e-09
5.00096e-06
3.8315e-10
5.00122e-06
-8.57985e-10
5.0011e-06
-1.6768e-10
1.07585e-12
5.00139e-06
5.05004e-10
5.00255e-06
1.15624e-09
5.00374e-06
1.57745e-10
5.00483e-06
-1.17825e-09
5.00564e-06
-2.40054e-09
5.00636e-06
-3.6771e-09
5.00735e-06
-4.68467e-09
5.00856e-06
-4.57164e-09
5.00949e-06
-3.30256e-09
5.00981e-06
-2.00273e-09
5.00952e-06
-1.36896e-09
5.00854e-06
-6.90341e-10
5.00693e-06
7.46039e-10
5.00475e-06
2.62515e-09
5.00252e-06
3.54254e-09
5.00097e-06
2.57946e-09
5.00084e-06
4.30267e-10
5.00094e-06
-8.95959e-10
5.00126e-06
-2.80859e-10
-1.54835e-11
5.00118e-06
4.76565e-10
5.00229e-06
1.07099e-09
5.00339e-06
-1.18762e-10
5.00447e-06
-1.8346e-09
5.00547e-06
-3.43063e-09
5.00655e-06
-5.10869e-09
5.00798e-06
-6.47015e-09
5.00966e-06
-6.52562e-09
5.01117e-06
-5.03834e-09
5.01192e-06
-3.07763e-09
5.01157e-06
-1.46591e-09
5.01007e-06
2.4118e-10
5.00748e-06
2.82469e-09
5.00464e-06
5.06155e-09
5.0028e-06
5.12337e-09
5.00203e-06
3.20863e-09
5.0016e-06
9.18712e-10
5.00186e-06
-1.09095e-09
5.00157e-06
9.49523e-11
6.03908e-10
5.00093e-06
3.90724e-10
5.00188e-06
8.18877e-10
5.00285e-06
-5.60298e-10
5.00393e-06
-2.59808e-09
5.00518e-06
-4.59883e-09
5.0067e-06
-6.75561e-09
5.00864e-06
-8.60591e-09
5.01096e-06
-9.00536e-09
5.0135e-06
-7.80668e-09
5.01538e-06
-5.23243e-09
5.01509e-06
-1.50406e-09
5.0126e-06
2.46926e-09
5.00826e-06
6.99748e-09
5.00401e-06
9.25215e-09
5.00149e-06
7.77323e-09
5.00094e-06
3.99312e-09
5.00176e-06
3.85984e-10
5.00204e-06
-1.056e-09
5.00196e-06
3.38761e-10
1.01554e-09
5.00065e-06
2.68934e-10
5.00137e-06
4.74943e-10
5.00211e-06
-1.01724e-09
5.00307e-06
-3.30392e-09
5.00444e-06
-5.76917e-09
5.00654e-06
-8.75651e-09
5.00938e-06
-1.149e-08
5.01306e-06
-1.28457e-08
5.01651e-06
-1.15337e-08
5.01958e-06
-8.56502e-09
5.02013e-06
-2.36757e-09
5.01552e-06
6.97803e-09
5.00874e-06
1.39083e-08
5.00352e-06
1.47948e-08
5.00177e-06
9.99326e-09
5.00237e-06
3.85684e-09
5.00304e-06
1.99912e-10
5.00316e-06
-9.45374e-10
5.00257e-06
1.16741e-09
1.78663e-09
5.00038e-06
1.33321e-10
5.00075e-06
1.62288e-10
5.00117e-06
-1.39383e-09
5.00181e-06
-3.75373e-09
5.003e-06
-6.64124e-09
5.00485e-06
-1.0333e-08
5.00857e-06
-1.51405e-08
5.01525e-06
-1.97243e-08
5.0246e-06
-2.12243e-08
5.0312e-06
-1.55841e-08
5.02845e-06
8.00361e-11
5.01607e-06
1.92358e-08
5.00337e-06
2.6892e-08
4.99806e-06
2.06663e-08
5.00026e-06
8.45493e-09
5.0028e-06
1.89699e-09
5.00398e-06
-5.3955e-10
5.00363e-06
-3.68708e-10
5.00284e-06
2.03365e-09
2.03781e-09
5.00009e-06
8.64946e-11
5.00008e-06
-9.79376e-12
4.9999e-06
-1.35013e-09
4.99996e-06
-3.67626e-09
5.00089e-06
-7.15074e-09
5.00224e-06
-1.12415e-08
5.00536e-06
-1.8113e-08
5.01104e-06
-2.56576e-08
5.02568e-06
-3.63475e-08
5.05654e-06
-4.71066e-08
5.0498e-06
5.51768e-09
5.02215e-06
4.66803e-08
4.99694e-06
5.23821e-08
4.99272e-06
2.5565e-08
4.99938e-06
2.57345e-09
5.00463e-06
-2.69341e-09
5.00526e-06
-8.72367e-10
5.00374e-06
1.19704e-09
5.0032e-06
2.45406e-09
1.20496e-09
4.99987e-06
1.19667e-10
4.99948e-06
6.63689e-11
4.99844e-06
-6.00977e-10
4.99697e-06
-2.10358e-09
4.99544e-06
-5.10433e-09
4.99557e-06
-1.08074e-08
5.00119e-06
-2.35263e-08
5.01839e-06
-4.31426e-08
5.05638e-06
-7.50161e-08
5.06698e-06
-5.83517e-08
5.04925e-06
2.34787e-08
4.99553e-06
1.00266e-07
4.9881e-06
6.0155e-08
4.99516e-06
1.92271e-08
5.00013e-06
-1.51615e-09
5.00356e-06
-5.3842e-09
5.00324e-06
-2.77199e-10
5.0019e-06
2.42752e-09
5.00216e-06
1.89261e-09
1.25379e-10
4.99989e-06
5.16215e-11
4.9994e-06
1.21454e-10
4.99825e-06
1.67838e-10
4.99601e-06
2.06505e-10
4.99123e-06
2.13569e-10
4.98088e-06
1.43092e-10
4.95754e-06
2.98455e-11
4.91421e-06
-1.31942e-10
4.83884e-06
-3.76205e-10
4.78016e-06
-5.21487e-10
4.80385e-06
-8.35632e-10
4.90491e-06
-9.76901e-10
4.96628e-06
-9.5456e-10
4.98723e-06
-9.89674e-10
4.98767e-06
-1.02377e-09
4.98414e-06
-1.10759e-09
4.98529e-06
-1.19305e-09
4.98901e-06
-1.49249e-09
4.99218e-06
-1.64113e-09
-2.67688e-09
4.99989e-06
-2.9618e-11
4.99939e-06
1.64114e-10
4.99825e-06
9.21449e-10
4.996e-06
2.49671e-09
4.9912e-06
5.50998e-09
4.98083e-06
1.10865e-08
4.95747e-06
2.35941e-08
4.91411e-06
4.28949e-08
4.8387e-06
7.43651e-08
4.77984e-06
5.74817e-08
4.8039e-06
-2.53982e-08
4.9049e-06
-1.02266e-07
4.96629e-06
-6.21103e-08
4.98712e-06
-2.10472e-08
4.98755e-06
-4.86371e-10
4.9838e-06
3.38745e-09
4.98512e-06
-2.21943e-09
4.98896e-06
-5.51041e-09
4.99204e-06
-5.06931e-09
-5.22381e-09
4.99986e-06
-3.61834e-11
4.99945e-06
1.8768e-10
4.99841e-06
1.63549e-09
4.99693e-06
4.01914e-09
4.99538e-06
7.47864e-09
4.9955e-06
1.14597e-08
5.00114e-06
1.81414e-08
5.01833e-06
2.54241e-08
5.05632e-06
3.57671e-08
5.06721e-06
4.58178e-08
5.04905e-06
-6.41583e-09
4.99507e-06
-4.84287e-08
4.98752e-06
-5.42807e-08
4.99477e-06
-2.75469e-08
5.00001e-06
-4.7868e-09
5.00308e-06
1.08028e-09
5.00236e-06
-1.17163e-09
5.00099e-06
-4.22774e-09
5.00136e-06
-5.67576e-09
-6.34157e-09
5.00004e-06
-1.16633e-10
5.00005e-06
-3.30443e-11
4.99985e-06
1.63196e-09
4.99989e-06
4.04169e-09
5.00078e-06
6.90941e-09
5.0021e-06
1.05178e-08
5.00512e-06
1.52305e-08
5.01077e-06
1.9531e-08
5.02531e-06
2.07212e-08
5.05601e-06
1.47561e-08
5.04942e-06
-1.6237e-09
5.02181e-06
-2.08955e-08
4.99659e-06
-2.87137e-08
4.99222e-06
-2.25244e-08
4.99837e-06
-1.01001e-08
5.00369e-06
-3.51105e-09
5.00432e-06
-1.44612e-09
5.00251e-06
-2.38579e-09
5.00199e-06
-5.24638e-09
-6.99172e-09
5.00034e-06
-2.81029e-10
5.00069e-06
-4.11816e-10
5.00108e-06
1.19417e-09
5.00169e-06
3.53682e-09
5.00284e-06
5.99891e-09
5.00464e-06
8.92724e-09
5.00838e-06
1.15152e-08
5.01508e-06
1.2647e-08
5.02439e-06
1.10772e-08
5.031e-06
7.79406e-09
5.02805e-06
1.02341e-09
5.01548e-06
-8.35234e-09
5.00252e-06
-1.54967e-08
4.99699e-06
-1.64599e-08
4.99912e-06
-1.15759e-08
5.00173e-06
-5.54377e-09
5.00259e-06
-1.92071e-09
5.00211e-06
-1.73219e-09
5.00106e-06
-4.16767e-09
-6.47937e-09
5.00061e-06
-4.29549e-10
5.00129e-06
-8.00459e-10
5.00199e-06
6.86772e-10
5.00292e-06
2.78199e-09
5.00428e-06
4.78151e-09
5.00635e-06
6.88391e-09
5.00913e-06
8.64976e-09
5.01274e-06
8.90702e-09
5.01611e-06
7.49725e-09
5.01904e-06
4.49729e-09
5.01948e-06
2.69026e-10
5.01465e-06
-3.69664e-09
5.00764e-06
-8.44782e-09
5.00229e-06
-1.08076e-08
5.00034e-06
-9.2017e-09
5.00073e-06
-5.50504e-09
5.0014e-06
-2.23409e-09
5.00123e-06
-1.31034e-09
5.00031e-06
-3.10698e-09
-5.47655e-09
5.00087e-06
-5.23905e-10
5.00179e-06
-1.07116e-09
5.0027e-06
2.19526e-10
5.00376e-06
1.9894e-09
5.00499e-06
3.58487e-09
5.00648e-06
5.23003e-09
5.00837e-06
6.55395e-09
5.01063e-06
6.44974e-09
5.01316e-06
4.72893e-09
5.01496e-06
2.38581e-09
5.01431e-06
5.99358e-10
5.01166e-06
-1.37273e-09
5.00711e-06
-4.05167e-09
5.00273e-06
-6.44662e-09
5.00012e-06
-6.48186e-09
4.99944e-06
-4.60854e-09
4.99973e-06
-2.2443e-09
4.99983e-06
-1.14326e-09
4.99924e-06
-2.32619e-09
-4.5823e-09
5.00112e-06
-5.36015e-10
5.00216e-06
-1.13498e-09
5.00323e-06
-9.41669e-11
5.00428e-06
1.30621e-09
5.00529e-06
2.53117e-09
5.00638e-06
3.78281e-09
5.00771e-06
4.74625e-09
5.0093e-06
4.54921e-09
5.01065e-06
3.11055e-09
5.01113e-06
1.58698e-09
5.01055e-06
6.21943e-10
5.00896e-06
-3.00346e-10
5.00612e-06
-1.69012e-09
5.00292e-06
-3.61303e-09
5.00058e-06
-4.33561e-09
4.99941e-06
-3.48086e-09
4.999e-06
-1.75283e-09
4.99883e-06
-8.17393e-10
4.99837e-06
-1.6973e-09
-3.52138e-09
5.00134e-06
-4.51417e-10
5.00245e-06
-9.74865e-10
5.00361e-06
-1.91607e-10
5.00463e-06
7.91441e-10
5.00542e-06
1.60119e-09
5.00619e-06
2.44445e-09
5.0072e-06
3.08377e-09
5.00834e-06
2.92207e-09
5.00917e-06
1.94818e-09
5.00934e-06
9.42147e-10
5.00877e-06
5.38664e-10
5.00734e-06
2.60551e-10
5.00538e-06
-5.94486e-10
5.00299e-06
-1.9466e-09
5.00073e-06
-2.59778e-09
4.99915e-06
-2.1999e-09
4.99837e-06
-1.08262e-09
4.99809e-06
-5.05437e-10
4.99761e-06
-1.11192e-09
-2.48785e-09
5.00145e-06
-2.25941e-10
5.00256e-06
-5.15297e-10
5.00374e-06
-1.7947e-10
5.00482e-06
3.35742e-10
5.00548e-06
7.93986e-10
5.00597e-06
1.23856e-09
5.00666e-06
1.5724e-09
5.00751e-06
1.46277e-09
5.00802e-06
9.48472e-10
5.00792e-06
4.69318e-10
5.00735e-06
3.18044e-10
5.00636e-06
2.17824e-10
5.00478e-06
-1.49727e-10
5.00252e-06
-7.62632e-10
5.00024e-06
-1.13119e-09
4.99856e-06
-1.0318e-09
4.99775e-06
-5.36266e-10
4.99746e-06
-3.07625e-10
4.99692e-06
-5.5062e-10
-1.50466e-09
5.00161e-06
5.00281e-06
5.00401e-06
5.00498e-06
5.00556e-06
5.00597e-06
5.00661e-06
5.00738e-06
5.00778e-06
5.00758e-06
5.00697e-06
5.00602e-06
5.00451e-06
5.00247e-06
5.00035e-06
4.99868e-06
4.99775e-06
4.99722e-06
4.99661e-06
)
;

boundaryField
{
    sides
    {
        type            calculated;
        value           uniform 0;
    }
    inlet
    {
        type            calculated;
        value           nonuniform List<scalar> 
20
(
-5e-06
-5e-06
-5e-06
-5e-06
-5e-06
-5e-06
-5e-06
-5e-06
-5e-06
-5e-06
-5e-06
-5e-06
-5e-06
-5e-06
-5e-06
-5e-06
-5e-06
-5e-06
-5e-06
-5e-06
)
;
    }
    outlet
    {
        type            calculated;
        value           nonuniform List<scalar> 
20
(
5.00133e-06
5.00075e-06
5.00136e-06
5.00101e-06
5.00163e-06
5.0019e-06
5.0026e-06
5.00396e-06
5.00309e-06
4.99482e-06
4.99443e-06
5.00236e-06
5.00259e-06
5.00056e-06
4.99936e-06
4.99842e-06
4.99738e-06
4.99664e-06
4.99597e-06
4.99511e-06
)
;
    }
    frontAndBack
    {
        type            empty;
        value           nonuniform List<scalar> 0();
    }
}


// ************************************************************************* //
