/*--------------------------------*- C++ -*----------------------------------*\
  =========                 |
  \\      /  F ield         | OpenFOAM: The Open Source CFD Toolbox
   \\    /   O peration     | Website:  https://openfoam.org
    \\  /    A nd           | Version:  9
     \\/     M anipulation  |
\*---------------------------------------------------------------------------*/
FoamFile
{
    format      ascii;
    class       volScalarField;
    location    "75";
    object      ddt0(h);
}
// * * * * * * * * * * * * * * * * * * * * * * * * * * * * * * * * * * * * * //

dimensions      [0 1 -1 0 0 0 0];

internalField   nonuniform List<scalar> 
400
(
-1.38388e-09
5.88331e-09
1.09273e-08
-1.37707e-08
-4.01036e-08
-4.36577e-08
-1.17684e-08
-9.7938e-11
7.93793e-09
7.53679e-09
3.99093e-08
2.35667e-08
2.78086e-08
2.3173e-08
6.22467e-09
1.34517e-08
3.93159e-08
4.90811e-08
4.45252e-08
1.95577e-08
4.63398e-09
7.36717e-09
8.80782e-10
-2.27201e-08
-2.63518e-08
-7.53325e-09
1.10708e-08
-7.06764e-09
7.75655e-09
-1.49325e-09
6.43409e-10
1.34605e-08
-1.86339e-08
-2.33118e-09
-1.38178e-08
-1.84847e-08
-6.1081e-09
3.73837e-09
1.16003e-08
1.04628e-08
2.4831e-10
8.49509e-10
-1.44229e-08
-1.76896e-08
8.78289e-09
3.93214e-08
-9.72325e-09
-6.47627e-09
-3.2674e-08
1.60963e-09
-4.85534e-08
-7.03596e-09
-2.83126e-08
-3.62413e-08
-6.52456e-09
-1.83942e-08
-3.75143e-08
-2.78194e-08
-3.869e-09
1.78346e-09
-7.86976e-09
-6.8028e-09
-1.99567e-08
-1.04163e-09
4.27746e-08
1.98708e-08
-3.00569e-08
2.4671e-09
-2.93095e-08
-2.22187e-08
2.97129e-08
-5.3262e-08
1.46555e-08
-2.28257e-08
-1.23307e-08
4.67594e-09
-2.84282e-08
-4.79056e-08
-3.25539e-08
-9.09106e-09
-9.23438e-09
-9.49657e-09
-1.53931e-08
1.80906e-08
3.38472e-08
-2.6642e-08
8.52623e-09
-1.99131e-08
3.02464e-08
-4.17353e-08
-2.59363e-08
5.64359e-08
-4.19235e-08
1.16985e-08
1.46752e-08
1.03174e-08
-1.00538e-08
-3.36683e-08
-3.11133e-08
-1.15286e-08
-2.34556e-09
-7.3622e-09
-8.05099e-09
1.95035e-08
-8.46125e-10
-1.91446e-08
-3.01746e-09
4.78023e-08
-7.92679e-08
1.62629e-07
-1.48494e-07
5.65194e-08
6.79461e-08
-3.39212e-08
2.83801e-09
2.64665e-08
1.58929e-08
1.36434e-09
-7.59159e-09
-4.76373e-09
4.38648e-09
-2.21359e-09
-5.42134e-09
6.90247e-09
-9.01107e-09
-2.05867e-08
4.75462e-08
-3.47233e-08
8.71915e-08
-1.2368e-07
3.38534e-07
-3.18669e-07
3.06706e-08
4.93202e-08
-1.16254e-08
4.26487e-09
1.9046e-08
1.96019e-08
9.03311e-09
5.77385e-10
9.75953e-09
4.11227e-10
-5.81114e-09
-1.71634e-09
-1.03959e-08
1.65158e-08
8.16559e-09
2.76011e-08
1.75739e-08
-5.82418e-07
4.26404e-06
1.07395e-07
-1.63545e-07
-3.24278e-08
-1.2668e-08
-1.43208e-08
7.1307e-09
1.95906e-08
1.49019e-08
2.96066e-09
1.1832e-08
4.9086e-09
-6.88202e-09
-7.81942e-09
9.01515e-09
1.89773e-08
2.30964e-08
-4.34618e-08
-7.16595e-08
5.52018e-07
-4.33525e-06
-1.30861e-07
1.53321e-07
-1.43563e-09
-2.76965e-08
-3.48904e-08
-4.41787e-08
1.38398e-09
1.03048e-08
7.80763e-09
9.68382e-09
8.76792e-09
1.0364e-09
-1.20748e-08
1.82204e-08
3.43406e-08
-3.58084e-08
-2.68885e-09
-7.68201e-08
8.12594e-08
-1.57576e-07
3.39723e-07
-2.26267e-08
-1.62187e-08
1.48496e-09
-2.94656e-08
-1.36363e-08
-1.04489e-08
7.26214e-09
2.43836e-09
3.08942e-09
1.30896e-08
1.25814e-08
-7.19117e-09
6.73377e-09
2.54282e-08
-3.48086e-08
-5.07098e-08
1.15507e-07
3.63603e-09
-1.56395e-07
1.4416e-07
-3.42007e-08
4.53345e-08
1.49952e-08
-2.82766e-08
-3.04457e-08
-1.66437e-09
1.81111e-08
1.19859e-08
-3.4643e-09
1.00559e-08
2.58375e-08
4.19347e-10
-1.27973e-08
3.25245e-09
-1.50971e-08
-1.89521e-08
1.41622e-08
5.61158e-07
-5.8402e-06
-2.27965e-07
1.87615e-07
5.32786e-08
1.2269e-08
-2.09432e-08
-4.31944e-09
2.00681e-08
2.80665e-08
1.34692e-08
-5.27083e-09
2.51902e-09
2.3542e-08
1.31126e-08
-3.06984e-08
-9.09617e-09
1.45928e-08
6.96685e-09
-8.29881e-09
-5.02962e-07
6.084e-06
2.51681e-07
-1.3925e-07
-3.01994e-08
-1.85566e-08
6.65769e-10
2.52987e-08
3.07754e-08
1.71575e-08
3.81746e-09
-4.47796e-09
-6.12187e-09
1.01076e-08
1.66622e-08
-1.55233e-08
-3.09686e-08
4.45464e-08
1.25318e-08
-5.18272e-08
-1.12034e-07
8.6547e-08
-2.37273e-07
-1.91663e-08
-3.9427e-08
-3.18697e-08
1.27847e-08
3.01561e-08
1.19358e-08
-1.47471e-08
-1.25545e-08
-8.85308e-09
-1.04737e-08
-9.40661e-10
1.36979e-08
4.31747e-09
-1.88321e-08
1.68545e-08
5.33891e-08
-2.06504e-08
-1.77563e-08
-1.38419e-07
-2.61822e-08
-5.35969e-08
-4.50899e-08
5.16322e-10
3.71999e-08
1.97362e-08
-1.92964e-08
-3.98263e-08
-2.14211e-08
-1.99649e-08
-8.37774e-09
2.4251e-10
1.27915e-08
1.24811e-08
-5.04164e-09
-2.50881e-09
3.29454e-08
2.84689e-08
-1.338e-08
-7.71228e-09
-2.28081e-08
-2.32202e-08
-6.07424e-09
3.30978e-08
3.54127e-08
-5.20135e-09
-3.75655e-08
-3.82437e-08
-1.59378e-08
-2.79255e-08
-3.50794e-09
9.70612e-09
9.71743e-09
1.15307e-08
-5.56415e-09
-1.4223e-08
1.60099e-09
2.03699e-08
1.18467e-08
1.08722e-08
3.79454e-09
1.27742e-08
1.96333e-08
2.66794e-08
1.85428e-08
-1.53878e-08
-3.36982e-08
-1.89751e-08
-2.88048e-09
-1.97687e-08
-1.99708e-09
8.63477e-09
1.17314e-09
-1.54098e-09
-2.44657e-09
-2.03255e-08
-9.7887e-09
-2.72533e-09
4.60383e-09
-5.79539e-09
2.65852e-09
1.56773e-08
1.25347e-08
1.00566e-08
2.01553e-09
-1.16224e-08
-1.36793e-08
4.28852e-11
4.55284e-09
6.90873e-09
-5.98087e-09
-1.21196e-08
-1.22435e-08
-7.76651e-09
-4.10565e-09
-1.02338e-08
-1.00094e-08
-4.37499e-09
-9.20263e-10
-9.22695e-09
-5.03796e-09
2.93939e-09
7.0386e-09
-6.78156e-09
-1.28815e-08
3.53862e-09
1.03579e-08
2.61172e-09
-7.79433e-10
3.37986e-08
-5.46306e-09
-3.41881e-08
-2.61859e-08
-8.65995e-09
-4.472e-09
-2.49671e-09
-3.43188e-09
3.40824e-09
3.33904e-09
1.05336e-09
-5.73404e-09
5.86742e-10
6.42825e-09
-1.67205e-08
-1.90954e-08
1.51168e-08
2.54613e-08
-3.36896e-10
-8.66214e-09
)
;

boundaryField
{
    sides
    {
        type            calculated;
        value           nonuniform List<scalar> 
40
(
3.37986e-08
-5.46306e-09
-3.41881e-08
-2.61859e-08
-8.65995e-09
-4.472e-09
-2.49671e-09
-3.43188e-09
3.40824e-09
3.33904e-09
1.05336e-09
-5.73404e-09
5.86742e-10
6.42825e-09
-1.67205e-08
-1.90954e-08
1.51168e-08
2.54613e-08
-3.36896e-10
-8.66214e-09
-1.38388e-09
5.88331e-09
1.09273e-08
-1.37707e-08
-4.01036e-08
-4.36577e-08
-1.17684e-08
-9.7938e-11
7.93793e-09
7.53679e-09
3.99093e-08
2.35667e-08
2.78086e-08
2.3173e-08
6.22467e-09
1.34517e-08
3.93159e-08
4.90811e-08
4.45252e-08
1.95577e-08
)
;
    }
    inlet
    {
        type            calculated;
        value           nonuniform List<scalar> 
20
(
-1.38388e-09
4.63398e-09
2.4831e-10
-7.86976e-09
-9.23438e-09
-2.34556e-09
4.38648e-09
9.75953e-09
1.1832e-08
9.68382e-09
3.08942e-09
-3.4643e-09
-5.27083e-09
-4.47796e-09
-8.85308e-09
-1.99649e-08
-2.79255e-08
-1.97687e-08
6.90873e-09
3.37986e-08
)
;
    }
    outlet
    {
        type            calculated;
        value           uniform 0;
    }
    frontAndBack
    {
        type            empty;
    }
}


// ************************************************************************* //
