/*--------------------------------*- C++ -*----------------------------------*\
  =========                 |
  \\      /  F ield         | OpenFOAM: The Open Source CFD Toolbox
   \\    /   O peration     | Website:  https://openfoam.org
    \\  /    A nd           | Version:  9
     \\/     M anipulation  |
\*---------------------------------------------------------------------------*/
FoamFile
{
    format      ascii;
    class       volVectorField;
    location    "75";
    object      ddtCorrDdt0(hU);
}
// * * * * * * * * * * * * * * * * * * * * * * * * * * * * * * * * * * * * * //

dimensions      [0 2 -2 0 0 0 0];

internalField   nonuniform List<vector> 
400
(
(1.07368e-10 -2.11616e-09 0)
(-2.35638e-09 -1.80925e-09 0)
(-3.88801e-09 5.2214e-10 0)
(-2.88634e-09 3.27656e-09 0)
(8.51611e-10 3.87541e-09 0)
(1.76878e-09 4.88465e-10 0)
(2.16026e-10 -3.43362e-09 0)
(-6.65562e-10 -2.96595e-09 0)
(1.10991e-09 -3.90938e-09 0)
(4.99186e-10 -2.41029e-09 0)
(2.05857e-09 -4.65448e-09 0)
(-1.85019e-09 -1.12552e-09 0)
(-3.93774e-10 9.08017e-10 0)
(1.67199e-09 1.41512e-09 0)
(1.85036e-09 3.45522e-09 0)
(5.61299e-09 2.16e-09 0)
(9.10203e-09 -1.31669e-09 0)
(9.39669e-09 -2.96606e-09 0)
(6.33261e-09 -2.96405e-09 0)
(-1.9108e-09 -1.91403e-09 0)
(7.43583e-10 -4.17065e-09 0)
(-1.57671e-11 -4.05573e-09 0)
(-4.6602e-10 1.55693e-09 0)
(-3.90035e-10 7.57018e-09 0)
(-1.00035e-10 7.03145e-09 0)
(-1.59082e-09 -1.9466e-09 0)
(-1.06916e-09 -7.93529e-09 0)
(-2.17415e-09 -5.34964e-09 0)
(1.2844e-09 -5.8457e-09 0)
(-9.27792e-10 -3.40854e-09 0)
(-2.38307e-10 -1.82491e-09 0)
(3.07649e-09 -2.46959e-09 0)
(-2.76913e-09 3.60826e-09 0)
(1.09478e-09 4.12827e-09 0)
(4.28601e-10 6.68891e-09 0)
(-2.03458e-09 5.74909e-09 0)
(-5.48371e-11 -1.41592e-09 0)
(3.23227e-09 -7.78008e-09 0)
(3.06893e-09 -8.64816e-09 0)
(-6.82197e-12 -3.83984e-09 0)
(3.28297e-10 -3.1579e-09 0)
(2.39281e-09 -3.37431e-09 0)
(3.58454e-09 2.1846e-09 0)
(2.19401e-09 6.53515e-09 0)
(-2.70449e-09 2.52171e-09 0)
(-4.07997e-09 -5.64249e-09 0)
(-3.12715e-09 -3.02094e-09 0)
(-4.30839e-11 -3.50268e-09 0)
(-1.91731e-09 1.86201e-09 0)
(4.27547e-09 -2.34503e-09 0)
(-4.66882e-09 4.94825e-09 0)
(1.14334e-09 -3.61058e-10 0)
(1.3623e-10 4.16101e-10 0)
(-2.59175e-09 4.46176e-09 0)
(1.61596e-09 3.05096e-09 0)
(-4.89812e-09 3.12253e-09 0)
(-1.06907e-08 9.63705e-10 0)
(-5.58035e-09 -3.67875e-09 0)
(3.17115e-09 -6.17224e-09 0)
(5.74062e-09 -2.96774e-09 0)
(-2.11141e-10 -8.87646e-10 0)
(3.72284e-09 -1.12764e-09 0)
(5.21315e-09 1.36747e-09 0)
(1.96831e-09 1.40831e-09 0)
(-3.97526e-09 -3.93544e-09 0)
(-3.17675e-09 -1.4917e-09 0)
(-2.9094e-09 3.05002e-09 0)
(2.17344e-09 1.38603e-09 0)
(-2.28406e-09 2.7345e-09 0)
(2.02188e-10 5.53672e-09 0)
(6.68482e-09 -6.12121e-09 0)
(-7.29551e-09 2.69897e-09 0)
(4.57989e-09 -3.05233e-09 0)
(-7.41463e-11 -2.6826e-09 0)
(-1.86314e-09 -1.35054e-09 0)
(-7.42156e-10 -1.98272e-09 0)
(-6.90618e-09 7.38899e-10 0)
(-9.00147e-09 2.56345e-09 0)
(-3.34558e-09 1.4439e-09 0)
(4.48358e-09 1.61455e-11 0)
(-3.90195e-10 1.43276e-09 0)
(2.81326e-09 2.82576e-10 0)
(3.60866e-09 -2.45324e-10 0)
(1.80662e-10 -3.29593e-09 0)
(-1.47734e-09 -3.95925e-09 0)
(-1.81164e-09 3.53151e-09 0)
(1.65218e-09 3.05139e-09 0)
(-3.59732e-09 3.01001e-09 0)
(7.07374e-09 6.72059e-10 0)
(-8.20859e-09 3.33531e-09 0)
(-3.55885e-09 -5.00975e-10 0)
(1.24386e-08 -1.21097e-08 0)
(-7.97516e-09 4.03437e-10 0)
(1.57428e-09 -3.4035e-09 0)
(3.19703e-09 -5.52036e-09 0)
(1.27926e-09 -4.89096e-09 0)
(-6.33517e-10 -1.86943e-09 0)
(-5.20811e-09 1.23719e-09 0)
(-4.60156e-09 2.98419e-09 0)
(1.90422e-09 1.90897e-09 0)
(-6.24492e-10 2.07301e-09 0)
(1.6026e-10 6.35986e-10 0)
(4.36363e-10 -1.09233e-09 0)
(-1.34357e-10 -3.09861e-09 0)
(3.76159e-10 6.10458e-12 0)
(2.1729e-09 3.22011e-09 0)
(-8.5677e-10 6.47018e-10 0)
(2.40668e-09 -1.58796e-09 0)
(-8.74577e-09 8.07974e-09 0)
(1.83716e-08 -1.97411e-08 0)
(-2.4235e-08 3.09851e-08 0)
(5.71389e-09 -8.03979e-10 0)
(1.79624e-08 -1.09634e-08 0)
(-1.00054e-08 1.28008e-09 0)
(-3.32654e-09 -1.44665e-09 0)
(6.47646e-09 -3.82006e-09 0)
(6.7059e-09 -3.5198e-09 0)
(1.02565e-09 -2.52792e-09 0)
(-2.04772e-09 4.08608e-10 0)
(1.61815e-09 1.17634e-09 0)
(-7.00979e-10 7.58925e-10 0)
(-2.1803e-09 5.73931e-10 0)
(-1.38866e-09 -3.96421e-10 0)
(-2.75988e-10 3.3018e-11 0)
(2.57185e-09 2.61018e-09 0)
(1.56484e-09 1.87618e-10 0)
(6.30479e-10 -3.51632e-09 0)
(3.09682e-10 -8.56634e-10 0)
(-6.51957e-09 -5.05795e-09 0)
(5.5683e-09 1.39397e-08 0)
(5.68478e-08 -8.08004e-08 0)
(-6.71313e-08 5.07032e-08 0)
(2.02503e-12 9.41466e-10 0)
(1.27626e-08 -3.05638e-09 0)
(-6.23877e-09 2.93769e-09 0)
(-1.03268e-10 9.58488e-10 0)
(6.56825e-09 -2.06838e-09 0)
(4.28171e-09 -3.74976e-09 0)
(1.56976e-09 -1.50028e-09 0)
(3.33787e-09 3.08324e-10 0)
(-3.15137e-10 -4.52156e-10 0)
(-2.84448e-09 6.94534e-10 0)
(-1.91182e-09 5.36523e-10 0)
(4.2012e-10 2.21194e-09 0)
(1.41572e-09 2.5835e-09 0)
(1.42766e-09 -3.35407e-09 0)
(-9.17579e-10 -5.86928e-09 0)
(-2.64755e-09 -2.10922e-09 0)
(1.3523e-08 -6.87058e-10 0)
(-1.30393e-07 5.47919e-09 0)
(4.57613e-07 6.03755e-08 0)
(9.92677e-08 -4.3517e-08 0)
(-6.37129e-08 8.8644e-09 0)
(-9.84814e-09 5.68166e-09 0)
(-1.94894e-09 4.98317e-09 0)
(-1.55602e-09 5.96877e-09 0)
(3.73258e-09 1.33106e-09 0)
(3.6345e-09 -2.49167e-09 0)
(2.86219e-09 -1.30751e-09 0)
(4.77046e-09 1.30278e-10 0)
(2.11184e-10 -1.00526e-10 0)
(-2.63188e-09 1.2971e-09 0)
(-1.65315e-09 6.36185e-10 0)
(5.51305e-11 1.78608e-09 0)
(2.36098e-10 1.2511e-09 0)
(-1.57265e-09 -5.17971e-09 0)
(-5.38999e-10 -4.35182e-09 0)
(3.44213e-09 4.06543e-10 0)
(-1.55272e-08 3.30836e-09 0)
(1.33857e-07 4.5947e-09 0)
(-4.61856e-07 4.81448e-08 0)
(-1.01986e-07 -4.49657e-08 0)
(6.42057e-08 4.01319e-09 0)
(9.27078e-10 6.13734e-09 0)
(-8.77253e-09 6.86691e-09 0)
(-6.74438e-09 8.32732e-09 0)
(-6.19968e-09 3.79833e-09 0)
(4.1689e-11 -7.28558e-11 0)
(3.23734e-09 5.69954e-10 0)
(5.5546e-09 1.04042e-09 0)
(2.65914e-10 9.57899e-10 0)
(-2.5737e-09 1.84357e-09 0)
(-1.84048e-09 3.38888e-10 0)
(-2.26638e-10 -8.21563e-10 0)
(-1.77526e-09 -2.11384e-10 0)
(-1.55135e-09 -2.5234e-09 0)
(3.95354e-10 -8.31366e-10 0)
(1.20409e-09 7.4955e-09 0)
(8.65865e-09 -4.70446e-09 0)
(-1.43267e-08 1.05477e-08 0)
(-3.60391e-08 -1.04914e-07 0)
(7.46607e-08 2.84216e-08 0)
(3.96687e-09 -1.10145e-08 0)
(-7.02641e-09 -7.93947e-09 0)
(7.05493e-10 2.42556e-09 0)
(-5.65243e-09 4.48186e-09 0)
(-5.5653e-09 2.84626e-09 0)
(-2.39316e-09 2.0984e-09 0)
(2.68629e-09 2.91531e-09 0)
(3.2179e-09 1.84324e-09 0)
(-1.20181e-10 8.90842e-10 0)
(-2.70978e-09 1.56015e-09 0)
(-2.83016e-09 3.74382e-11 0)
(-7.14846e-10 -2.83509e-09 0)
(-1.35999e-09 -1.89107e-09 0)
(-1.18982e-09 2.97406e-09 0)
(3.74413e-09 3.05941e-09 0)
(-8.13262e-10 1.16088e-09 0)
(6.5954e-09 8.86544e-09 0)
(-2.82493e-08 -4.03412e-08 0)
(-2.64908e-08 1.19935e-07 0)
(3.91833e-08 -5.04673e-08 0)
(4.71854e-09 -2.01783e-08 0)
(1.87813e-08 -3.94714e-09 0)
(7.82645e-09 -2.82114e-09 0)
(-5.69435e-09 -2.53928e-09 0)
(-6.95626e-09 -8.96184e-10 0)
(-7.42588e-11 2.77333e-09 0)
(4.11359e-09 4.55322e-09 0)
(1.95814e-09 1.97208e-09 0)
(-2.39632e-10 -3.82775e-10 0)
(-2.55403e-09 -7.71889e-11 0)
(-3.5975e-09 2.82193e-10 0)
(-1.17188e-09 -2.40873e-09 0)
(5.52946e-10 -1.68295e-09 0)
(2.0871e-10 5.93455e-09 0)
(9.65589e-10 4.18667e-09 0)
(5.69979e-09 -5.55685e-09 0)
(-2.70018e-08 -5.6203e-09 0)
(1.52757e-07 2.48227e-08 0)
(-6.1126e-07 -8.24544e-08 0)
(-1.45436e-07 5.98315e-08 0)
(7.5392e-08 1.85667e-08 0)
(1.73494e-08 8.23225e-10 0)
(2.95579e-09 -7.70343e-09 0)
(-3.34297e-09 -8.85197e-09 0)
(7.51784e-11 -2.88843e-09 0)
(6.24214e-09 3.21693e-09 0)
(5.2061e-09 4.62786e-09 0)
(-1.11089e-09 1.51676e-09 0)
(-1.47483e-10 -1.69365e-09 0)
(-1.6445e-09 -1.99881e-09 0)
(-3.3498e-09 3.75763e-10 0)
(-8.51672e-10 7.62387e-10 0)
(2.23764e-09 -3.15094e-10 0)
(6.57036e-10 4.98827e-09 0)
(-2.53005e-09 4.36869e-09 0)
(-4.12168e-09 -6.60964e-09 0)
(2.42069e-08 -9.01101e-09 0)
(-1.59627e-07 2.48605e-08 0)
(6.35683e-07 -6.48493e-08 0)
(1.57418e-07 6.89563e-08 0)
(-6.80374e-08 1.65309e-08 0)
(-1.42893e-08 1.60686e-09 0)
(-4.94706e-09 -6.5222e-09 0)
(1.12142e-09 -7.64067e-09 0)
(9.38256e-09 -1.55147e-09 0)
(1.08001e-08 2.71233e-09 0)
(3.78296e-09 1.99466e-09 0)
(-4.65906e-09 -2.71065e-10 0)
(4.3501e-11 -1.91416e-09 0)
(-2.14453e-10 -2.5204e-09 0)
(-1.21398e-09 1.1142e-10 0)
(-2.81705e-10 3.01104e-09 0)
(2.95519e-09 1.83258e-09 0)
(3.49776e-10 7.24861e-10 0)
(-4.31493e-09 4.89288e-09 0)
(-3.19363e-09 -1.3468e-09 0)
(-1.96649e-09 -2.35228e-09 0)
(3.23816e-08 -2.72277e-08 0)
(2.81686e-08 1.14637e-07 0)
(-6.23215e-08 -4.88436e-08 0)
(-1.61551e-08 -8.21716e-09 0)
(-1.28553e-08 -2.46487e-09 0)
(-1.00853e-08 -3.73718e-09 0)
(3.65945e-09 -5.46824e-10 0)
(1.18024e-08 2.40751e-09 0)
(8.98706e-09 2.51779e-09 0)
(-5.15319e-10 -9.07124e-10 0)
(-6.62855e-09 -2.03594e-09 0)
(-3.84031e-10 -6.92097e-10 0)
(1.37086e-09 -9.93219e-10 0)
(1.34536e-09 -1.93771e-10 0)
(1.00199e-09 2.09734e-09 0)
(1.56609e-09 2.05326e-09 0)
(1.00126e-09 -1.3588e-09 0)
(-3.76696e-09 1.24673e-09 0)
(-4.77163e-09 6.15429e-09 0)
(-1.10099e-10 -2.6833e-09 0)
(3.52963e-09 -3.44788e-09 0)
(-1.27946e-08 -4.6319e-08 0)
(-1.40931e-09 -1.7101e-08 0)
(-8.36199e-09 -8.12728e-09 0)
(-9.67629e-09 -5.73712e-09 0)
(-3.81211e-10 1.10782e-09 0)
(9.43471e-09 5.27722e-09 0)
(9.1853e-09 4.81416e-09 0)
(2.36751e-09 2.48506e-09 0)
(-4.69616e-09 -1.54521e-09 0)
(-6.28957e-09 -2.27666e-09 0)
(-1.20413e-09 8.4019e-10 0)
(2.58085e-09 1.50219e-09 0)
(2.85908e-09 -2.79657e-10 0)
(1.66653e-09 -4.66736e-10 0)
(2.68587e-10 -2.20547e-11 0)
(1.31147e-10 -1.61902e-09 0)
(-1.10668e-09 -9.69106e-10 0)
(-2.57954e-09 5.7391e-09 0)
(-1.69918e-09 6.57176e-09 0)
(-1.18729e-09 -1.13057e-09 0)
(8.86078e-10 -9.10627e-10 0)
(-2.93003e-09 -1.06375e-09 0)
(-4.29826e-09 -1.40575e-09 0)
(1.82856e-09 2.20931e-09 0)
(8.56944e-09 6.2559e-09 0)
(7.95412e-09 6.01258e-09 0)
(2.38392e-09 3.6348e-09 0)
(-2.459e-09 2.0179e-09 0)
(-5.19705e-09 -8.33961e-10 0)
(-4.41759e-09 -1.66112e-09 0)
(-1.37679e-09 1.43649e-09 0)
(3.12517e-09 2.77907e-09 0)
(2.64612e-09 4.98246e-11 0)
(9.3338e-10 -2.04407e-09 0)
(-9.05738e-10 -1.31842e-09 0)
(-5.6465e-10 -1.07469e-09 0)
(7.51816e-10 -4.48499e-10 0)
(3.84339e-13 2.81258e-09 0)
(-9.06254e-10 6.19844e-09 0)
(-1.67262e-09 4.96856e-09 0)
(-5.2084e-11 5.24905e-09 0)
(-5.05566e-10 4.1105e-09 0)
(2.52351e-09 5.85457e-09 0)
(6.84883e-09 5.40504e-09 0)
(7.15443e-09 3.98843e-09 0)
(3.20576e-09 2.73928e-09 0)
(-1.4329e-09 1.47874e-09 0)
(-3.66128e-09 3.30335e-10 0)
(-3.26277e-09 -1.35126e-09 0)
(-1.7794e-09 -1.42129e-09 0)
(-7.00321e-11 1.60548e-09 0)
(2.83838e-09 1.71437e-09 0)
(1.11216e-09 8.36009e-11 0)
(-7.96997e-10 -1.4177e-09 0)
(-2.02309e-09 -1.23095e-09 0)
(-4.49718e-10 6.71863e-10 0)
(1.25726e-09 5.63564e-10 0)
(1.82235e-09 1.49984e-09 0)
(-9.19469e-10 1.78022e-09 0)
(-8.20585e-10 2.8474e-09 0)
(-1.87341e-09 3.27557e-09 0)
(-1.26004e-09 4.32261e-09 0)
(1.87403e-09 4.86924e-09 0)
(3.92077e-09 1.59799e-09 0)
(4.51376e-09 -8.62723e-10 0)
(5.62759e-10 -1.28416e-10 0)
(-3.43116e-09 2.94256e-10 0)
(-3.05483e-09 -1.48696e-09 0)
(-1.07949e-10 -2.71962e-09 0)
(1.5223e-09 -1.58123e-09 0)
(1.78781e-09 1.62773e-09 0)
(8.62392e-10 -1.51448e-10 0)
(-6.19217e-10 -3.67093e-10 0)
(-2.51138e-09 -5.49573e-11 0)
(-2.3332e-09 -2.33481e-10 0)
(7.27897e-11 1.31846e-09 0)
(2.22136e-09 1.97288e-09 0)
(1.70356e-09 1.03036e-09 0)
(-7.36071e-10 1.34296e-10 0)
(-1.82153e-09 -3.14361e-11 0)
(-2.33191e-09 -1.09597e-09 0)
(-8.92889e-10 8.95508e-10 0)
(-3.57907e-10 8.6329e-10 0)
(1.49295e-09 -1.15991e-09 0)
(2.75205e-09 -2.95597e-09 0)
(-1.09845e-11 -1.34008e-09 0)
(-3.0713e-09 6.03401e-10 0)
(-2.4142e-09 -1.31426e-09 0)
(1.15348e-09 -2.96068e-09 0)
(3.89453e-09 -1.49494e-09 0)
(3.024e-09 7.16408e-10 0)
(-1.05993e-09 -4.41439e-10 0)
(-1.61224e-09 -3.01463e-10 0)
(-3.26337e-09 2.66145e-10 0)
(-2.37427e-09 2.32892e-10 0)
(7.4496e-10 6.042e-10 0)
(2.92414e-09 1.2081e-09 0)
(1.58968e-09 4.98558e-10 0)
(-5.60316e-10 1.79497e-10 0)
(-2.38088e-09 -3.74458e-10 0)
(-1.3667e-09 -7.68729e-10 0)
(-7.66643e-10 -1.25174e-10 0)
(-1.22144e-09 -3.67237e-10 0)
(5.05652e-10 -8.53636e-10 0)
(2.05679e-09 -1.60148e-09 0)
(1.28623e-09 -6.90633e-10 0)
(-2.02118e-09 4.88252e-10 0)
(-2.87356e-09 -4.25206e-10 0)
(9.65983e-10 -1.36264e-09 0)
(5.34684e-09 -6.55566e-10 0)
)
;

boundaryField
{
    sides
    {
        type            calculated;
        value           nonuniform List<vector> 
40
(
(3.024e-09 0 0)
(-1.05993e-09 0 0)
(-1.61224e-09 0 0)
(-3.26337e-09 0 0)
(-2.37427e-09 0 0)
(7.4496e-10 0 0)
(2.92414e-09 0 0)
(1.58968e-09 0 0)
(-5.60316e-10 0 0)
(-2.38088e-09 0 0)
(-1.3667e-09 0 0)
(-7.66643e-10 0 0)
(-1.22144e-09 0 0)
(5.05652e-10 0 0)
(2.05679e-09 0 0)
(1.28623e-09 0 0)
(-2.02118e-09 0 0)
(-2.87356e-09 0 0)
(9.65983e-10 0 0)
(5.34684e-09 0 0)
(1.07368e-10 0 0)
(-2.35638e-09 0 0)
(-3.88801e-09 0 0)
(-2.88634e-09 0 0)
(8.51611e-10 0 0)
(1.76878e-09 0 0)
(2.16026e-10 0 0)
(-6.65562e-10 0 0)
(1.10991e-09 0 0)
(4.99186e-10 0 0)
(2.05857e-09 0 0)
(-1.85019e-09 0 0)
(-3.93774e-10 0 0)
(1.67199e-09 0 0)
(1.85036e-09 0 0)
(5.61299e-09 0 0)
(9.10203e-09 0 0)
(9.39669e-09 0 0)
(6.33261e-09 0 0)
(-1.9108e-09 0 0)
)
;
    }
    inlet
    {
        type            calculated;
        value           uniform (0 0 0);
    }
    outlet
    {
        type            calculated;
        value           nonuniform List<vector> 
20
(
(-1.9108e-09 -1.91403e-09 0)
(-6.82197e-12 -3.83984e-09 0)
(5.74062e-09 -2.96774e-09 0)
(4.48358e-09 1.61455e-11 0)
(1.90422e-09 1.90897e-09 0)
(1.61815e-09 1.17634e-09 0)
(3.33787e-09 3.08324e-10 0)
(4.77046e-09 1.30278e-10 0)
(5.5546e-09 1.04042e-09 0)
(3.2179e-09 1.84324e-09 0)
(1.95814e-09 1.97208e-09 0)
(-1.11089e-09 1.51676e-09 0)
(-4.65906e-09 -2.71065e-10 0)
(-6.62855e-09 -2.03594e-09 0)
(-6.28957e-09 -2.27666e-09 0)
(-4.41759e-09 -1.66112e-09 0)
(-1.7794e-09 -1.42129e-09 0)
(1.5223e-09 -1.58123e-09 0)
(3.89453e-09 -1.49494e-09 0)
(5.34684e-09 -6.55566e-10 0)
)
;
    }
    frontAndBack
    {
        type            empty;
    }
}


// ************************************************************************* //
