/*--------------------------------*- C++ -*----------------------------------*\
  =========                 |
  \\      /  F ield         | OpenFOAM: The Open Source CFD Toolbox
   \\    /   O peration     | Website:  https://openfoam.org
    \\  /    A nd           | Version:  9
     \\/     M anipulation  |
\*---------------------------------------------------------------------------*/
FoamFile
{
    format      ascii;
    class       surfaceScalarField;
    location    "75";
    object      ddtCorrDdt0(phi);
}
// * * * * * * * * * * * * * * * * * * * * * * * * * * * * * * * * * * * * * //

dimensions      [0 4 -2 0 0 0 0];

internalField   nonuniform List<scalar> 
760
(
1.00454e-12
-1.56727e-11
-2.47289e-11
-1.76575e-11
-2.66835e-11
6.3504e-12
-1.90851e-12
3.38033e-11
2.14838e-11
3.53743e-11
7.34934e-12
-5.3117e-12
-1.26388e-11
-4.64795e-11
2.6591e-12
-2.90087e-11
6.89322e-12
-3.63077e-11
7.51576e-12
-4.06504e-12
-1.01024e-12
-1.84888e-12
-1.24575e-11
-1.32226e-12
6.81632e-12
1.92435e-11
4.95223e-12
2.28962e-11
2.16756e-11
4.39135e-11
4.18884e-11
3.1299e-11
4.63269e-11
-2.39129e-12
4.14392e-11
-3.02266e-11
1.18848e-11
-3.83701e-11
-1.17391e-11
3.87443e-12
-1.96675e-11
-7.25124e-12
-2.04609e-11
-3.67678e-12
1.28388e-11
7.05055e-12
4.45202e-11
5.99301e-13
2.97886e-11
-1.7565e-11
-3.11405e-11
-3.7522e-12
-4.86782e-11
-9.95938e-12
-2.06547e-11
1.64748e-11
-1.11569e-11
-2.31082e-11
-2.58919e-12
2.55426e-11
2.75501e-11
-8.91505e-12
-9.42148e-12
-5.76883e-12
3.60205e-11
1.02252e-11
3.07676e-11
-5.05654e-12
3.45027e-11
-9.47105e-12
3.82763e-11
9.46303e-12
9.842e-12
2.17053e-11
-2.03334e-11
3.95115e-12
-3.26584e-11
-2.20168e-11
3.45748e-12
-1.09024e-11
1.52701e-11
-1.03252e-11
2.55646e-11
1.21682e-11
6.30363e-12
2.19727e-11
-3.49465e-11
-9.33599e-12
-2.86762e-11
-3.40461e-11
1.25268e-11
1.85647e-11
-1.97091e-11
-9.90697e-12
1.62332e-11
3.98098e-11
4.13771e-12
-1.40779e-11
-2.71127e-11
1.85587e-11
2.36208e-11
7.631e-12
-2.0608e-11
-2.50147e-11
6.37681e-12
1.49041e-11
-3.53206e-12
-3.46553e-12
-4.88754e-11
-8.18256e-12
-4.59751e-11
4.75666e-12
-4.72024e-12
1.83641e-12
2.72882e-11
-8.40642e-12
-3.9619e-12
4.4504e-12
2.319e-12
2.85309e-11
4.32424e-13
3.62645e-11
2.13579e-12
-1.08708e-11
-9.96187e-12
-5.23041e-11
-3.46148e-11
1.46939e-11
2.14476e-11
-1.99646e-11
1.67104e-11
2.53013e-11
2.60806e-11
-3.9068e-11
-1.36876e-11
5.5083e-11
6.66932e-11
-2.62024e-11
-9.98967e-11
-5.8514e-12
1.58441e-11
2.46367e-11
-1.13038e-11
-1.38906e-11
-4.18842e-11
-2.41091e-12
-1.62661e-11
-2.1728e-11
-1.88468e-11
-4.28805e-11
-9.42226e-12
-3.42679e-11
4.29992e-12
3.46656e-12
9.52129e-12
5.45349e-12
2.75699e-12
1.22086e-11
2.47923e-11
2.31096e-12
2.57149e-11
-5.34889e-12
-3.30225e-11
-2.60042e-11
-4.84418e-12
-4.76312e-12
1.42619e-11
1.96393e-11
-1.22514e-11
1.74682e-11
-4.93516e-12
-4.6902e-13
4.39067e-11
2.10234e-11
-1.04201e-10
-5.67507e-11
9.15292e-11
1.87402e-10
-2.04297e-11
-1.56076e-10
-1.81229e-11
1.12587e-11
2.36806e-11
1.84573e-11
2.88386e-12
-4.03788e-11
4.01167e-12
-3.36405e-11
-1.00801e-11
-1.87303e-11
-3.23781e-11
-1.11576e-11
-8.48664e-12
4.07612e-12
6.74349e-12
-7.8761e-12
8.41508e-12
1.30082e-11
2.90602e-12
1.03593e-12
-7.03413e-12
-1.89123e-11
-6.22627e-12
2.2016e-11
7.25639e-12
1.30844e-11
1.56081e-11
-1.62813e-11
-1.13495e-11
-4.03276e-12
-1.6958e-11
1.30499e-11
5.7421e-11
2.4766e-11
-1.95846e-10
-1.34602e-10
3.40067e-10
1.51134e-10
2.11426e-10
-1.23371e-11
-1.30162e-10
-4.62382e-11
-1.05553e-11
1.13786e-11
2.63648e-11
4.06115e-11
-4.19316e-12
2.43311e-11
-1.96672e-11
-1.10799e-11
-2.2027e-11
-3.7825e-12
-6.77271e-12
2.22113e-12
-1.65897e-11
-1.32299e-12
-1.66306e-12
1.97197e-12
-6.0104e-12
2.60508e-12
-6.83891e-12
6.79095e-12
3.51214e-11
2.01917e-11
6.22099e-13
-1.54931e-11
-3.3966e-11
-2.5651e-11
8.68877e-11
9.87989e-12
-2.34452e-10
-1.32653e-10
4.77056e-10
5.06116e-10
-2.24933e-10
-3.38801e-09
-1.72831e-10
2.46548e-10
9.71341e-11
1.76824e-10
-6.53941e-12
-7.18289e-12
-2.70409e-11
1.03358e-11
2.67187e-11
1.47377e-11
3.18816e-11
-4.90322e-12
7.60548e-12
-1.52099e-11
1.0104e-11
-8.34579e-12
3.34324e-13
-1.88489e-11
-3.72571e-12
-6.47547e-12
4.57223e-12
-7.06401e-12
3.8498e-12
7.97182e-12
1.6496e-11
1.4445e-11
4.13095e-12
-1.05869e-11
-2.12001e-11
9.59763e-12
-3.57781e-11
-6.76039e-11
-1.15598e-11
9.6372e-11
1.87536e-10
-8.42218e-12
-4.37372e-10
2.23939e-09
3.54415e-08
-2.95106e-10
-6.79345e-10
-1.50115e-10
-5.06854e-11
-1.26036e-11
6.29235e-11
-1.70209e-11
5.30723e-11
1.2449e-11
3.67753e-11
1.99446e-11
1.51582e-11
9.80996e-12
4.3988e-13
1.82933e-11
2.94545e-13
1.67302e-12
-1.48629e-11
2.44854e-12
-1.1516e-11
8.24215e-12
2.35842e-12
3.10851e-12
3.74582e-12
1.98662e-12
-5.47507e-12
5.43696e-12
-1.6041e-11
-3.5157e-11
-1.08413e-11
4.8388e-12
8.45839e-11
2.60805e-11
-1.16954e-10
-9.87617e-11
4.09543e-11
5.22623e-10
-2.29754e-09
-3.34832e-09
3.2361e-10
2.2195e-10
1.17275e-10
1.35608e-10
-3.71115e-11
2.10158e-11
-3.88483e-11
3.75532e-11
-3.0678e-11
3.58021e-11
-1.58836e-11
2.38662e-09
4.64104e-12
6.54071e-12
2.20569e-11
1.03217e-11
-6.54998e-10
-1.08374e-11
7.36752e-12
-1.64812e-11
1.03939e-11
9.33672e-13
-4.10073e-13
1.07181e-11
-1.13482e-11
-3.77269e-11
-7.86786e-12
-3.90528e-12
8.09386e-12
3.73096e-11
1.08031e-12
-4.58653e-11
4.27404e-11
1.82086e-10
2.54843e-12
-4.38585e-10
-1.79587e-10
3.07632e-10
-2.36064e-11
1.85006e-10
-4.24406e-11
-5.14617e-11
-1.92865e-10
-3.14729e-12
-6.17536e-11
-8.01867e-12
-6.04151e-13
-3.30327e-11
5.15812e-12
-2.48353e-11
5.56694e-12
1.46339e-12
1.22429e-11
1.88568e-11
1.66604e-11
7.51675e-12
-6.39423e-12
2.81809e-12
-2.38023e-11
6.07971e-12
-7.45155e-12
-9.30649e-14
1.15839e-11
-1.86036e-11
-2.8118e-11
-7.13867e-12
-1.00294e-11
2.61162e-11
6.94182e-11
2.89829e-11
-2.62678e-11
-4.17661e-11
6.80509e-12
8.22855e-11
-3.15627e-10
-4.75304e-10
2.1876e-10
3.76385e-09
1.87686e-11
-3.83474e-10
8.89611e-11
-4.24664e-11
7.49285e-11
3.64674e-12
-4.11599e-13
-2.78004e-11
-4.06011e-11
-3.19041e-11
-2.0374e-11
-1.15499e-11
1.43922e-11
1.31011e-11
1.79981e-11
2.20784e-11
9.18414e-12
3.43925e-14
-6.02357e-12
-2.53196e-11
-5.90505e-12
-2.21458e-11
3.18116e-12
1.45912e-11
-6.86049e-12
-1.7899e-12
-5.09535e-12
-7.59121e-12
3.64245e-11
2.31225e-11
3.34063e-12
6.9896e-11
-1.11601e-11
-2.60583e-10
-1.12255e-10
2.25163e-11
7.24374e-10
-3.05574e-09
-2.34676e-08
3.42739e-10
8.33216e-10
1.88729e-10
2.08957e-10
3.8062e-11
1.8137e-11
-2.16776e-12
-3.55965e-11
-1.54238e-11
-3.30816e-11
1.8332e-11
-1.6583e-11
3.5647e-11
1.42687e-11
1.01529e-11
1.91768e-11
4.70815e-12
2.95969e-12
-1.18184e-11
-1.54838e-11
-1.37661e-11
-2.85994e-11
2.31961e-12
1.03908e-11
1.50646e-11
3.29968e-11
2.15366e-12
-2.52297e-11
1.46323e-11
-1.13435e-11
2.90377e-11
-5.38842e-11
-3.73318e-11
2.21779e-10
3.75551e-11
-2.98609e-11
-4.35998e-10
3.20277e-09
3.3773e-09
-3.00443e-10
-2.53953e-10
-1.64466e-10
-5.6387e-11
-3.37944e-11
1.28731e-11
-1.56982e-11
-2.07753e-11
2.91932e-11
-1.78256e-11
5.68543e-11
3.65296e-12
4.50588e-11
1.40378e-11
-4.99716e-12
2.1499e-12
-5.8938e-12
4.1392e-12
-7.95122e-12
-7.64706e-13
-1.12925e-11
-1.51577e-11
4.6112e-13
-1.1642e-12
1.73485e-11
3.967e-11
1.55781e-11
-8.61734e-12
-9.32005e-12
-7.02207e-11
2.06917e-11
2.0712e-11
2.16232e-11
-2.29928e-11
-6.88351e-11
4.29688e-10
3.6788e-11
-3.2127e-10
-5.35281e-10
-1.50735e-10
-1.285e-10
-5.82522e-11
-3.21676e-11
-6.95309e-11
-4.41783e-11
-1.89873e-11
-2.19085e-11
4.50532e-11
1.05037e-11
5.94941e-11
2.35898e-11
2.90716e-11
1.47907e-11
-2.14074e-11
-7.29998e-12
-1.18395e-11
4.73769e-12
1.44258e-12
1.22248e-11
2.14838e-12
2.43267e-12
-1.61752e-12
-2.24916e-12
4.86928e-12
1.56048e-11
5.15266e-12
1.54269e-11
-6.86352e-12
-5.74801e-11
-8.06653e-12
-2.39581e-11
4.18155e-11
4.51131e-11
2.18828e-11
-3.8428e-11
-4.01739e-11
-2.75912e-11
1.5166e-10
-2.44353e-11
-4.24109e-11
-5.13979e-11
-3.76515e-11
-3.08933e-11
-1.50599e-11
2.36344e-11
2.4568e-11
5.08626e-11
3.70987e-11
3.33388e-11
2.52934e-11
-1.15871e-12
1.26483e-11
-3.04075e-11
-5.65319e-12
-1.00009e-11
8.78872e-12
7.90636e-12
1.53696e-11
1.42845e-11
1.38364e-11
-1.11406e-12
-3.13452e-12
-1.02062e-11
5.62897e-13
-6.0102e-12
1.02359e-11
-1.04859e-11
-1.20439e-11
-2.40624e-12
-2.97946e-11
1.90078e-11
3.39513e-12
4.6258e-11
4.83297e-13
2.34657e-11
1.26691e-12
1.77177e-11
-2.68056e-11
9.58454e-12
-6.73796e-12
1.83484e-11
3.08361e-11
3.07382e-11
4.07716e-11
3.37915e-11
2.3315e-11
2.30886e-11
4.18467e-12
1.28907e-11
-1.63117e-11
7.66794e-12
-2.7019e-11
-4.34562e-12
-7.61562e-12
1.58631e-11
7.13608e-12
1.06247e-11
1.40322e-11
1.10934e-11
1.04312e-12
-2.67056e-12
-1.15508e-11
-1.24115e-11
-7.33031e-12
1.15277e-11
1.12884e-13
4.72077e-12
-1.97252e-12
-6.1286e-12
9.30213e-12
-1.34143e-11
1.94933e-11
-5.60279e-13
3.0882e-11
1.19877e-12
3.06478e-11
-1.28283e-12
3.18989e-11
2.6099e-11
3.82058e-11
4.21433e-11
2.15624e-11
2.29969e-11
6.43388e-12
-1.91708e-13
5.67327e-12
-7.93831e-12
2.32301e-12
-1.63103e-11
-5.70699e-12
-1.58868e-11
-1.18068e-11
-8.1524e-12
1.98004e-11
5.9927e-12
5.44649e-12
1.79969e-12
-3.22266e-13
2.60882e-12
-6.6835e-12
3.38121e-14
-1.36731e-11
-3.43944e-12
5.9555e-12
7.77118e-12
1.60925e-11
6.3425e-12
2.1969e-13
3.8505e-12
-1.22668e-11
-1.211e-12
-6.49482e-13
5.94404e-12
-1.13945e-11
5.21544e-12
2.13692e-12
1.47939e-11
1.16018e-11
1.40473e-11
2.63079e-11
-2.52783e-12
1.60785e-11
-1.21693e-11
-1.22656e-11
-4.69331e-12
-1.67661e-11
7.9717e-13
-7.87575e-12
-1.05087e-11
2.65668e-12
-1.6221e-11
-8.07795e-12
7.74206e-12
5.58212e-12
4.19294e-12
-6.2175e-12
-8.07125e-12
1.61413e-13
-1.59779e-11
5.83944e-12
-8.12155e-12
2.70118e-12
6.50282e-12
5.17988e-12
1.88539e-11
1.04515e-11
-8.9349e-13
7.7637e-13
-9.5995e-12
-2.52267e-12
-1.25271e-11
-5.63514e-12
-4.39518e-12
-6.70162e-12
-1.83884e-12
-2.35428e-12
-5.34074e-12
-4.32752e-12
1.35168e-11
-7.53909e-12
1.71777e-11
-1.44042e-11
-9.1603e-12
-5.8132e-12
-2.39062e-11
2.99684e-12
-5.1967e-12
-7.68167e-12
1.65947e-11
-1.336e-11
-6.07661e-12
-9.06665e-12
4.98725e-12
-8.55183e-12
-2.14475e-11
-6.86849e-12
1.35744e-11
1.59618e-11
1.39622e-12
-1.06364e-11
-1.45302e-11
1.52366e-12
-4.00674e-12
-9.94991e-12
4.56977e-12
2.37651e-11
2.2087e-12
-3.03836e-11
-1.06536e-11
2.48112e-11
)
;

boundaryField
{
    sides
    {
        type            calculated;
        value           uniform 0;
    }
    inlet
    {
        type            calculated;
        value           uniform 0;
    }
    outlet
    {
        type            calculated;
        value           nonuniform List<scalar> 
20
(
-1.96499e-11
-1.46175e-12
3.01481e-11
3.24306e-11
1.96235e-11
1.68691e-11
2.52023e-11
3.34963e-11
3.70927e-11
1.63281e-11
5.68335e-12
-1.54829e-11
-3.84983e-11
-4.91285e-11
-4.30306e-11
-2.80046e-11
-9.00404e-12
1.08543e-11
2.39307e-11
3.1724e-11
)
;
    }
    frontAndBack
    {
        type            empty;
        value           nonuniform List<scalar> 0();
    }
}


// ************************************************************************* //
