/*--------------------------------*- C++ -*----------------------------------*\
  =========                 |
  \\      /  F ield         | OpenFOAM: The Open Source CFD Toolbox
   \\    /   O peration     | Website:  https://openfoam.org
    \\  /    A nd           | Version:  9
     \\/     M anipulation  |
\*---------------------------------------------------------------------------*/
FoamFile
{
    format      ascii;
    class       volVectorField;
    location    "75";
    object      hU;
}
// * * * * * * * * * * * * * * * * * * * * * * * * * * * * * * * * * * * * * //

dimensions      [0 2 -1 0 0 0 0];

internalField   nonuniform List<vector> 
400
(
(0.001 -2.4397e-08 0)
(0.00100004 -7.05515e-08 0)
(0.00100012 -1.1309e-07 0)
(0.00100024 -1.51954e-07 0)
(0.00100039 -1.86598e-07 0)
(0.00100058 -2.1619e-07 0)
(0.00100078 -2.36781e-07 0)
(0.00100099 -2.45346e-07 0)
(0.00100118 -2.36545e-07 0)
(0.00100133 -2.11671e-07 0)
(0.0010014 -1.69435e-07 0)
(0.0010014 -1.2912e-07 0)
(0.00100129 -9.9407e-08 0)
(0.00100111 -9.33055e-08 0)
(0.00100087 -9.9777e-08 0)
(0.00100065 -1.35959e-07 0)
(0.00100044 -1.57321e-07 0)
(0.00100034 -2.02107e-07 0)
(0.00100026 -1.89506e-07 0)
(0.00100033 -2.68843e-07 0)
(0.001 -2.71834e-08 0)
(0.00100005 -7.89452e-08 0)
(0.00100013 -1.27832e-07 0)
(0.00100026 -1.72841e-07 0)
(0.00100042 -2.11717e-07 0)
(0.00100062 -2.39403e-07 0)
(0.00100084 -2.45836e-07 0)
(0.00100108 -2.20462e-07 0)
(0.0010013 -1.55056e-07 0)
(0.00100147 -4.8575e-08 0)
(0.00100156 9.23913e-08 0)
(0.00100154 2.46238e-07 0)
(0.00100141 3.89085e-07 0)
(0.00100119 4.76634e-07 0)
(0.00100093 5.05193e-07 0)
(0.00100067 4.51476e-07 0)
(0.00100048 3.76939e-07 0)
(0.00100037 2.55296e-07 0)
(0.00100033 2.03911e-07 0)
(0.00100029 8.04075e-08 0)
(0.001 -5.31105e-08 0)
(0.00100004 -1.59095e-07 0)
(0.00100013 -2.66112e-07 0)
(0.00100026 -3.72241e-07 0)
(0.00100043 -4.72341e-07 0)
(0.00100064 -5.55309e-07 0)
(0.0010009 -6.03497e-07 0)
(0.00100117 -5.97475e-07 0)
(0.00100143 -5.17759e-07 0)
(0.00100164 -3.52184e-07 0)
(0.00100176 -1.10187e-07 0)
(0.00100176 1.61972e-07 0)
(0.00100159 4.02052e-07 0)
(0.00100131 5.20929e-07 0)
(0.00100095 5.00183e-07 0)
(0.00100062 3.53924e-07 0)
(0.00100037 2.02316e-07 0)
(0.00100026 4.49688e-08 0)
(0.00100022 -4.15687e-09 0)
(0.0010003 -1.17646e-07 0)
(0.001 -7.36384e-08 0)
(0.00100004 -2.21907e-07 0)
(0.00100013 -3.73919e-07 0)
(0.00100026 -5.29534e-07 0)
(0.00100045 -6.80647e-07 0)
(0.00100069 -8.10271e-07 0)
(0.001001 -8.88583e-07 0)
(0.00100134 -8.8471e-07 0)
(0.00100171 -7.54515e-07 0)
(0.00100203 -4.74354e-07 0)
(0.00100222 -2.3209e-08 0)
(0.00100219 4.93383e-07 0)
(0.00100193 9.37705e-07 0)
(0.00100146 1.14084e-06 0)
(0.00100097 1.05558e-06 0)
(0.00100058 7.43295e-07 0)
(0.00100041 4.23614e-07 0)
(0.00100035 1.70129e-07 0)
(0.0010004 1.02235e-07 0)
(0.00100035 2.57031e-10 0)
(0.001 -9.04088e-08 0)
(0.00100004 -2.77073e-07 0)
(0.00100012 -4.76028e-07 0)
(0.00100025 -6.93749e-07 0)
(0.00100044 -9.21442e-07 0)
(0.00100072 -1.13947e-06 0)
(0.00100109 -1.29823e-06 0)
(0.00100155 -1.33594e-06 0)
(0.00100207 -1.17408e-06 0)
(0.00100257 -7.77653e-07 0)
(0.0010029 -1.70392e-07 0)
(0.00100288 5.78547e-07 0)
(0.00100244 1.23183e-06 0)
(0.00100167 1.51273e-06 0)
(0.00100086 1.37584e-06 0)
(0.00100031 9.64695e-07 0)
(0.00100013 5.81293e-07 0)
(0.00100022 3.15093e-07 0)
(0.00100037 2.63365e-07 0)
(0.00100043 1.68289e-07 0)
(0.001 -1.02381e-07 0)
(0.00100003 -3.17288e-07 0)
(0.00100009 -5.61203e-07 0)
(0.00100019 -8.44682e-07 0)
(0.00100038 -1.17336e-06 0)
(0.00100068 -1.52524e-06 0)
(0.00100115 -1.85884e-06 0)
(0.00100179 -2.05334e-06 0)
(0.00100254 -1.91052e-06 0)
(0.00100326 -1.20055e-06 0)
(0.00100377 8.59355e-08 0)
(0.00100378 1.54317e-06 0)
(0.0010031 2.4345e-06 0)
(0.00100192 2.30623e-06 0)
(0.00100082 1.43066e-06 0)
(0.00100019 4.92144e-07 0)
(0.00100017 1.26476e-08 0)
(0.00100037 -8.52216e-08 0)
(0.00100064 6.10358e-08 0)
(0.00100055 5.02855e-08 0)
(0.001 -1.01702e-07 0)
(0.001 -3.32248e-07 0)
(0.00100002 -6.00969e-07 0)
(0.00100008 -9.61779e-07 0)
(0.00100021 -1.39265e-06 0)
(0.00100048 -1.94669e-06 0)
(0.001001 -2.48965e-06 0)
(0.00100188 -3.08398e-06 0)
(0.00100321 -3.23396e-06 0)
(0.00100473 -2.87919e-06 0)
(0.00100574 -6.7002e-07 0)
(0.00100535 2.55784e-06 0)
(0.0010035 4.82798e-06 0)
(0.00100112 4.73693e-06 0)
(0.000999609 3.02861e-06 0)
(0.000999373 1.26336e-06 0)
(0.00100001 4.29994e-07 0)
(0.00100056 3.26182e-07 0)
(0.00100093 5.62333e-07 0)
(0.00100066 5.34e-07 0)
(0.000999995 -9.19156e-08 0)
(0.000999968 -2.87657e-07 0)
(0.000999907 -5.7607e-07 0)
(0.000999876 -9.56342e-07 0)
(0.000999879 -1.57754e-06 0)
(0.0010001 -2.34562e-06 0)
(0.0010005 -3.40342e-06 0)
(0.00100152 -4.12504e-06 0)
(0.00100308 -4.37279e-06 0)
(0.00100601 -2.55051e-06 0)
(0.00100911 7.5059e-07 0)
(0.00100914 4.26337e-06 0)
(0.0010055 4.71949e-06 0)
(0.00100074 2.78314e-06 0)
(0.000998151 7.35861e-07 0)
(0.000998276 -2.74942e-07 0)
(0.0009998 -2.87105e-07 0)
(0.00100088 -1.06174e-08 0)
(0.00100133 2.11838e-07 0)
(0.00100085 1.02699e-07 0)
(0.000999995 -4.87906e-08 0)
(0.000999914 -2.02897e-07 0)
(0.000999756 -3.85695e-07 0)
(0.000999532 -7.34554e-07 0)
(0.000999288 -1.33861e-06 0)
(0.000999211 -2.48238e-06 0)
(0.000999706 -4.68862e-06 0)
(0.00100139 -8.06861e-06 0)
(0.00100491 -1.32848e-05 0)
(0.00100958 -1.49132e-05 0)
(0.00101189 3.83844e-06 0)
(0.00100893 1.87259e-05 0)
(0.00100222 1.5782e-05 0)
(0.000997566 5.74298e-06 0)
(0.000996885 -3.15054e-07 0)
(0.000998461 -1.26298e-06 0)
(0.00100027 -9.48823e-08 0)
(0.00100101 6.34003e-07 0)
(0.00100108 6.51493e-07 0)
(0.00100054 2.4354e-07 0)
(0.000999804 -1.95375e-08 0)
(0.00100017 -6.59981e-08 0)
(0.000999216 -1.50766e-07 0)
(0.000999905 -2.4854e-07 0)
(0.000997521 -5.92584e-07 0)
(0.000998843 -1.13226e-06 0)
(0.000993347 -2.88448e-06 0)
(0.000997531 -5.59222e-06 0)
(0.000991668 -1.15415e-05 0)
(0.000915832 -1.27043e-05 0)
(0.000951465 2.72487e-07 0)
(0.00101023 1.46406e-05 0)
(0.000990952 1.30841e-05 0)
(0.000983975 5.14138e-06 0)
(0.000989586 1.9502e-07 0)
(0.000996281 -7.80705e-07 0)
(0.000999237 -1.11117e-07 0)
(0.000999413 2.4844e-07 0)
(0.000998649 1.74152e-07 0)
(0.000998506 -1.85077e-07 0)
(0.000999804 1.30409e-08 0)
(0.00100017 4.613e-08 0)
(0.000999215 1.1772e-07 0)
(0.000999903 1.99798e-07 0)
(0.000997519 5.28791e-07 0)
(0.000998838 1.05098e-06 0)
(0.000993339 2.78631e-06 0)
(0.00099752 5.47368e-06 0)
(0.000991652 1.13982e-05 0)
(0.000915809 1.25467e-05 0)
(0.000951429 -4.68924e-07 0)
(0.00101021 -1.4909e-05 0)
(0.000990948 -1.34088e-05 0)
(0.000983968 -5.53519e-06 0)
(0.000989568 -6.4775e-07 0)
(0.000996243 2.48706e-07 0)
(0.000999196 -4.71903e-07 0)
(0.000999368 -1.00184e-06 0)
(0.000998635 -9.8854e-07 0)
(0.000998456 -8.88837e-07 0)
(0.000999995 4.22866e-08 0)
(0.000999915 1.83436e-07 0)
(0.000999755 3.53172e-07 0)
(0.000999531 6.8702e-07 0)
(0.000999285 1.27611e-06 0)
(0.00099921 2.40167e-06 0)
(0.000999703 4.58937e-06 0)
(0.00100139 7.94174e-06 0)
(0.0010049 1.31298e-05 0)
(0.00100958 1.47193e-05 0)
(0.00101189 -4.06655e-06 0)
(0.0010089 -1.90019e-05 0)
(0.00100214 -1.60952e-05 0)
(0.00099748 -6.12368e-06 0)
(0.000996815 -8.52151e-08 0)
(0.000998401 7.75168e-07 0)
(0.00100017 -4.26775e-07 0)
(0.00100085 -1.30459e-06 0)
(0.00100088 -1.37957e-06 0)
(0.00100037 -1.25114e-06 0)
(0.000999996 8.56105e-08 0)
(0.000999967 2.68936e-07 0)
(0.000999905 5.44062e-07 0)
(0.000999871 9.1008e-07 0)
(0.000999871 1.51372e-06 0)
(0.00100008 2.2619e-06 0)
(0.00100048 3.29415e-06 0)
(0.00100149 3.98983e-06 0)
(0.00100303 4.20841e-06 0)
(0.00100594 2.3647e-06 0)
(0.00100902 -9.78774e-07 0)
(0.00100907 -4.53584e-06 0)
(0.00100542 -5.01977e-06 0)
(0.00100066 -3.13098e-06 0)
(0.000998059 -1.13276e-06 0)
(0.000998136 -2.51715e-07 0)
(0.000999624 -3.2227e-07 0)
(0.00100064 -7.41509e-07 0)
(0.00100106 -9.68252e-07 0)
(0.00100055 -1.07463e-06 0)
(0.001 9.58307e-08 0)
(0.001 3.14176e-07 0)
(0.00100002 5.70474e-07 0)
(0.00100007 9.17502e-07 0)
(0.0010002 1.33411e-06 0)
(0.00100046 1.87116e-06 0)
(0.00100097 2.39908e-06 0)
(0.00100185 2.97484e-06 0)
(0.00100318 3.11099e-06 0)
(0.00100469 2.72954e-06 0)
(0.00100568 5.10449e-07 0)
(0.00100527 -2.75532e-06 0)
(0.00100338 -5.07816e-06 0)
(0.00100096 -5.07119e-06 0)
(0.000999411 -3.44958e-06 0)
(0.000999124 -1.79358e-06 0)
(0.000999747 -1.02027e-06 0)
(0.00100025 -1.05941e-06 0)
(0.00100062 -1.30862e-06 0)
(0.00100024 -1.51645e-06 0)
(0.001 9.71877e-08 0)
(0.00100003 3.01245e-07 0)
(0.00100008 5.34216e-07 0)
(0.00100019 8.0548e-07 0)
(0.00100036 1.1219e-06 0)
(0.00100066 1.45921e-06 0)
(0.00100112 1.77782e-06 0)
(0.00100174 1.95116e-06 0)
(0.00100248 1.78305e-06 0)
(0.00100317 1.03534e-06 0)
(0.00100366 -2.81434e-07 0)
(0.00100363 -1.78232e-06 0)
(0.00100292 -2.71021e-06 0)
(0.00100171 -2.63145e-06 0)
(0.00100058 -1.77811e-06 0)
(0.000999907 -8.94168e-07 0)
(0.00099986 -4.26251e-07 0)
(0.000999982 -4.48098e-07 0)
(0.00100022 -6.17746e-07 0)
(0.00100001 -8.49368e-07 0)
(0.001 8.5745e-08 0)
(0.00100004 2.63268e-07 0)
(0.00100011 4.5299e-07 0)
(0.00100024 6.60852e-07 0)
(0.00100043 8.77577e-07 0)
(0.0010007 1.08382e-06 0)
(0.00100106 1.22883e-06 0)
(0.0010015 1.25244e-06 0)
(0.001002 1.07425e-06 0)
(0.00100248 6.57894e-07 0)
(0.0010028 1.94402e-08 0)
(0.00100274 -7.68877e-07 0)
(0.00100228 -1.44893e-06 0)
(0.00100146 -1.77343e-06 0)
(0.00100063 -1.66703e-06 0)
(0.00100001 -1.34702e-06 0)
(0.000999795 -1.0284e-06 0)
(0.000999766 -9.36866e-07 0)
(0.000999886 -9.46262e-07 0)
(0.000999769 -1.10897e-06 0)
(0.001 6.94837e-08 0)
(0.00100004 2.093e-07 0)
(0.00100012 3.52966e-07 0)
(0.00100025 5.00304e-07 0)
(0.00100043 6.43394e-07 0)
(0.00100066 7.64912e-07 0)
(0.00100096 8.36247e-07 0)
(0.00100129 8.24816e-07 0)
(0.00100163 6.91241e-07 0)
(0.00100191 4.0705e-07 0)
(0.00100206 -4.58136e-08 0)
(0.001002 -5.74695e-07 0)
(0.00100171 -1.03439e-06 0)
(0.0010012 -1.28071e-06 0)
(0.00100065 -1.2292e-06 0)
(0.00100016 -9.93691e-07 0)
(0.000999915 -7.0115e-07 0)
(0.000999741 -5.56614e-07 0)
(0.000999754 -4.87952e-07 0)
(0.000999562 -5.98672e-07 0)
(0.001 5.11324e-08 0)
(0.00100004 1.49642e-07 0)
(0.00100012 2.45713e-07 0)
(0.00100025 3.37576e-07 0)
(0.00100041 4.20645e-07 0)
(0.00100062 4.82545e-07 0)
(0.00100086 5.07634e-07 0)
(0.00100112 4.72334e-07 0)
(0.00100137 3.60947e-07 0)
(0.00100157 1.56105e-07 0)
(0.00100167 -1.16091e-07 0)
(0.00100161 -4.20426e-07 0)
(0.0010014 -6.81122e-07 0)
(0.00100104 -8.42434e-07 0)
(0.00100064 -8.50581e-07 0)
(0.00100022 -7.70693e-07 0)
(0.000999951 -6.37319e-07 0)
(0.000999691 -5.96551e-07 0)
(0.00099963 -5.62042e-07 0)
(0.000999389 -6.84983e-07 0)
(0.001 3.55267e-08 0)
(0.00100004 1.04653e-07 0)
(0.00100011 1.73651e-07 0)
(0.00100023 2.40727e-07 0)
(0.00100038 3.01331e-07 0)
(0.00100056 3.49144e-07 0)
(0.00100077 3.74855e-07 0)
(0.00100097 3.68387e-07 0)
(0.00100116 3.19675e-07 0)
(0.0010013 2.24249e-07 0)
(0.00100136 8.63387e-08 0)
(0.00100131 -7.02378e-08 0)
(0.00100115 -2.06115e-07 0)
(0.00100086 -2.97609e-07 0)
(0.00100054 -3.12819e-07 0)
(0.00100017 -2.8187e-07 0)
(0.000999902 -2.02229e-07 0)
(0.000999615 -1.68655e-07 0)
(0.000999519 -1.1911e-07 0)
(0.000999251 -1.98593e-07 0)
(0.001 -3.62861e-09 0)
(0.00100004 -9.87783e-09 0)
(0.00100012 -1.3282e-08 0)
(0.00100024 -1.51802e-08 0)
(0.00100038 -1.74948e-08 0)
(0.00100056 -2.31469e-08 0)
(0.00100075 -3.38925e-08 0)
(0.00100094 -5.35044e-08 0)
(0.00100112 -8.17858e-08 0)
(0.00100123 -1.22124e-07 0)
(0.00100128 -1.69844e-07 0)
(0.00100122 -2.31321e-07 0)
(0.00100107 -2.90588e-07 0)
(0.00100081 -3.41362e-07 0)
(0.00100053 -3.59787e-07 0)
(0.00100018 -3.67953e-07 0)
(0.000999947 -3.42184e-07 0)
(0.000999611 -3.52831e-07 0)
(0.000999524 -3.28137e-07 0)
(0.000999133 -4.10701e-07 0)
)
;

boundaryField
{
    sides
    {
        type            slip;
    }
    inlet
    {
        type            fixedValue;
        value           uniform (0.001 0 0);
    }
    outlet
    {
        type            zeroGradient;
    }
    frontAndBack
    {
        type            empty;
    }
}


// ************************************************************************* //
