/*--------------------------------*- C++ -*----------------------------------*\
  =========                 |
  \\      /  F ield         | OpenFOAM: The Open Source CFD Toolbox
   \\    /   O peration     | Website:  https://openfoam.org
    \\  /    A nd           | Version:  9
     \\/     M anipulation  |
\*---------------------------------------------------------------------------*/
FoamFile
{
    format      ascii;
    class       volVectorField;
    location    "75";
    object      hU_0;
}
// * * * * * * * * * * * * * * * * * * * * * * * * * * * * * * * * * * * * * //

dimensions      [0 2 -1 0 0 0 0];

internalField   nonuniform List<vector> 
400
(
(0.001 -2.41939e-08 0)
(0.00100004 -7.03776e-08 0)
(0.00100012 -1.13168e-07 0)
(0.00100024 -1.52269e-07 0)
(0.00100039 -1.86874e-07 0)
(0.00100058 -2.16095e-07 0)
(0.00100078 -2.36418e-07 0)
(0.00100099 -2.45081e-07 0)
(0.00100118 -2.36228e-07 0)
(0.00100133 -2.11461e-07 0)
(0.0010014 -1.69189e-07 0)
(0.0010014 -1.29049e-07 0)
(0.00100129 -9.96463e-08 0)
(0.00100111 -9.35616e-08 0)
(0.00100087 -1.00146e-07 0)
(0.00100065 -1.3628e-07 0)
(0.00100044 -1.57424e-07 0)
(0.00100034 -2.02075e-07 0)
(0.00100026 -1.8942e-07 0)
(0.00100033 -2.68724e-07 0)
(0.001 -2.68273e-08 0)
(0.00100005 -7.85982e-08 0)
(0.00100013 -1.28048e-07 0)
(0.00100026 -1.73498e-07 0)
(0.00100042 -2.12121e-07 0)
(0.00100062 -2.38945e-07 0)
(0.00100084 -2.45151e-07 0)
(0.00100108 -2.19959e-07 0)
(0.0010013 -1.54708e-07 0)
(0.00100147 -4.82946e-08 0)
(0.00100156 9.22575e-08 0)
(0.00100154 2.46259e-07 0)
(0.00100141 3.88614e-07 0)
(0.00100119 4.76004e-07 0)
(0.00100093 5.04533e-07 0)
(0.00100067 4.50846e-07 0)
(0.00100048 3.76707e-07 0)
(0.00100037 2.55603e-07 0)
(0.00100033 2.04433e-07 0)
(0.00100029 8.06631e-08 0)
(0.001 -5.28974e-08 0)
(0.00100004 -1.58849e-07 0)
(0.00100013 -2.66363e-07 0)
(0.00100026 -3.72708e-07 0)
(0.00100043 -4.72305e-07 0)
(0.00100065 -5.54763e-07 0)
(0.0010009 -6.03295e-07 0)
(0.00100117 -5.97157e-07 0)
(0.00100143 -5.17956e-07 0)
(0.00100164 -3.52169e-07 0)
(0.00100176 -1.10459e-07 0)
(0.00100176 1.61741e-07 0)
(0.00100159 4.02082e-07 0)
(0.00100131 5.20517e-07 0)
(0.00100095 4.99876e-07 0)
(0.00100062 3.5371e-07 0)
(0.00100037 2.02145e-07 0)
(0.00100026 4.50816e-08 0)
(0.00100022 -3.80767e-09 0)
(0.0010003 -1.17474e-07 0)
(0.001 -7.36002e-08 0)
(0.00100004 -2.21836e-07 0)
(0.00100013 -3.7403e-07 0)
(0.00100026 -5.29521e-07 0)
(0.00100045 -6.80273e-07 0)
(0.00100069 -8.10344e-07 0)
(0.001001 -8.88738e-07 0)
(0.00100134 -8.84857e-07 0)
(0.00100171 -7.54565e-07 0)
(0.00100203 -4.74839e-07 0)
(0.00100222 -2.28647e-08 0)
(0.00100219 4.93538e-07 0)
(0.00100192 9.37937e-07 0)
(0.00100146 1.14122e-06 0)
(0.00100097 1.05581e-06 0)
(0.00100058 7.43569e-07 0)
(0.00100041 4.23692e-07 0)
(0.00100035 1.69944e-07 0)
(0.0010004 1.02004e-07 0)
(0.00100035 1.84625e-10 0)
(0.001 -9.04971e-08 0)
(0.00100004 -2.77093e-07 0)
(0.00100012 -4.75955e-07 0)
(0.00100025 -6.93421e-07 0)
(0.00100044 -9.21289e-07 0)
(0.00100072 -1.13987e-06 0)
(0.00100109 -1.2984e-06 0)
(0.00100155 -1.33602e-06 0)
(0.00100207 -1.17432e-06 0)
(0.00100257 -7.77288e-07 0)
(0.0010029 -1.70863e-07 0)
(0.00100288 5.79591e-07 0)
(0.00100244 1.23222e-06 0)
(0.00100167 1.51306e-06 0)
(0.00100086 1.37635e-06 0)
(0.00100031 9.65212e-07 0)
(0.00100013 5.81678e-07 0)
(0.00100022 3.15263e-07 0)
(0.00100037 2.63256e-07 0)
(0.00100043 1.68144e-07 0)
(0.001 -1.02485e-07 0)
(0.00100003 -3.17314e-07 0)
(0.00100009 -5.61075e-07 0)
(0.00100019 -8.44488e-07 0)
(0.00100038 -1.17351e-06 0)
(0.00100068 -1.52548e-06 0)
(0.00100115 -1.85875e-06 0)
(0.00100178 -2.05328e-06 0)
(0.00100254 -1.91082e-06 0)
(0.00100326 -1.19985e-06 0)
(0.00100377 8.5687e-08 0)
(0.00100378 1.54202e-06 0)
(0.0010031 2.43533e-06 0)
(0.00100192 2.30638e-06 0)
(0.00100082 1.43071e-06 0)
(0.00100019 4.92414e-07 0)
(0.00100017 1.30754e-08 0)
(0.00100037 -8.47392e-08 0)
(0.00100064 6.12213e-08 0)
(0.00100055 5.02503e-08 0)
(0.001 -1.01709e-07 0)
(0.001 -3.32262e-07 0)
(0.00100002 -6.00933e-07 0)
(0.00100008 -9.61878e-07 0)
(0.00100021 -1.3929e-06 0)
(0.00100048 -1.94657e-06 0)
(0.001001 -2.4893e-06 0)
(0.00100188 -3.08392e-06 0)
(0.00100321 -3.23343e-06 0)
(0.00100473 -2.88205e-06 0)
(0.00100573 -6.63678e-07 0)
(0.00100535 2.55506e-06 0)
(0.0010035 4.8269e-06 0)
(0.00100112 4.73699e-06 0)
(0.000999609 3.02829e-06 0)
(0.000999373 1.26307e-06 0)
(0.00100001 4.30091e-07 0)
(0.00100056 3.26581e-07 0)
(0.00100093 5.62586e-07 0)
(0.00100066 5.34019e-07 0)
(0.000999995 -9.18495e-08 0)
(0.000999968 -2.8768e-07 0)
(0.000999908 -5.76126e-07 0)
(0.000999876 -9.56592e-07 0)
(0.000999879 -1.57769e-06 0)
(0.0010001 -2.34519e-06 0)
(0.0010005 -3.40299e-06 0)
(0.00100152 -4.12487e-06 0)
(0.00100308 -4.37324e-06 0)
(0.00100602 -2.54904e-06 0)
(0.00100911 7.44268e-07 0)
(0.00100913 4.26652e-06 0)
(0.0010055 4.71962e-06 0)
(0.00100074 2.78253e-06 0)
(0.000998152 7.35291e-07 0)
(0.000998276 -2.75675e-07 0)
(0.0009998 -2.875e-07 0)
(0.00100088 -1.0518e-08 0)
(0.00100133 2.11956e-07 0)
(0.00100085 1.02737e-07 0)
(0.000999995 -4.87865e-08 0)
(0.000999915 -2.0297e-07 0)
(0.000999756 -3.85733e-07 0)
(0.000999532 -7.34739e-07 0)
(0.000999288 -1.33861e-06 0)
(0.000999211 -2.4819e-06 0)
(0.000999706 -4.68838e-06 0)
(0.00100139 -8.06877e-06 0)
(0.00100491 -1.32853e-05 0)
(0.00100957 -1.49116e-05 0)
(0.00101188 3.83352e-06 0)
(0.00100894 1.87297e-05 0)
(0.00100221 1.57827e-05 0)
(0.000997565 5.74269e-06 0)
(0.000996886 -3.15566e-07 0)
(0.000998462 -1.26378e-06 0)
(0.00100027 -9.54121e-08 0)
(0.00100101 6.33835e-07 0)
(0.00100107 6.51391e-07 0)
(0.00100054 2.43422e-07 0)
(0.000999804 -1.96539e-08 0)
(0.00100017 -6.61274e-08 0)
(0.000999216 -1.50729e-07 0)
(0.000999905 -2.48467e-07 0)
(0.000997522 -5.92555e-07 0)
(0.000998843 -1.13206e-06 0)
(0.000993346 -2.88463e-06 0)
(0.000997531 -5.59281e-06 0)
(0.000991668 -1.15408e-05 0)
(0.000915831 -1.27057e-05 0)
(0.000951471 2.79291e-07 0)
(0.00101023 1.46404e-05 0)
(0.000990949 1.30845e-05 0)
(0.000983975 5.14221e-06 0)
(0.000989586 1.95081e-07 0)
(0.000996281 -7.81022e-07 0)
(0.000999238 -1.11375e-07 0)
(0.000999414 2.48218e-07 0)
(0.000998649 1.73908e-07 0)
(0.000998506 -1.85249e-07 0)
(0.000999804 1.29108e-08 0)
(0.00100017 4.60002e-08 0)
(0.000999215 1.17809e-07 0)
(0.000999903 2.00085e-07 0)
(0.000997519 5.28839e-07 0)
(0.000998838 1.05063e-06 0)
(0.000993339 2.78608e-06 0)
(0.00099752 5.4735e-06 0)
(0.000991652 1.13981e-05 0)
(0.000915809 1.25501e-05 0)
(0.000951434 -4.76672e-07 0)
(0.0010102 -1.49081e-05 0)
(0.000990947 -1.34068e-05 0)
(0.000983967 -5.53444e-06 0)
(0.000989566 -6.47388e-07 0)
(0.000996243 2.48985e-07 0)
(0.000999196 -4.71719e-07 0)
(0.000999368 -1.00194e-06 0)
(0.000998634 -9.88853e-07 0)
(0.000998456 -8.88951e-07 0)
(0.000999995 4.22767e-08 0)
(0.000999915 1.83403e-07 0)
(0.000999755 3.53201e-07 0)
(0.000999531 6.87293e-07 0)
(0.000999285 1.2761e-06 0)
(0.00099921 2.40105e-06 0)
(0.000999702 4.58916e-06 0)
(0.00100139 7.94235e-06 0)
(0.0010049 1.31298e-05 0)
(0.00100958 1.47163e-05 0)
(0.00101188 -4.05844e-06 0)
(0.00100891 -1.90054e-05 0)
(0.00100214 -1.60973e-05 0)
(0.000997478 -6.12422e-06 0)
(0.000996815 -8.47781e-08 0)
(0.000998402 7.76051e-07 0)
(0.00100017 -4.26242e-07 0)
(0.00100085 -1.30469e-06 0)
(0.00100088 -1.37997e-06 0)
(0.00100037 -1.25131e-06 0)
(0.000999996 8.57361e-08 0)
(0.000999968 2.69042e-07 0)
(0.000999906 5.43988e-07 0)
(0.000999871 9.10085e-07 0)
(0.00099987 1.51371e-06 0)
(0.00100008 2.26136e-06 0)
(0.00100048 3.29398e-06 0)
(0.00100149 3.99049e-06 0)
(0.00100303 4.2088e-06 0)
(0.00100595 2.361e-06 0)
(0.00100903 -9.72619e-07 0)
(0.00100905 -4.54038e-06 0)
(0.00100543 -5.02228e-06 0)
(0.00100067 -3.13172e-06 0)
(0.000998059 -1.13246e-06 0)
(0.000998137 -2.50913e-07 0)
(0.000999624 -3.21927e-07 0)
(0.00100064 -7.41745e-07 0)
(0.00100106 -9.68614e-07 0)
(0.00100055 -1.07472e-06 0)
(0.001 9.59648e-08 0)
(0.001 3.14333e-07 0)
(0.00100002 5.70379e-07 0)
(0.00100007 9.17274e-07 0)
(0.0010002 1.33408e-06 0)
(0.00100046 1.87103e-06 0)
(0.00100097 2.3987e-06 0)
(0.00100185 2.97507e-06 0)
(0.00100318 3.1113e-06 0)
(0.00100469 2.73243e-06 0)
(0.00100568 5.00723e-07 0)
(0.00100527 -2.75387e-06 0)
(0.00100338 -5.07725e-06 0)
(0.00100097 -5.07098e-06 0)
(0.000999412 -3.44918e-06 0)
(0.000999124 -1.79334e-06 0)
(0.000999746 -1.02045e-06 0)
(0.00100025 -1.05985e-06 0)
(0.00100062 -1.30884e-06 0)
(0.00100024 -1.5164e-06 0)
(0.001 9.71771e-08 0)
(0.00100003 3.01305e-07 0)
(0.00100008 5.3419e-07 0)
(0.00100019 8.05308e-07 0)
(0.00100036 1.12186e-06 0)
(0.00100066 1.45939e-06 0)
(0.00100112 1.77752e-06 0)
(0.00100174 1.95074e-06 0)
(0.00100248 1.7835e-06 0)
(0.00100317 1.03641e-06 0)
(0.00100366 -2.79465e-07 0)
(0.00100363 -1.78011e-06 0)
(0.00100292 -2.70928e-06 0)
(0.00100171 -2.63079e-06 0)
(0.00100058 -1.77789e-06 0)
(0.000999906 -8.94459e-07 0)
(0.000999859 -4.26806e-07 0)
(0.000999982 -4.48585e-07 0)
(0.00100022 -6.17784e-07 0)
(0.00100001 -8.49201e-07 0)
(0.001 8.55973e-08 0)
(0.00100004 2.63152e-07 0)
(0.00100011 4.53037e-07 0)
(0.00100024 6.60884e-07 0)
(0.00100043 8.77624e-07 0)
(0.0010007 1.084e-06 0)
(0.00100106 1.22874e-06 0)
(0.0010015 1.25175e-06 0)
(0.001002 1.07386e-06 0)
(0.00100248 6.58101e-07 0)
(0.0010028 2.0193e-08 0)
(0.00100274 -7.68473e-07 0)
(0.00100228 -1.44853e-06 0)
(0.00100146 -1.7733e-06 0)
(0.00100062 -1.66737e-06 0)
(0.00100001 -1.3476e-06 0)
(0.000999794 -1.02891e-06 0)
(0.000999766 -9.37172e-07 0)
(0.000999886 -9.46149e-07 0)
(0.00099977 -1.10875e-06 0)
(0.001 6.93661e-08 0)
(0.00100004 2.0908e-07 0)
(0.00100012 3.52971e-07 0)
(0.00100025 5.00422e-07 0)
(0.00100043 6.43464e-07 0)
(0.00100066 7.65008e-07 0)
(0.00100096 8.36191e-07 0)
(0.00100129 8.24364e-07 0)
(0.00100163 6.90581e-07 0)
(0.00100191 4.06665e-07 0)
(0.00100206 -4.61873e-08 0)
(0.001002 -5.74945e-07 0)
(0.00100171 -1.03472e-06 0)
(0.0010012 -1.28107e-06 0)
(0.00100065 -1.22963e-06 0)
(0.00100016 -9.94101e-07 0)
(0.000999915 -7.01365e-07 0)
(0.000999741 -5.56592e-07 0)
(0.000999754 -4.87683e-07 0)
(0.000999563 -5.98447e-07 0)
(0.001 5.11428e-08 0)
(0.00100004 1.49479e-07 0)
(0.00100012 2.4561e-07 0)
(0.00100025 3.37594e-07 0)
(0.00100041 4.20667e-07 0)
(0.00100062 4.82497e-07 0)
(0.00100086 5.07576e-07 0)
(0.00100112 4.72131e-07 0)
(0.00100137 3.60655e-07 0)
(0.00100157 1.55795e-07 0)
(0.00100167 -1.16469e-07 0)
(0.00100161 -4.20857e-07 0)
(0.0010014 -6.81591e-07 0)
(0.00100104 -8.42665e-07 0)
(0.00100064 -8.50688e-07 0)
(0.00100022 -7.70834e-07 0)
(0.000999951 -6.37295e-07 0)
(0.000999691 -5.96264e-07 0)
(0.00099963 -5.61693e-07 0)
(0.000999389 -6.84805e-07 0)
(0.001 3.56193e-08 0)
(0.00100004 1.04637e-07 0)
(0.00100011 1.73517e-07 0)
(0.00100023 2.40617e-07 0)
(0.00100038 3.01301e-07 0)
(0.00100056 3.49022e-07 0)
(0.00100077 3.74746e-07 0)
(0.00100097 3.68304e-07 0)
(0.00100116 3.19658e-07 0)
(0.0010013 2.24233e-07 0)
(0.00100136 8.64325e-08 0)
(0.00100131 -7.0349e-08 0)
(0.00100115 -2.06276e-07 0)
(0.00100086 -2.97575e-07 0)
(0.00100054 -3.12701e-07 0)
(0.00100017 -2.81844e-07 0)
(0.000999902 -2.02167e-07 0)
(0.000999615 -1.68386e-07 0)
(0.000999519 -1.1883e-07 0)
(0.000999251 -1.98487e-07 0)
(0.001 -3.57068e-09 0)
(0.00100004 -9.84689e-09 0)
(0.00100012 -1.334e-08 0)
(0.00100024 -1.52592e-08 0)
(0.00100039 -1.75291e-08 0)
(0.00100056 -2.32057e-08 0)
(0.00100075 -3.39636e-08 0)
(0.00100094 -5.35324e-08 0)
(0.00100112 -8.17779e-08 0)
(0.00100123 -1.22082e-07 0)
(0.00100128 -1.69748e-07 0)
(0.00100122 -2.31314e-07 0)
(0.00100107 -2.90581e-07 0)
(0.00100081 -3.41299e-07 0)
(0.00100053 -3.59697e-07 0)
(0.00100018 -3.67918e-07 0)
(0.000999948 -3.42169e-07 0)
(0.000999611 -3.52733e-07 0)
(0.000999524 -3.28024e-07 0)
(0.000999132 -4.10665e-07 0)
)
;

boundaryField
{
    sides
    {
        type            slip;
    }
    inlet
    {
        type            fixedValue;
        value           uniform (0.001 0 0);
    }
    outlet
    {
        type            zeroGradient;
    }
    frontAndBack
    {
        type            empty;
    }
}


// ************************************************************************* //
