/*--------------------------------*- C++ -*----------------------------------*\
  =========                 |
  \\      /  F ield         | OpenFOAM: The Open Source CFD Toolbox
   \\    /   O peration     | Website:  https://openfoam.org
    \\  /    A nd           | Version:  9
     \\/     M anipulation  |
\*---------------------------------------------------------------------------*/
FoamFile
{
    format      ascii;
    class       surfaceScalarField;
    location    "75";
    object      phi;
}
// * * * * * * * * * * * * * * * * * * * * * * * * * * * * * * * * * * * * * //

dimensions      [0 4 -1 0 0 0 0];

internalField   nonuniform List<scalar> 
760
(
5.00009e-06
-9.51692e-11
5.0004e-06
-3.07157e-10
5.00091e-06
-5.11232e-10
5.00161e-06
-7.00178e-10
5.0025e-06
-8.67207e-10
5.0035e-06
-9.98579e-10
5.00456e-06
-1.06004e-09
5.00557e-06
-1.01522e-09
5.00641e-06
-8.35879e-10
5.00693e-06
-5.28113e-10
5.00705e-06
-1.29317e-10
5.00665e-06
3.90044e-10
5.0058e-06
8.50364e-10
5.0047e-06
1.10116e-09
5.00353e-06
1.17162e-09
5.00258e-06
9.49733e-10
5.00187e-06
7.07266e-10
5.00162e-06
2.35172e-10
5.00151e-06
9.85269e-11
-3.94758e-10
5.00012e-06
-2.1735e-10
5.00045e-06
-6.34612e-10
5.00098e-06
-1.04221e-09
5.00172e-06
-1.43546e-09
5.00265e-06
-1.79731e-09
5.00374e-06
-2.09077e-09
5.00493e-06
-2.24759e-09
5.00611e-06
-2.1927e-09
5.00713e-06
-1.85536e-09
5.00778e-06
-1.17289e-09
5.00775e-06
-1.00222e-10
5.00726e-06
8.80609e-10
5.00627e-06
1.84163e-09
5.00496e-06
2.41473e-09
5.00369e-06
2.44572e-09
5.00278e-06
1.85661e-09
5.00225e-06
1.23737e-09
5.00192e-06
5.6998e-10
5.00166e-06
3.59578e-10
-1.52314e-10
5.00011e-06
-3.24265e-10
5.00043e-06
-9.51852e-10
5.00096e-06
-1.57192e-09
5.00172e-06
-2.19903e-09
5.00272e-06
-2.80257e-09
5.00394e-06
-3.31709e-09
5.00532e-06
-3.62119e-09
5.00672e-06
-3.59001e-09
5.00793e-06
-3.05464e-09
5.00872e-06
-1.96191e-09
5.00894e-06
-3.08261e-10
5.00826e-06
1.56662e-09
5.00687e-06
3.22558e-09
5.00516e-06
4.13633e-09
5.00351e-06
4.09339e-09
5.00231e-06
3.05399e-09
5.00167e-06
1.88391e-09
5.00148e-06
7.63817e-10
5.00146e-06
3.93349e-10
-2.2368e-10
5.0001e-06
-4.20352e-10
5.00041e-06
-1.25802e-09
5.00095e-06
-2.10731e-09
5.00175e-06
-3.00603e-09
5.00285e-06
-3.91548e-09
5.00429e-06
-4.7489e-09
5.00601e-06
-5.34685e-09
5.00795e-06
-5.52063e-09
5.00984e-06
-4.94385e-09
5.01108e-06
-3.18832e-09
5.0112e-06
-4.36156e-10
5.01e-06
2.77472e-09
5.00765e-06
5.57245e-09
5.00515e-06
6.64088e-09
5.00347e-06
5.7647e-09
5.0027e-06
3.82782e-09
5.00248e-06
2.10833e-09
5.00231e-06
9.37742e-10
5.00201e-06
7.12483e-10
3.40146e-10
5.00008e-06
-4.98624e-10
5.00034e-06
-1.51503e-09
5.00084e-06
-2.60159e-09
5.00164e-06
-3.81137e-09
5.00286e-06
-5.13719e-09
5.00458e-06
-6.46526e-09
5.0068e-06
-7.5703e-09
5.00942e-06
-8.14122e-09
5.01239e-06
-7.91196e-09
5.01478e-06
-5.59162e-09
5.01483e-06
-4.59743e-10
5.01285e-06
4.74182e-09
5.00867e-06
9.75048e-09
5.0046e-06
1.07201e-08
5.00224e-06
8.11913e-09
5.00174e-06
4.3227e-09
5.00205e-06
1.80495e-09
5.00226e-06
7.29126e-10
5.00202e-06
9.5927e-10
6.29991e-10
5.00004e-06
-5.3941e-10
5.0002e-06
-1.67083e-09
5.00054e-06
-2.94259e-09
5.00121e-06
-4.48256e-09
5.00241e-06
-6.33441e-09
5.00452e-06
-8.57689e-09
5.0076e-06
-1.06514e-08
5.01167e-06
-1.22162e-08
5.01553e-06
-1.17687e-08
5.01901e-06
-9.08191e-09
5.0202e-06
-1.65449e-09
5.01603e-06
8.95298e-09
5.00951e-06
1.62525e-08
5.00422e-06
1.60108e-08
5.00218e-06
1.01635e-08
5.0025e-06
3.9996e-09
5.00327e-06
1.02878e-09
5.0034e-06
6.01112e-10
5.00281e-06
1.55344e-09
1.42508e-09
4.99998e-06
-5.20754e-10
4.99994e-06
-1.62957e-09
5.00003e-06
-3.03459e-09
5.00036e-06
-4.81056e-09
5.00122e-06
-7.19182e-09
5.00292e-06
-1.02791e-08
5.0068e-06
-1.45368e-08
5.01393e-06
-1.93374e-08
5.02374e-06
-2.16135e-08
5.03096e-06
-1.62164e-08
5.02872e-06
4.39929e-10
5.01673e-06
2.0957e-08
5.00419e-06
2.88245e-08
4.99873e-06
2.14608e-08
5.00058e-06
8.31686e-09
5.00286e-06
1.72833e-09
5.00372e-06
1.5844e-10
5.00367e-06
6.51965e-10
5.00305e-06
2.1668e-09
1.68267e-09
4.99986e-06
-3.87802e-10
4.99955e-06
-1.31618e-09
4.99913e-06
-2.60761e-09
4.99886e-06
-4.53953e-09
4.99933e-06
-7.66687e-09
5.00036e-06
-1.1309e-08
5.00365e-06
-1.78301e-08
5.00982e-06
-2.5515e-08
5.02489e-06
-3.66532e-08
5.05613e-06
-4.75155e-08
5.05006e-06
7.64082e-09
5.02316e-06
4.7753e-08
4.99817e-06
5.38101e-08
4.9935e-06
2.61477e-08
4.99947e-06
2.35115e-09
5.00408e-06
-2.87543e-09
5.00491e-06
-6.72135e-10
5.00373e-06
1.83289e-09
5.00352e-06
2.38143e-09
9.69719e-10
4.99977e-06
-1.56698e-10
4.99915e-06
-7.0134e-10
4.99792e-06
-1.37556e-09
4.99611e-06
-2.73034e-09
4.99402e-06
-5.57764e-09
4.99374e-06
-1.10334e-08
4.99945e-06
-2.35381e-08
5.01714e-06
-4.31969e-08
5.0557e-06
-7.52336e-08
5.06682e-06
-5.8567e-08
5.04971e-06
2.36064e-08
4.99652e-06
1.01047e-07
4.98931e-06
6.10176e-08
4.9959e-06
1.95427e-08
5.00019e-06
-1.92957e-09
5.00293e-06
-5.61185e-09
5.00253e-06
-2.66075e-10
5.00185e-06
2.51656e-09
5.00255e-06
1.67806e-09
7.38235e-11
4.99986e-06
-1.56831e-11
4.9992e-06
-4.92767e-11
4.99791e-06
-8.397e-11
4.99531e-06
-1.27711e-10
4.98989e-06
-1.71119e-10
4.97908e-06
-2.21485e-10
4.95582e-06
-2.71224e-10
4.91296e-06
-3.27907e-10
4.83815e-06
-4.0127e-10
4.77996e-06
-4.64763e-10
4.8043e-06
-5.97669e-10
4.90605e-06
-7.34525e-10
4.96779e-06
-7.5656e-10
4.98823e-06
-9.03509e-10
4.98745e-06
-1.15904e-09
4.98326e-06
-1.4238e-09
4.98456e-06
-1.55649e-09
4.98891e-06
-1.826e-09
4.99248e-06
-1.89521e-09
-2.58582e-09
4.99986e-06
1.24828e-10
4.9992e-06
6.00887e-10
4.99791e-06
1.21153e-09
4.9953e-06
2.48111e-09
4.98987e-06
5.24804e-09
4.97905e-06
1.06015e-08
4.95578e-06
2.30133e-08
4.91291e-06
4.25398e-08
4.83804e-06
7.44599e-08
4.77972e-06
5.78091e-08
4.80427e-06
-2.49915e-08
4.906e-06
-1.02492e-07
4.96778e-06
-6.25211e-08
4.98807e-06
-2.12014e-08
4.98736e-06
-4.54532e-10
4.98293e-06
2.99777e-09
4.98443e-06
-3.04989e-09
4.98889e-06
-6.28398e-09
4.99235e-06
-5.35915e-09
-4.98568e-09
4.99977e-06
3.54827e-10
4.99915e-06
1.21802e-09
4.99791e-06
2.44048e-09
4.9961e-06
4.29531e-09
4.99402e-06
7.3328e-09
4.99373e-06
1.08896e-08
4.99943e-06
1.73167e-08
5.01709e-06
2.48875e-08
5.05561e-06
3.58969e-08
5.06712e-06
4.64121e-08
5.04943e-06
-8.8397e-09
4.99613e-06
-4.90328e-08
4.98886e-06
-5.525e-08
4.9957e-06
-2.80482e-08
5.00011e-06
-4.87026e-09
5.00232e-06
7.87953e-10
5.00166e-06
-2.39054e-09
5.00091e-06
-5.5354e-09
5.00169e-06
-6.14281e-09
-5.95526e-09
4.99987e-06
4.88691e-10
4.99955e-06
1.53394e-09
4.99911e-06
2.87412e-09
4.99883e-06
4.57864e-09
4.99928e-06
6.89022e-09
5.00027e-06
9.89568e-09
5.00348e-06
1.41074e-08
5.0096e-06
1.87632e-08
5.02462e-06
2.09113e-08
5.05553e-06
1.53757e-08
5.04981e-06
-1.56345e-09
5.02281e-06
-2.21864e-08
4.99786e-06
-3.03177e-08
4.99316e-06
-2.33393e-08
4.99865e-06
-1.0349e-08
5.00346e-06
-4.02067e-09
5.00374e-06
-2.67007e-09
5.00236e-06
-4.16518e-09
5.00216e-06
-5.95448e-09
-6.54136e-09
4.99998e-06
5.10931e-10
4.99993e-06
1.58349e-09
5e-06
2.79664e-09
5.00031e-06
4.27542e-09
5.00114e-06
6.06719e-09
5.0028e-06
8.23307e-09
5.00667e-06
1.02188e-08
5.01378e-06
1.1668e-08
5.02357e-06
1.11227e-08
5.03074e-06
8.27042e-09
5.02837e-06
5.95328e-10
5.01623e-06
-1.00472e-08
5.0035e-06
-1.75645e-08
4.99778e-06
-1.76144e-08
4.99942e-06
-1.19855e-08
5.00162e-06
-6.21382e-09
5.00241e-06
-3.46276e-09
5.00214e-06
-3.89381e-09
5.0012e-06
-5.01875e-09
-5.98324e-09
5.00004e-06
4.74407e-10
5.00019e-06
1.44072e-09
5.00051e-06
2.47596e-09
5.00115e-06
3.62802e-09
5.00232e-06
4.89554e-09
5.0044e-06
6.15753e-09
5.00741e-06
7.19308e-09
5.01139e-06
7.68812e-09
5.01513e-06
7.39073e-09
5.01853e-06
4.88431e-09
5.01956e-06
-4.05529e-10
5.01523e-06
-5.6985e-09
5.00854e-06
-1.08683e-08
5.00312e-06
-1.21766e-08
5.00089e-06
-9.74878e-09
5.00102e-06
-6.3432e-09
5.00156e-06
-4.0065e-09
5.00132e-06
-3.65426e-09
5.00036e-06
-4.05355e-09
-4.98156e-09
5.00008e-06
3.98475e-10
5.00033e-06
1.19714e-09
5.0008e-06
2.00608e-09
5.00157e-06
2.85397e-09
5.00275e-06
3.71075e-09
5.00441e-06
4.4954e-09
5.00656e-06
5.04402e-09
5.00909e-06
5.1469e-09
5.01203e-06
4.45326e-09
5.01441e-06
2.51443e-09
5.01414e-06
-1.3147e-10
5.01209e-06
-3.6316e-09
5.00776e-06
-6.53184e-09
5.0035e-06
-7.90771e-09
5.00094e-06
-7.18806e-09
5.00013e-06
-5.54814e-09
5.00011e-06
-3.98091e-09
4.99988e-06
-3.42169e-09
4.99918e-06
-3.34593e-09
-4.17511e-09
5.0001e-06
3.02243e-10
5.0004e-06
9.00649e-10
5.00091e-06
1.49513e-09
5.00167e-06
2.08601e-09
5.00274e-06
2.64704e-09
5.00412e-06
3.11091e-09
5.00579e-06
3.37699e-09
5.00763e-06
3.30488e-09
5.00933e-06
2.75112e-09
5.01027e-06
1.57396e-09
5.01043e-06
-2.98134e-10
5.00903e-06
-2.22981e-09
5.00651e-06
-4.00566e-09
5.00368e-06
-5.08094e-09
5.00155e-06
-5.06158e-09
5.00034e-06
-4.35256e-09
4.9997e-06
-3.33939e-09
4.99917e-06
-2.88488e-09
4.99846e-06
-2.62781e-09
-3.21763e-09
5.00011e-06
2.0138e-10
5.00041e-06
5.92391e-10
5.00093e-06
9.79254e-10
5.00166e-06
1.35294e-09
5.00262e-06
1.69158e-09
5.00378e-06
1.94961e-09
5.0051e-06
2.06436e-09
5.00645e-06
1.95259e-09
5.00765e-06
1.55386e-09
5.00839e-06
8.29507e-10
5.00822e-06
-1.26427e-10
5.00734e-06
-1.35632e-09
5.00571e-06
-2.37565e-09
5.00369e-06
-3.06649e-09
5.0018e-06
-3.17176e-09
5.00034e-06
-2.89688e-09
4.99932e-06
-2.32041e-09
4.99853e-06
-2.09095e-09
4.99773e-06
-1.8343e-09
-2.27984e-09
5.00008e-06
1.17154e-10
5.00037e-06
3.03072e-10
5.00086e-06
4.89511e-10
5.00155e-06
6.71263e-10
5.00241e-06
8.31545e-10
5.00342e-06
9.48165e-10
5.00449e-06
9.94364e-10
5.00551e-06
9.33015e-10
5.00633e-06
7.34726e-10
5.0068e-06
3.61475e-10
5.00681e-06
-1.41071e-10
5.00608e-06
-6.27299e-10
5.00479e-06
-1.09104e-09
5.00316e-06
-1.42888e-09
5.00149e-06
-1.50182e-09
5.00003e-06
-1.43652e-09
4.99889e-06
-1.18307e-09
4.99793e-06
-1.13232e-09
4.99707e-06
-9.77331e-10
-1.42592e-09
5.00011e-06
5.00042e-06
5.00091e-06
5.00159e-06
5.00242e-06
5.00337e-06
5.00437e-06
5.0053e-06
5.00603e-06
5.00639e-06
5.00625e-06
5.00563e-06
5.00454e-06
5.00311e-06
5.00161e-06
5.00018e-06
4.99899e-06
4.99785e-06
4.99688e-06
)
;

boundaryField
{
    sides
    {
        type            calculated;
        value           uniform 0;
    }
    inlet
    {
        type            calculated;
        value           nonuniform List<scalar> 
20
(
-5e-06
-5e-06
-5e-06
-5e-06
-5e-06
-5e-06
-5e-06
-5e-06
-5e-06
-5e-06
-5e-06
-5e-06
-5e-06
-5e-06
-5e-06
-5e-06
-5e-06
-5e-06
-5e-06
-5e-06
)
;
    }
    outlet
    {
        type            calculated;
        value           nonuniform List<scalar> 
20
(
5.00189e-06
5.00141e-06
5.00153e-06
5.00145e-06
5.00173e-06
5.00201e-06
5.0028e-06
5.00423e-06
5.00345e-06
4.99514e-06
4.99475e-06
5.00265e-06
5.00275e-06
5.00064e-06
4.99936e-06
4.99837e-06
4.9975e-06
4.9968e-06
4.99622e-06
4.99546e-06
)
;
    }
    frontAndBack
    {
        type            empty;
        value           nonuniform List<scalar> 0();
    }
}


// ************************************************************************* //
