/*--------------------------------*- C++ -*----------------------------------*\
  =========                 |
  \\      /  F ield         | OpenFOAM: The Open Source CFD Toolbox
   \\    /   O peration     | Website:  https://openfoam.org
    \\  /    A nd           | Version:  9
     \\/     M anipulation  |
\*---------------------------------------------------------------------------*/
FoamFile
{
    format      ascii;
    class       volScalarField;
    location    "48";
    object      ddt0(h);
}
// * * * * * * * * * * * * * * * * * * * * * * * * * * * * * * * * * * * * * //

dimensions      [0 1 -1 0 0 0 0];

internalField   nonuniform List<scalar> 
400
(
1.67259e-09
1.28873e-08
8.03603e-09
-3.1107e-09
-2.31637e-08
-4.36003e-08
-3.47868e-08
-3.63105e-08
-4.73934e-08
-6.5776e-08
-8.27767e-08
-8.63022e-08
-8.49754e-08
-7.85056e-08
-6.42094e-08
-4.72606e-08
-4.40172e-08
-3.85223e-08
-1.75179e-08
-2.83911e-09
1.87416e-08
5.62438e-09
-2.76003e-09
-6.22615e-09
-2.48363e-08
-2.87525e-08
-2.83939e-08
-3.15855e-08
-4.38099e-08
-7.81281e-08
-7.48902e-08
-1.0286e-07
-9.90739e-08
-9.75394e-08
-8.06917e-08
-5.32374e-08
-4.15438e-08
-3.79591e-08
-2.96819e-08
-1.15241e-08
2.77605e-08
-5.48817e-09
-1.07848e-08
-1.00213e-08
-1.24372e-08
-9.97499e-09
-1.59452e-08
-3.71535e-08
-5.96966e-08
-9.09031e-08
-1.10777e-07
-8.73598e-08
-1.34235e-07
-1.2034e-07
-9.49491e-08
-7.04845e-08
-4.99626e-08
-3.58517e-08
-2.90505e-08
-1.31185e-08
2.05251e-08
-7.9048e-09
-1.53916e-08
-4.7293e-09
1.24276e-09
7.56642e-09
-2.51551e-08
-3.33107e-08
-1.32695e-07
-3.21476e-08
-1.48044e-07
-6.58279e-08
-6.81381e-08
-1.32199e-07
-1.00834e-07
-7.39179e-08
-5.2168e-08
-3.08621e-08
-2.53281e-08
-1.37383e-08
1.74198e-09
-1.03133e-08
-5.55302e-09
3.59953e-09
1.31302e-08
-1.28458e-09
-1.30824e-08
-1.01787e-07
-4.83949e-08
-7.82033e-08
1.08103e-07
-1.37675e-07
1.8635e-08
-2.49621e-09
-8.30582e-08
-7.89636e-08
-5.21529e-08
-3.30863e-08
-2.48016e-08
-1.11194e-08
-1.83982e-08
-1.35813e-08
3.23481e-09
1.26656e-08
5.38366e-09
3.3613e-09
-4.19282e-08
-8.45404e-08
1.20753e-07
-1.16722e-07
8.14557e-08
8.04195e-08
-9.86196e-08
3.69341e-08
2.67426e-08
-3.88182e-08
-3.93428e-08
-1.75133e-08
-3.94755e-09
-4.90645e-10
-2.67488e-08
-1.7518e-08
4.19276e-09
-3.39986e-11
-3.70135e-10
-3.33965e-09
-4.28609e-08
8.53154e-08
-3.93893e-08
2.84686e-07
-3.95299e-07
7.517e-08
4.40751e-08
-3.98949e-08
1.03959e-08
8.22147e-10
-4.30584e-08
8.38368e-09
1.99719e-08
1.0159e-08
-2.3568e-08
-1.60323e-08
-1.07541e-08
-1.89607e-08
-1.7684e-08
1.10372e-08
3.48384e-08
2.31635e-08
1.4043e-07
-1.36019e-07
-1.4057e-06
-3.39828e-07
-1.90109e-08
3.72859e-09
-1.83384e-08
-6.87917e-10
5.24471e-08
3.75577e-08
4.28969e-08
1.80461e-08
-1.6124e-08
-1.65669e-08
-2.44869e-08
-3.98036e-08
-1.49819e-08
2.97256e-08
6.59666e-08
4.0625e-08
-1.24052e-07
1.90694e-07
1.357e-06
3.36555e-07
-9.06438e-09
-6.0473e-08
-6.99019e-08
-3.52467e-08
2.57887e-08
4.22602e-08
4.61153e-08
5.51502e-08
-1.39464e-08
-1.87993e-08
-3.52377e-08
-3.65988e-08
-1.31538e-08
3.86431e-08
6.17447e-08
-4.8144e-08
1.12954e-07
-2.78965e-07
5.50944e-07
-1.35678e-07
-4.97969e-08
1.09961e-08
-3.34154e-08
-2.73577e-08
-8.52957e-09
3.12349e-08
4.06709e-08
-1.53677e-08
-1.86925e-08
-2.13924e-08
-3.23616e-08
-2.56432e-08
3.07723e-10
3.51089e-09
2.02853e-08
6.68011e-08
-1.82236e-08
2.05234e-07
-3.50591e-07
1.02659e-07
4.16234e-08
-5.14156e-08
-2.44495e-09
2.72802e-08
2.68536e-08
2.80929e-08
3.10586e-08
1.7004e-08
-2.48341e-08
-1.94232e-08
-2.17864e-08
-1.45721e-08
-5.92963e-09
-3.2832e-09
-1.83531e-08
7.27904e-08
4.48778e-08
3.62059e-07
-5.09326e-06
-1.63149e-07
2.57896e-08
-1.53404e-08
3.17845e-08
3.9857e-08
2.63373e-08
2.63629e-08
2.52013e-08
1.24979e-08
-2.5896e-08
-1.28028e-08
-9.36514e-09
-1.04518e-08
-1.92034e-08
-9.35998e-09
2.24931e-08
1.41166e-08
8.25722e-08
-2.91561e-07
5.20001e-06
2.73969e-07
-1.31527e-07
-6.09971e-09
-3.38556e-09
3.51554e-09
2.08691e-08
2.28428e-08
1.94299e-08
9.18218e-09
-1.70728e-08
-8.16007e-09
1.28336e-09
-8.2266e-09
-2.87698e-08
-2.49402e-08
3.79561e-08
1.80842e-08
-3.89259e-08
-6.02229e-08
1.70999e-07
-2.38699e-07
2.0857e-08
-5.21701e-08
-6.37316e-08
-1.30775e-08
1.55937e-08
8.37672e-09
3.00557e-09
2.99708e-09
-4.21247e-09
-7.74249e-09
6.35573e-09
4.05189e-09
-2.49184e-08
-3.90933e-08
3.02291e-09
4.91382e-08
-5.33969e-08
7.60052e-09
-1.47985e-07
-2.72477e-10
-8.74787e-08
-9.6903e-08
-4.78031e-08
-2.69059e-09
7.57869e-09
-1.41848e-08
-2.22163e-08
-8.45765e-09
6.88641e-09
-8.36418e-09
6.80552e-09
2.08754e-08
-3.22163e-09
-4.41004e-08
-3.88838e-08
-4.56194e-09
-3.0628e-10
-7.14603e-08
-6.57451e-08
-6.94249e-08
-8.63419e-08
-5.301e-08
-2.50244e-08
-9.38636e-09
-1.45438e-08
-3.62462e-08
-4.40514e-08
-1.96821e-08
1.35289e-08
4.82757e-10
9.9996e-10
2.48271e-08
1.4972e-08
-2.50331e-08
-6.60249e-08
-5.74924e-08
-5.09641e-08
-5.8252e-08
-4.15297e-08
-6.97704e-08
-5.69339e-08
-3.84677e-08
-2.75512e-08
-3.87555e-08
-4.83914e-08
-5.12489e-08
-5.00327e-08
-2.40908e-08
1.85219e-08
1.35414e-08
-4.41889e-09
8.30359e-09
1.7623e-08
-7.05694e-09
-4.65627e-08
-7.58785e-08
-8.09927e-08
-8.67845e-08
-1.02787e-07
-9.83767e-08
-8.73059e-08
-6.57418e-08
-6.47982e-08
-8.06368e-08
-7.46817e-08
-5.30657e-08
-4.04887e-08
-1.93081e-08
2.8498e-08
1.97343e-08
-3.18069e-09
-1.37918e-08
-1.7916e-09
-3.29278e-09
-1.78359e-08
-4.77972e-08
-6.50421e-08
-9.02791e-08
-1.2052e-07
-1.27041e-07
-1.1441e-07
-9.90671e-08
-1.00757e-07
-9.76714e-08
-7.65799e-08
-4.43816e-08
-1.87509e-08
-5.05983e-09
4.32e-08
1.92613e-08
-3.74172e-09
-2.83407e-08
-2.51238e-08
-7.61368e-09
-4.68299e-09
-1.72032e-08
-4.03087e-08
-7.13634e-08
-1.04915e-07
-1.24638e-07
-1.12792e-07
-1.09758e-07
-1.08329e-07
-9.09614e-08
-6.43567e-08
-3.19626e-08
-1.39704e-09
6.56622e-09
)
;

boundaryField
{
    sides
    {
        type            calculated;
        value           nonuniform List<scalar> 
40
(
4.32e-08
1.92613e-08
-3.74172e-09
-2.83407e-08
-2.51238e-08
-7.61368e-09
-4.68299e-09
-1.72032e-08
-4.03087e-08
-7.13634e-08
-1.04915e-07
-1.24638e-07
-1.12792e-07
-1.09758e-07
-1.08329e-07
-9.09614e-08
-6.43567e-08
-3.19626e-08
-1.39704e-09
6.56622e-09
1.67259e-09
1.28873e-08
8.03603e-09
-3.1107e-09
-2.31637e-08
-4.36003e-08
-3.47868e-08
-3.63105e-08
-4.73934e-08
-6.5776e-08
-8.27767e-08
-8.63022e-08
-8.49754e-08
-7.85056e-08
-6.42094e-08
-4.72606e-08
-4.40172e-08
-3.85223e-08
-1.75179e-08
-2.83911e-09
)
;
    }
    inlet
    {
        type            calculated;
        value           nonuniform List<scalar> 
20
(
1.67259e-09
1.87416e-08
2.77605e-08
2.05251e-08
1.74198e-09
-1.83982e-08
-2.67488e-08
-2.3568e-08
-1.6124e-08
-1.39464e-08
-1.86925e-08
-2.48341e-08
-2.5896e-08
-1.70728e-08
-4.21247e-09
6.88641e-09
1.35289e-08
1.85219e-08
2.8498e-08
4.32e-08
)
;
    }
    outlet
    {
        type            calculated;
        value           uniform 0;
    }
    frontAndBack
    {
        type            empty;
    }
}


// ************************************************************************* //
