/*--------------------------------*- C++ -*----------------------------------*\
  =========                 |
  \\      /  F ield         | OpenFOAM: The Open Source CFD Toolbox
   \\    /   O peration     | Website:  https://openfoam.org
    \\  /    A nd           | Version:  9
     \\/     M anipulation  |
\*---------------------------------------------------------------------------*/
FoamFile
{
    format      ascii;
    class       volVectorField;
    location    "48";
    object      ddtCorrDdt0(hU);
}
// * * * * * * * * * * * * * * * * * * * * * * * * * * * * * * * * * * * * * //

dimensions      [0 2 -2 0 0 0 0];

internalField   nonuniform List<vector> 
400
(
(-4.064e-10 7.83532e-10 0)
(8.58772e-09 2.68051e-09 0)
(3.06067e-09 5.09582e-09 0)
(-3.88899e-09 2.62794e-09 0)
(-8.88269e-10 -9.96065e-10 0)
(5.32534e-09 -2.39977e-09 0)
(7.86152e-09 1.21599e-09 0)
(2.56333e-09 3.54711e-09 0)
(-4.68877e-09 2.97365e-09 0)
(-5.20063e-09 -1.64885e-09 0)
(3.8708e-10 -4.32663e-09 0)
(5.4585e-09 6.1604e-10 0)
(2.40942e-09 3.72795e-09 0)
(-5.2565e-09 5.50714e-09 0)
(-1.11044e-08 2.72366e-09 0)
(-9.90975e-09 -2.28611e-10 0)
(-1.57438e-10 -2.11176e-09 0)
(3.89229e-09 -2.87286e-09 0)
(-8.65733e-09 -1.58376e-09 0)
(-1.64566e-08 -4.67854e-10 0)
(9.52997e-10 4.23914e-10 0)
(7.11782e-09 6.29308e-09 0)
(2.46575e-09 1.23777e-08 0)
(-3.31075e-09 7.64434e-09 0)
(-9.2227e-10 -2.06686e-09 0)
(4.88218e-09 -6.36379e-09 0)
(5.85337e-09 1.24562e-09 0)
(2.43518e-09 9.27289e-09 0)
(-2.94468e-09 7.01331e-09 0)
(-6.71836e-09 1.07933e-09 0)
(2.45442e-09 -5.16193e-09 0)
(4.47759e-09 3.65587e-09 0)
(9.14689e-10 1.54397e-08 0)
(-5.01461e-09 1.67998e-08 0)
(-1.08269e-08 9.43702e-09 0)
(-1.06895e-08 6.99835e-11 0)
(-6.76066e-09 -5.43006e-09 0)
(-4.2393e-09 2.79117e-09 0)
(-8.9215e-09 1.12739e-08 0)
(-1.14948e-08 3.34107e-09 0)
(2.694e-09 1.03188e-09 0)
(6.76052e-09 9.36748e-09 0)
(2.90224e-09 1.67351e-08 0)
(-2.16624e-09 1.04846e-08 0)
(-3.71898e-10 -5.16521e-09 0)
(2.73538e-09 -1.03159e-08 0)
(3.9631e-09 2.39544e-09 0)
(1.31958e-09 1.67511e-08 0)
(1.16442e-09 1.68533e-08 0)
(-1.80847e-09 5.2813e-09 0)
(-1.04923e-09 4.08225e-09 0)
(7.84686e-09 4.23193e-09 0)
(-2.1213e-09 2.79884e-08 0)
(-9.01381e-09 2.94507e-08 0)
(-1.25261e-08 1.52659e-08 0)
(-1.37035e-08 5.75593e-10 0)
(-7.82512e-09 -5.36198e-09 0)
(-2.17029e-09 6.87253e-09 0)
(-1.09626e-08 1.66294e-08 0)
(-1.64309e-08 6.02725e-09 0)
(2.23907e-09 4.19527e-09 0)
(5.63694e-09 1.2983e-08 0)
(2.25238e-09 2.00898e-08 0)
(-1.10072e-09 1.07738e-08 0)
(5.70791e-10 -8.95483e-09 0)
(3.37481e-09 -1.2731e-08 0)
(2.39922e-09 7.78445e-09 0)
(6.02078e-09 2.63516e-08 0)
(-1.91307e-09 3.47268e-08 0)
(1.10898e-08 8.04306e-10 0)
(-6.50533e-09 8.29672e-10 0)
(5.9673e-09 8.72343e-09 0)
(1.08485e-08 2.05016e-08 0)
(-1.26672e-08 3.42347e-08 0)
(-1.54574e-08 1.92374e-08 0)
(-1.36206e-08 -2.44494e-09 0)
(-1.47454e-08 -8.07252e-09 0)
(-1.46736e-08 1.1615e-08 0)
(-1.28877e-08 2.50243e-08 0)
(-1.18097e-08 9.28533e-09 0)
(5.07087e-10 5.25153e-09 0)
(3.34312e-09 1.46061e-08 0)
(1.4729e-09 2.18604e-08 0)
(6.48814e-10 1.1256e-08 0)
(3.40985e-09 -9.19888e-09 0)
(3.87418e-09 -1.0213e-08 0)
(4.22013e-09 1.21326e-08 0)
(8.34522e-09 4.27246e-08 0)
(4.50337e-09 2.48268e-08 0)
(-2.43037e-09 8.50875e-09 0)
(2.7914e-08 -2.59139e-08 0)
(-1.02297e-08 8.66343e-09 0)
(1.50158e-08 1.15589e-08 0)
(1.33462e-08 1.53161e-08 0)
(-1.42758e-08 1.26981e-08 0)
(-1.73573e-08 -4.72325e-09 0)
(-1.12827e-08 -1.13162e-08 0)
(-1.00317e-08 1.33977e-08 0)
(-1.75185e-08 3.20252e-08 0)
(-2.19111e-08 1.1942e-08 0)
(-9.84844e-10 3.61287e-09 0)
(1.6606e-09 1.30788e-08 0)
(1.08103e-09 2.15114e-08 0)
(3.24613e-09 1.25494e-08 0)
(6.90147e-09 -5.2606e-09 0)
(6.08991e-09 -6.44297e-09 0)
(1.01313e-08 1.94669e-08 0)
(-8.17988e-10 4.05335e-08 0)
(1.86285e-08 1.39622e-08 0)
(-1.16401e-08 5.22142e-10 0)
(1.42424e-08 -1.06459e-08 0)
(2.34208e-08 -2.75842e-08 0)
(-1.20001e-08 1.90879e-08 0)
(1.82483e-08 1.11472e-08 0)
(1.5093e-08 -1.91226e-09 0)
(-6.34302e-09 -1.21015e-08 0)
(-1.46068e-08 -1.59905e-08 0)
(-1.67742e-08 4.60287e-09 0)
(-1.63653e-08 2.24739e-08 0)
(-1.9906e-08 9.60035e-09 0)
(-1.48775e-09 1.12665e-09 0)
(7.27873e-10 9.035e-09 0)
(2.26514e-09 1.83617e-08 0)
(7.19702e-09 1.36078e-08 0)
(1.0532e-08 -6.40254e-10 0)
(1.01185e-08 -1.52531e-09 0)
(4.85798e-09 1.66269e-08 0)
(6.69807e-09 2.26364e-08 0)
(-5.86999e-09 2.37199e-08 0)
(4.56275e-08 -3.12814e-08 0)
(-5.20994e-08 -3.08342e-09 0)
(4.21329e-09 -1.69888e-08 0)
(3.2247e-08 8.01539e-09 0)
(1.04941e-09 2.25752e-08 0)
(9.72156e-09 1.1136e-09 0)
(4.6598e-09 -1.8364e-08 0)
(-1.25118e-08 -2.16654e-08 0)
(-1.44832e-08 1.08423e-09 0)
(-1.38446e-08 1.90532e-08 0)
(-1.84536e-08 7.91052e-09 0)
(-1.36488e-09 -7.88892e-10 0)
(7.14216e-10 4.70678e-09 0)
(4.59525e-09 1.33662e-08 0)
(1.15872e-08 1.25286e-08 0)
(1.43562e-08 1.54898e-09 0)
(7.689e-09 -4.96452e-10 0)
(2.81617e-09 7.09668e-09 0)
(2.85401e-09 1.36423e-08 0)
(-6.4934e-09 2.05892e-08 0)
(-1.0752e-08 3.53746e-08 0)
(-1.22035e-07 -4.47439e-09 0)
(-4.01944e-08 3.762e-08 0)
(1.39463e-08 3.55921e-08 0)
(2.04257e-08 2.70652e-08 0)
(3.79755e-09 1.18633e-08 0)
(4.04363e-10 -1.396e-08 0)
(-2.66633e-09 -2.26436e-08 0)
(-1.32462e-08 -4.95936e-09 0)
(-1.10674e-08 1.01529e-08 0)
(-1.38557e-08 5.10837e-09 0)
(-8.7607e-10 -1.57243e-09 0)
(9.39307e-10 1.56129e-09 0)
(7.50829e-09 8.26916e-09 0)
(1.5686e-08 8.2208e-09 0)
(1.60223e-08 -2.41447e-10 0)
(6.21945e-09 -4.06294e-09 0)
(-1.60318e-09 1.68241e-09 0)
(3.48635e-09 9.58202e-09 0)
(2.58968e-08 1.93509e-08 0)
(3.73764e-08 3.40355e-08 0)
(1.2623e-07 1.48861e-09 0)
(4.73665e-08 4.24792e-08 0)
(-2.20328e-09 2.75965e-08 0)
(-1.4092e-08 2.276e-08 0)
(-1.09637e-08 1.16741e-08 0)
(-1.2774e-08 -4.09584e-09 0)
(-1.01141e-08 -1.16633e-08 0)
(-1.31065e-08 -2.99038e-09 0)
(-8.04972e-09 6.36559e-09 0)
(-5.43862e-09 3.14283e-09 0)
(-6.22429e-10 -1.19177e-09 0)
(2.03345e-09 -4.6667e-10 0)
(9.27855e-09 2.44302e-09 0)
(1.74827e-08 1.60889e-09 0)
(1.61341e-08 -5.03184e-09 0)
(3.56099e-09 -6.56669e-09 0)
(-1.68539e-09 1.36152e-09 0)
(5.32868e-09 7.37862e-09 0)
(2.42795e-08 5.99098e-09 0)
(-2.81384e-08 -2.23671e-08 0)
(8.3504e-08 -8.77553e-09 0)
(-6.37864e-09 -2.4478e-08 0)
(-1.95016e-08 -1.27593e-08 0)
(1.29345e-08 -3.03682e-09 0)
(-5.77721e-09 -5.25354e-09 0)
(-1.15657e-08 -1.30019e-09 0)
(-1.57677e-08 1.34392e-09 0)
(-1.76064e-08 3.50122e-09 0)
(-1.17146e-08 5.11309e-09 0)
(-1.31434e-08 3.1421e-09 0)
(-7.11921e-10 -5.4002e-10 0)
(2.96421e-09 -2.71877e-09 0)
(9.78309e-09 -4.84374e-09 0)
(1.61742e-08 -6.19002e-09 0)
(1.49386e-08 -6.41734e-09 0)
(6.2305e-09 -5.94743e-09 0)
(-6.02e-10 -4.42813e-10 0)
(7.54705e-09 1.65653e-09 0)
(4.107e-09 -8.15221e-09 0)
(2.44874e-08 -1.44804e-08 0)
(-4.47637e-08 8.98608e-08 0)
(1.74935e-08 -5.0337e-08 0)
(2.42631e-08 -9.39686e-09 0)
(-3.00886e-10 -2.14426e-08 0)
(6.12756e-09 -1.44841e-08 0)
(6.29685e-09 -1.43402e-09 0)
(-8.54001e-09 4.27631e-09 0)
(-1.93029e-08 1.97756e-09 0)
(-1.52709e-08 -1.08173e-09 0)
(-1.32865e-08 2.58105e-09 0)
(-1.08483e-09 -5.66468e-10 0)
(3.8404e-09 -5.35217e-09 0)
(8.93135e-09 -1.21707e-08 0)
(1.40115e-08 -1.27011e-08 0)
(1.29608e-08 -5.66181e-09 0)
(8.57282e-09 -2.04044e-09 0)
(3.35711e-09 -1.35379e-08 0)
(6.83725e-09 -1.71584e-08 0)
(-6.404e-09 -1.98094e-08 0)
(1.36616e-07 1.81539e-08 0)
(-5.1981e-07 -1.04216e-07 0)
(-1.17322e-07 4.1277e-08 0)
(3.04519e-08 -1.26568e-08 0)
(7.71215e-09 -2.1509e-08 0)
(1.94214e-08 -9.01722e-09 0)
(1.14108e-08 -1.73705e-09 0)
(-8.1546e-09 2.97665e-09 0)
(-2.02396e-08 -2.62291e-09 0)
(-1.74961e-08 -9.29198e-09 0)
(-1.62538e-08 -6.15727e-10 0)
(-1.00471e-09 -1.76449e-09 0)
(4.50751e-09 -8.41329e-09 0)
(7.05451e-09 -1.82178e-08 0)
(1.04168e-08 -1.68912e-08 0)
(1.16037e-08 -4.43001e-09 0)
(5.51687e-09 -5.8783e-11 0)
(1.68261e-09 -1.77928e-08 0)
(-2.1389e-09 -3.81208e-08 0)
(3.24178e-08 -1.95823e-08 0)
(-1.28861e-07 4.74994e-09 0)
(5.34758e-07 -5.7978e-08 0)
(1.5165e-07 3.37695e-08 0)
(-4.23424e-08 -1.0583e-08 0)
(9.22774e-09 -1.3211e-08 0)
(1.44426e-08 -1.15159e-08 0)
(4.66566e-09 -3.73098e-09 0)
(-4.65446e-09 2.71588e-09 0)
(-1.55583e-08 -8.76577e-09 0)
(-1.78503e-08 -1.79044e-08 0)
(-1.84327e-08 -3.36347e-09 0)
(4.21384e-11 -3.3093e-09 0)
(5.42875e-09 -1.14189e-08 0)
(5.27807e-09 -2.19865e-08 0)
(6.57819e-09 -1.87464e-08 0)
(8.97683e-09 -3.42139e-09 0)
(5.44658e-09 -2.36674e-10 0)
(-1.0339e-09 -1.54305e-08 0)
(5.52048e-09 -3.57585e-08 0)
(2.03512e-09 -2.55576e-08 0)
(2.91505e-08 -1.925e-08 0)
(3.99244e-08 1.24684e-07 0)
(-4.75693e-08 -2.56155e-08 0)
(4.17897e-09 -1.596e-08 0)
(1.68755e-09 -2.36269e-08 0)
(-2.25597e-09 -1.74924e-08 0)
(2.29706e-09 8.26022e-10 0)
(-3.48054e-09 8.37579e-09 0)
(-1.31227e-08 -9.94864e-09 0)
(-1.72812e-08 -2.2747e-08 0)
(-2.03496e-08 -4.89576e-09 0)
(1.48514e-09 -3.27149e-09 0)
(6.70067e-09 -1.32164e-08 0)
(3.8645e-09 -2.37185e-08 0)
(2.27623e-09 -1.88434e-08 0)
(5.86803e-09 -3.19796e-09 0)
(6.38251e-09 -1.6255e-09 0)
(6.62909e-10 -1.77708e-08 0)
(-4.59994e-11 -2.8736e-08 0)
(4.92453e-09 -3.12511e-08 0)
(1.35012e-08 4.50458e-09 0)
(-8.60498e-09 -1.87717e-08 0)
(1.23856e-08 -8.00779e-09 0)
(-3.12373e-09 -2.61323e-08 0)
(-6.27039e-09 -3.26803e-08 0)
(6.0877e-09 -1.37442e-08 0)
(7.21762e-09 6.69706e-09 0)
(-2.48865e-09 1.33652e-08 0)
(-1.26668e-08 -8.37987e-09 0)
(-1.95649e-08 -2.54936e-08 0)
(-2.34393e-08 -6.71135e-09 0)
(1.91034e-09 -1.48569e-09 0)
(7.1294e-09 -1.38365e-08 0)
(2.78681e-09 -2.49382e-08 0)
(-1.44036e-09 -1.77272e-08 0)
(2.27946e-09 -8.8369e-10 0)
(6.48451e-09 -1.47702e-09 0)
(4.93803e-09 -2.02085e-08 0)
(5.89728e-10 -2.93339e-08 0)
(4.1851e-09 -1.6719e-08 0)
(1.83719e-09 -6.49e-10 0)
(2.70398e-09 1.68366e-08 0)
(1.69881e-09 4.55717e-09 0)
(3.39178e-10 -1.94548e-08 0)
(7.69791e-09 -1.99579e-08 0)
(8.97067e-09 -6.86275e-09 0)
(4.27475e-09 8.61652e-09 0)
(-4.95764e-09 1.28009e-08 0)
(-1.4026e-08 -1.1491e-08 0)
(-2.27266e-08 -2.96223e-08 0)
(-2.48044e-08 -8.63103e-09 0)
(7.27128e-10 -3.18577e-10 0)
(6.12825e-09 -1.27244e-08 0)
(1.90411e-09 -2.41544e-08 0)
(-3.19062e-09 -1.52372e-08 0)
(-5.17591e-10 2.64536e-09 0)
(6.00717e-09 2.84307e-09 0)
(6.89667e-09 -1.8072e-08 0)
(3.861e-09 -2.99349e-08 0)
(-2.93065e-10 -1.81409e-08 0)
(8.10759e-10 1.23839e-09 0)
(8.39682e-09 1.32977e-08 0)
(7.41659e-09 1.10525e-09 0)
(6.39051e-09 -1.33553e-08 0)
(5.57807e-09 -1.78622e-08 0)
(4.02448e-09 -8.8597e-09 0)
(-2.3116e-09 2.99109e-09 0)
(-1.10979e-08 5.9056e-09 0)
(-1.61351e-08 -1.51012e-08 0)
(-2.15959e-08 -2.99471e-08 0)
(-2.06562e-08 -9.05068e-09 0)
(-3.94754e-10 -1.3174e-09 0)
(5.21138e-09 -1.02948e-08 0)
(1.23232e-09 -1.98754e-08 0)
(-4.39134e-09 -1.18002e-08 0)
(-1.54465e-09 5.95435e-09 0)
(5.33699e-09 7.76876e-09 0)
(8.37082e-09 -1.06787e-08 0)
(3.472e-09 -2.56545e-08 0)
(-3.35249e-09 -1.97155e-08 0)
(-3.57672e-09 -3.11858e-09 0)
(-8.04938e-11 4.02055e-09 0)
(6.55394e-09 -4.46136e-09 0)
(9.08617e-09 -1.76575e-08 0)
(4.35658e-09 -2.18385e-08 0)
(-3.89276e-09 -1.52272e-08 0)
(-1.11857e-08 -6.20316e-09 0)
(-1.34019e-08 -2.63276e-09 0)
(-1.29671e-08 -1.58046e-08 0)
(-1.78377e-08 -2.43526e-08 0)
(-1.54021e-08 -7.08873e-09 0)
(3.48869e-10 -2.21075e-09 0)
(5.1324e-09 -6.0716e-09 0)
(9.67983e-10 -1.15844e-08 0)
(-4.62238e-09 -7.64883e-09 0)
(-1.49307e-09 5.3239e-09 0)
(5.06957e-09 8.28128e-09 0)
(8.15068e-09 -2.06688e-09 0)
(3.14491e-09 -1.38823e-08 0)
(-4.41705e-09 -1.26402e-08 0)
(-6.61899e-09 -5.29615e-09 0)
(8.43083e-10 -1.86466e-09 0)
(8.18516e-09 -5.74944e-09 0)
(4.9096e-09 -1.60499e-08 0)
(-4.37592e-09 -2.08798e-08 0)
(-1.20292e-08 -1.73967e-08 0)
(-1.35659e-08 -9.64079e-09 0)
(-9.93646e-09 -5.85925e-09 0)
(-6.20664e-09 -1.29196e-08 0)
(-1.13167e-08 -1.56865e-08 0)
(-1.05789e-08 -3.62678e-09 0)
(2.18857e-09 -1.04794e-09 0)
(5.66742e-09 -1.57981e-09 0)
(4.83517e-10 -3.07455e-09 0)
(-5.43286e-09 -2.68876e-09 0)
(-1.58926e-09 1.51873e-09 0)
(5.94754e-09 3.36076e-09 0)
(8.79559e-09 9.95305e-10 0)
(3.58958e-09 -2.80585e-09 0)
(-5.88111e-09 -3.72377e-09 0)
(-8.5211e-09 -2.74906e-09 0)
(-3.93944e-11 -2.13704e-09 0)
(6.91973e-09 -4.70479e-09 0)
(4.77234e-09 -8.3731e-09 0)
(-5.032e-09 -9.36663e-09 0)
(-1.1912e-08 -7.57265e-09 0)
(-1.19683e-08 -4.30461e-09 0)
(-7.58739e-09 -2.7437e-09 0)
(-1.56052e-09 -4.87764e-09 0)
(-4.95047e-09 -5.1406e-09 0)
(-6.96938e-09 -9.30949e-10 0)
)
;

boundaryField
{
    sides
    {
        type            calculated;
        value           nonuniform List<vector> 
40
(
(2.18857e-09 0 0)
(5.66742e-09 0 0)
(4.83517e-10 0 0)
(-5.43286e-09 0 0)
(-1.58926e-09 0 0)
(5.94754e-09 0 0)
(8.79559e-09 0 0)
(3.58958e-09 0 0)
(-5.88111e-09 0 0)
(-8.5211e-09 0 0)
(-3.93944e-11 0 0)
(6.91973e-09 0 0)
(4.77234e-09 0 0)
(-5.032e-09 0 0)
(-1.1912e-08 0 0)
(-1.19683e-08 0 0)
(-7.58739e-09 0 0)
(-1.56052e-09 0 0)
(-4.95047e-09 0 0)
(-6.96938e-09 0 0)
(-4.064e-10 0 0)
(8.58772e-09 0 0)
(3.06067e-09 0 0)
(-3.88899e-09 0 0)
(-8.88269e-10 0 0)
(5.32534e-09 0 0)
(7.86152e-09 0 0)
(2.56333e-09 0 0)
(-4.68877e-09 0 0)
(-5.20063e-09 0 0)
(3.8708e-10 0 0)
(5.4585e-09 0 0)
(2.40942e-09 0 0)
(-5.2565e-09 0 0)
(-1.11044e-08 0 0)
(-9.90975e-09 0 0)
(-1.57438e-10 0 0)
(3.89229e-09 0 0)
(-8.65733e-09 0 0)
(-1.64566e-08 0 0)
)
;
    }
    inlet
    {
        type            calculated;
        value           uniform (0 0 0);
    }
    outlet
    {
        type            calculated;
        value           nonuniform List<vector> 
20
(
(-1.64566e-08 -4.67854e-10 0)
(-1.14948e-08 3.34107e-09 0)
(-1.64309e-08 6.02725e-09 0)
(-1.18097e-08 9.28533e-09 0)
(-2.19111e-08 1.1942e-08 0)
(-1.9906e-08 9.60035e-09 0)
(-1.84536e-08 7.91052e-09 0)
(-1.38557e-08 5.10837e-09 0)
(-5.43862e-09 3.14283e-09 0)
(-1.31434e-08 3.1421e-09 0)
(-1.32865e-08 2.58105e-09 0)
(-1.62538e-08 -6.15727e-10 0)
(-1.84327e-08 -3.36347e-09 0)
(-2.03496e-08 -4.89576e-09 0)
(-2.34393e-08 -6.71135e-09 0)
(-2.48044e-08 -8.63103e-09 0)
(-2.06562e-08 -9.05068e-09 0)
(-1.54021e-08 -7.08873e-09 0)
(-1.05789e-08 -3.62678e-09 0)
(-6.96938e-09 -9.30949e-10 0)
)
;
    }
    frontAndBack
    {
        type            empty;
    }
}


// ************************************************************************* //
