/*--------------------------------*- C++ -*----------------------------------*\
  =========                 |
  \\      /  F ield         | OpenFOAM: The Open Source CFD Toolbox
   \\    /   O peration     | Website:  https://openfoam.org
    \\  /    A nd           | Version:  9
     \\/     M anipulation  |
\*---------------------------------------------------------------------------*/
FoamFile
{
    format      ascii;
    class       volScalarField;
    location    "48";
    object      h;
}
// * * * * * * * * * * * * * * * * * * * * * * * * * * * * * * * * * * * * * //

dimensions      [0 1 0 0 0 0 0];

internalField   nonuniform List<scalar> 
400
(
0.0100004
0.0100004
0.0100003
0.0100002
0.00999998
0.00999976
0.00999953
0.00999929
0.00999907
0.00999889
0.00999879
0.00999879
0.0099989
0.00999911
0.00999937
0.00999964
0.00999986
0.01
0.0100001
0.01
0.0100004
0.0100003
0.0100002
0.0100001
0.00999989
0.00999967
0.00999941
0.00999914
0.00999888
0.00999867
0.00999856
0.00999857
0.00999871
0.00999896
0.00999926
0.00999955
0.00999977
0.0099999
0.00999996
0.00999998
0.0100004
0.0100003
0.0100002
0.0100001
0.00999989
0.00999965
0.00999936
0.00999905
0.00999874
0.00999848
0.00999833
0.00999833
0.0099985
0.00999883
0.00999923
0.00999962
0.0099999
0.01
0.0100001
0.01
0.0100004
0.0100004
0.0100003
0.0100001
0.00999993
0.00999965
0.0099993
0.0099989
0.00999847
0.00999809
0.00999786
0.00999788
0.00999817
0.00999869
0.00999927
0.00999971
0.00999993
0.00999997
0.00999995
0.00999996
0.0100005
0.0100005
0.0100004
0.0100002
0.01
0.00999971
0.00999928
0.00999875
0.00999815
0.00999757
0.00999718
0.00999717
0.00999767
0.00999855
0.00999949
0.0100001
0.0100003
0.0100002
0.0100001
0.00999998
0.0100007
0.0100006
0.0100006
0.0100004
0.0100002
0.00999988
0.00999934
0.00999861
0.00999775
0.0099969
0.00999632
0.00999627
0.00999703
0.0099984
0.0099997
0.0100004
0.0100004
0.0100002
0.00999991
0.00999991
0.0100008
0.0100008
0.0100008
0.0100007
0.0100006
0.0100002
0.00999967
0.00999867
0.00999715
0.0099954
0.00999414
0.00999453
0.00999668
0.00999945
0.0100013
0.0100015
0.0100008
0.01
0.00999972
0.00999986
0.0100009
0.010001
0.010001
0.0100011
0.0100011
0.0100008
0.0100003
0.00999928
0.00999739
0.0099943
0.00999038
0.0099902
0.00999447
0.0100002
0.0100033
0.010003
0.0100012
0.00999982
0.00999948
0.00999982
0.010001
0.0100011
0.0100013
0.0100016
0.0100018
0.0100019
0.0100014
0.00999949
0.00999549
0.00998973
0.0099869
0.00998975
0.00999801
0.0100036
0.0100044
0.0100024
0.0100003
0.00999932
0.00999943
0.00999987
0.010001
0.0100012
0.0100014
0.0100019
0.0100026
0.010004
0.0100059
0.0100078
0.0100049
0.00897845
0.00895243
0.00997582
0.0100088
0.0100178
0.0100104
0.0100023
0.00999882
0.00999888
0.00999977
0.0100001
0.010001
0.0100011
0.0100013
0.0100018
0.0100026
0.010004
0.0100058
0.0100078
0.0100048
0.00897845
0.00895237
0.0099758
0.0100087
0.0100177
0.0100104
0.0100023
0.00999881
0.00999886
0.00999974
0.0100001
0.0100008
0.0100009
0.0100011
0.0100014
0.0100016
0.0100017
0.0100012
0.00999929
0.00999532
0.00998956
0.00998658
0.00998956
0.0099979
0.0100036
0.0100043
0.0100022
0.0100002
0.0099993
0.00999944
0.00999988
0.0100006
0.0100006
0.0100007
0.0100008
0.0100007
0.0100005
0.01
0.00999899
0.00999712
0.00999404
0.00999028
0.00998999
0.00999421
0.00999992
0.010003
0.0100029
0.0100011
0.00999974
0.00999945
0.00999982
0.0100003
0.0100003
0.0100003
0.0100003
0.0100001
0.0099998
0.00999923
0.00999824
0.00999672
0.00999495
0.00999376
0.00999413
0.00999632
0.00999915
0.010001
0.0100013
0.0100006
0.00999987
0.00999962
0.00999983
0.0100001
0.01
0.00999996
0.00999984
0.00999964
0.0099993
0.00999878
0.00999807
0.00999722
0.00999641
0.00999583
0.00999582
0.00999662
0.00999802
0.00999936
0.0100001
0.0100002
0.00999996
0.0099998
0.00999987
0.00999979
0.00999975
0.00999966
0.00999952
0.00999931
0.00999899
0.00999858
0.00999807
0.0099975
0.00999693
0.00999655
0.00999659
0.00999712
0.00999804
0.00999903
0.00999972
0.00999999
0.00999996
0.00999989
0.00999992
0.00999956
0.00999951
0.00999942
0.00999928
0.00999907
0.0099988
0.00999846
0.00999808
0.00999768
0.00999734
0.00999716
0.00999721
0.00999754
0.00999811
0.00999876
0.00999929
0.00999961
0.00999975
0.00999982
0.00999991
0.00999937
0.00999932
0.00999923
0.00999909
0.0099989
0.00999866
0.00999838
0.00999808
0.00999778
0.00999754
0.00999742
0.00999747
0.00999771
0.0099981
0.00999857
0.00999902
0.00999937
0.00999961
0.00999977
0.00999991
0.00999921
0.00999917
0.00999909
0.00999895
0.00999878
0.00999857
0.00999834
0.00999809
0.00999787
0.0099977
0.00999762
0.00999765
0.00999784
0.00999815
0.00999853
0.00999893
0.00999927
0.00999954
0.00999975
0.00999991
0.00999908
0.00999904
0.00999895
0.00999881
0.00999864
0.00999844
0.00999822
0.00999799
0.00999779
0.00999765
0.00999758
0.00999763
0.0099978
0.00999808
0.00999841
0.00999877
0.00999911
0.00999939
0.00999964
0.00999986
)
;

boundaryField
{
    sides
    {
        type            zeroGradient;
    }
    inlet
    {
        type            zeroGradient;
    }
    outlet
    {
        type            fixedValue;
        value           uniform 0.01;
    }
    frontAndBack
    {
        type            empty;
    }
}


// ************************************************************************* //
