/*--------------------------------*- C++ -*----------------------------------*\
  =========                 |
  \\      /  F ield         | OpenFOAM: The Open Source CFD Toolbox
   \\    /   O peration     | Website:  https://openfoam.org
    \\  /    A nd           | Version:  9
     \\/     M anipulation  |
\*---------------------------------------------------------------------------*/
FoamFile
{
    format      ascii;
    class       volScalarField;
    location    "48";
    object      h_0;
}
// * * * * * * * * * * * * * * * * * * * * * * * * * * * * * * * * * * * * * //

dimensions      [0 1 0 0 0 0 0];

internalField   nonuniform List<scalar> 
400
(
0.0100004
0.0100004
0.0100003
0.0100002
0.00999998
0.00999977
0.00999953
0.00999929
0.00999907
0.0099989
0.0099988
0.0099988
0.00999891
0.00999912
0.00999938
0.00999964
0.00999986
0.01
0.0100001
0.01
0.0100004
0.0100003
0.0100002
0.0100001
0.0099999
0.00999967
0.00999941
0.00999914
0.00999889
0.00999868
0.00999856
0.00999858
0.00999872
0.00999897
0.00999927
0.00999956
0.00999978
0.0099999
0.00999996
0.00999998
0.0100004
0.0100003
0.0100002
0.0100001
0.00999989
0.00999965
0.00999936
0.00999905
0.00999874
0.00999849
0.00999834
0.00999834
0.00999851
0.00999884
0.00999924
0.00999962
0.0099999
0.01
0.0100001
0.01
0.0100004
0.0100004
0.0100003
0.0100001
0.00999993
0.00999965
0.00999931
0.0099989
0.00999848
0.0099981
0.00999787
0.00999789
0.00999818
0.0099987
0.00999928
0.00999971
0.00999993
0.00999997
0.00999995
0.00999996
0.0100005
0.0100005
0.0100004
0.0100002
0.01
0.00999971
0.00999929
0.00999876
0.00999815
0.00999758
0.00999717
0.00999718
0.00999767
0.00999855
0.00999949
0.0100001
0.0100003
0.0100002
0.0100001
0.00999998
0.0100007
0.0100006
0.0100006
0.0100004
0.0100002
0.00999988
0.00999935
0.00999861
0.00999775
0.0099969
0.00999633
0.00999626
0.00999704
0.0099984
0.0099997
0.0100004
0.0100004
0.0100002
0.00999991
0.00999991
0.0100008
0.0100008
0.0100008
0.0100007
0.0100006
0.0100002
0.00999967
0.00999866
0.00999715
0.00999538
0.00999416
0.00999455
0.00999667
0.00999946
0.0100013
0.0100015
0.0100008
0.01
0.00999972
0.00999986
0.0100009
0.010001
0.010001
0.0100011
0.0100011
0.0100008
0.0100003
0.00999927
0.00999738
0.00999433
0.00999048
0.00999022
0.00999448
0.0100002
0.0100033
0.010003
0.0100012
0.00999982
0.00999948
0.00999982
0.010001
0.0100011
0.0100013
0.0100016
0.0100018
0.0100019
0.0100014
0.00999949
0.0099955
0.0099897
0.00998679
0.00998972
0.009998
0.0100036
0.0100044
0.0100024
0.0100003
0.00999932
0.00999942
0.00999987
0.010001
0.0100012
0.0100014
0.0100019
0.0100026
0.010004
0.0100059
0.0100078
0.0100049
0.00897846
0.0089524
0.00997581
0.0100088
0.0100178
0.0100104
0.0100023
0.00999882
0.00999888
0.00999976
0.0100001
0.010001
0.0100011
0.0100013
0.0100018
0.0100026
0.010004
0.0100058
0.0100078
0.0100048
0.00897844
0.0089524
0.0099758
0.0100087
0.0100177
0.0100104
0.0100022
0.00999881
0.00999886
0.00999973
0.0100001
0.0100008
0.0100009
0.0100011
0.0100014
0.0100016
0.0100017
0.0100012
0.00999929
0.00999531
0.00998955
0.00998651
0.00998959
0.0099979
0.0100036
0.0100043
0.0100022
0.0100002
0.00999929
0.00999944
0.00999988
0.0100006
0.0100006
0.0100007
0.0100008
0.0100007
0.0100005
0.01
0.00999898
0.00999712
0.00999403
0.00999036
0.00998995
0.00999421
0.00999992
0.010003
0.0100028
0.0100011
0.00999974
0.00999945
0.00999982
0.0100003
0.0100003
0.0100003
0.0100003
0.0100001
0.0099998
0.00999923
0.00999824
0.00999672
0.00999496
0.00999373
0.00999414
0.00999633
0.00999915
0.010001
0.0100013
0.0100006
0.00999987
0.00999962
0.00999983
0.0100001
0.01
0.00999996
0.00999984
0.00999964
0.0099993
0.00999878
0.00999807
0.00999722
0.0099964
0.00999584
0.00999583
0.00999663
0.00999803
0.00999937
0.0100001
0.0100002
0.00999997
0.0099998
0.00999987
0.00999979
0.00999975
0.00999966
0.00999952
0.00999931
0.009999
0.00999858
0.00999807
0.00999751
0.00999694
0.00999655
0.00999659
0.00999713
0.00999805
0.00999903
0.00999972
0.00999999
0.00999996
0.00999989
0.00999992
0.00999956
0.00999951
0.00999942
0.00999927
0.00999907
0.00999881
0.00999847
0.00999808
0.00999769
0.00999735
0.00999717
0.00999722
0.00999755
0.00999812
0.00999876
0.00999929
0.00999961
0.00999975
0.00999982
0.00999991
0.00999936
0.00999932
0.00999923
0.00999909
0.0099989
0.00999867
0.00999839
0.00999808
0.00999779
0.00999755
0.00999743
0.00999748
0.00999772
0.00999811
0.00999858
0.00999902
0.00999938
0.00999961
0.00999978
0.00999991
0.00999921
0.00999917
0.00999909
0.00999896
0.00999878
0.00999857
0.00999834
0.0099981
0.00999787
0.00999771
0.00999763
0.00999767
0.00999785
0.00999816
0.00999854
0.00999894
0.00999928
0.00999955
0.00999975
0.00999991
0.00999908
0.00999904
0.00999895
0.00999881
0.00999864
0.00999844
0.00999822
0.009998
0.0099978
0.00999765
0.0099976
0.00999765
0.00999782
0.00999809
0.00999842
0.00999878
0.00999911
0.0099994
0.00999965
0.00999986
)
;

boundaryField
{
    sides
    {
        type            zeroGradient;
    }
    inlet
    {
        type            zeroGradient;
    }
    outlet
    {
        type            fixedValue;
        value           uniform 0.01;
    }
    frontAndBack
    {
        type            empty;
    }
}


// ************************************************************************* //
