/*--------------------------------*- C++ -*----------------------------------*\
  =========                 |
  \\      /  F ield         | OpenFOAM: The Open Source CFD Toolbox
   \\    /   O peration     | Website:  https://openfoam.org
    \\  /    A nd           | Version:  9
     \\/     M anipulation  |
\*---------------------------------------------------------------------------*/
FoamFile
{
    format      ascii;
    class       surfaceScalarField;
    location    "48";
    object      phi_0;
}
// * * * * * * * * * * * * * * * * * * * * * * * * * * * * * * * * * * * * * //

dimensions      [0 4 -1 0 0 0 0];

internalField   nonuniform List<scalar> 
760
(
5.00009e-06
-8.84477e-11
5.00039e-06
-3.01692e-10
5.0009e-06
-5.17337e-10
5.00162e-06
-7.19234e-10
5.00251e-06
-8.8089e-10
5.00351e-06
-9.88253e-10
5.00455e-06
-1.0355e-09
5.00556e-06
-1.00206e-09
5.00641e-06
-8.37713e-10
5.00696e-06
-5.31376e-10
5.0071e-06
-1.17727e-10
5.0067e-06
4.18558e-10
5.00586e-06
8.67761e-10
5.00478e-06
1.09869e-09
5.00363e-06
1.15736e-09
5.0027e-06
9.44802e-10
5.00198e-06
7.28967e-10
5.00172e-06
2.71105e-10
5.00162e-06
1.1136e-10
-3.98287e-10
5.00011e-06
-2.07068e-10
5.00044e-06
-6.25578e-10
5.00097e-06
-1.05395e-09
5.00173e-06
-1.46963e-09
5.00267e-06
-1.81742e-09
5.00375e-06
-2.06639e-09
5.00493e-06
-2.2015e-09
5.0061e-06
-2.17086e-09
5.00714e-06
-1.8659e-09
5.00781e-06
-1.18293e-09
5.00779e-06
-7.37098e-11
5.00731e-06
9.27243e-10
5.00632e-06
1.87325e-09
5.00504e-06
2.41214e-09
5.00379e-06
2.42453e-09
5.0029e-06
1.8469e-09
5.00237e-06
1.26902e-09
5.00203e-06
6.21844e-10
5.00177e-06
3.79997e-10
-1.60792e-10
5.0001e-06
-3.15118e-10
5.00042e-06
-9.42019e-10
5.00096e-06
-1.58743e-09
5.00173e-06
-2.24031e-09
5.00274e-06
-2.82218e-09
5.00395e-06
-3.28131e-09
5.00532e-06
-3.56534e-09
5.00672e-06
-3.56244e-09
5.00794e-06
-3.0714e-09
5.00875e-06
-1.96815e-09
5.00898e-06
-2.76973e-10
5.0083e-06
1.63168e-09
5.00693e-06
3.27822e-09
5.00523e-06
4.13828e-09
5.00361e-06
4.06931e-09
5.00243e-06
3.04345e-09
5.00179e-06
1.92699e-09
5.00158e-06
8.37034e-10
5.00155e-06
4.14569e-10
-2.33248e-10
5.00009e-06
-4.14718e-10
5.0004e-06
-1.24955e-09
5.00095e-06
-2.12488e-09
5.00176e-06
-3.05019e-09
5.00287e-06
-3.93361e-09
5.00429e-06
-4.70993e-09
5.00602e-06
-5.28048e-09
5.00795e-06
-5.48959e-09
5.00986e-06
-4.9476e-09
5.0111e-06
-3.19865e-09
5.01124e-06
-3.79509e-10
5.01004e-06
2.84953e-09
5.0077e-06
5.6341e-09
5.00521e-06
6.65469e-09
5.00356e-06
5.74448e-09
5.00281e-06
3.82104e-09
5.00259e-06
2.15604e-09
5.00242e-06
1.01023e-09
5.00211e-06
7.36728e-10
3.27982e-10
5.00008e-06
-4.96038e-10
5.00034e-06
-1.5087e-09
5.00084e-06
-2.62077e-09
5.00165e-06
-3.85649e-09
5.00287e-06
-5.15869e-09
5.00458e-06
-6.42445e-09
5.0068e-06
-7.49837e-09
5.00943e-06
-8.09332e-09
5.0124e-06
-7.90804e-09
5.01482e-06
-5.596e-09
5.01484e-06
-4.28159e-10
5.01289e-06
4.83435e-09
5.00872e-06
9.80186e-09
5.00466e-06
1.07203e-08
5.00232e-06
8.09877e-09
5.00184e-06
4.31861e-09
5.00215e-06
1.86255e-09
5.00235e-06
8.17642e-10
5.00211e-06
9.85802e-10
6.16334e-10
5.00005e-06
-5.37149e-10
5.00021e-06
-1.66653e-09
5.00055e-06
-2.96328e-09
5.00122e-06
-4.53006e-09
5.00242e-06
-6.35796e-09
5.00453e-06
-8.53696e-09
5.00761e-06
-1.05732e-08
5.0117e-06
-1.21587e-08
5.01554e-06
-1.1775e-08
5.01903e-06
-9.0629e-09
5.02024e-06
-1.65682e-09
5.01606e-06
8.99799e-09
5.00957e-06
1.63107e-08
5.00428e-06
1.60055e-08
5.00224e-06
1.01334e-08
5.00257e-06
3.99369e-09
5.00336e-06
1.08352e-09
5.0035e-06
6.85609e-10
5.0029e-06
1.58654e-09
1.41781e-09
4.99999e-06
-5.17938e-10
4.99995e-06
-1.62718e-09
5.00004e-06
-3.0562e-09
5.00037e-06
-4.85541e-09
5.00123e-06
-7.21507e-09
5.00293e-06
-1.02398e-08
5.00683e-06
-1.44607e-08
5.01394e-06
-1.92957e-08
5.02378e-06
-2.1599e-08
5.03092e-06
-1.6276e-08
5.02878e-06
5.86226e-10
5.01678e-06
2.09749e-08
5.00424e-06
2.88422e-08
4.9988e-06
2.14502e-08
5.00065e-06
8.28531e-09
5.00292e-06
1.71918e-09
5.0038e-06
2.13117e-10
5.00376e-06
7.2785e-10
5.00314e-06
2.20331e-09
1.68021e-09
4.99987e-06
-3.86014e-10
4.99957e-06
-1.31659e-09
4.99914e-06
-2.62657e-09
4.99887e-06
-4.57553e-09
4.99934e-06
-7.68269e-09
5.00037e-06
-1.12764e-08
5.00367e-06
-1.77727e-08
5.00986e-06
-2.54845e-08
5.0249e-06
-3.66755e-08
5.05613e-06
-4.74777e-08
5.05006e-06
7.01351e-09
5.02324e-06
4.78805e-08
4.99824e-06
5.3842e-08
4.99356e-06
2.61305e-08
4.99954e-06
2.31279e-09
5.00415e-06
-2.88788e-09
5.00499e-06
-6.44141e-10
5.00381e-06
1.8945e-09
5.00359e-06
2.41304e-09
9.72801e-10
4.99978e-06
-1.57793e-10
4.99917e-06
-7.05248e-10
4.99794e-06
-1.38866e-09
4.99612e-06
-2.74999e-09
4.99403e-06
-5.58625e-09
4.99376e-06
-1.10117e-08
4.99947e-06
-2.35051e-08
5.01716e-06
-4.31779e-08
5.05572e-06
-7.52119e-08
5.06682e-06
-5.86241e-08
5.04975e-06
2.37507e-08
4.99652e-06
1.01025e-07
4.98935e-06
6.10062e-08
4.99597e-06
1.95286e-08
5.00026e-06
-1.96024e-09
5.003e-06
-5.61812e-09
5.0026e-06
-2.54122e-10
5.00193e-06
2.55441e-09
5.00263e-06
1.7046e-09
7.58972e-11
4.99987e-06
-1.95188e-11
4.99922e-06
-5.58683e-11
4.99793e-06
-8.94302e-11
4.99532e-06
-1.28837e-10
4.9899e-06
-1.6847e-10
4.9791e-06
-2.18674e-10
4.95584e-06
-2.63121e-10
4.91299e-06
-3.10959e-10
4.83814e-06
-3.94818e-10
4.78002e-06
-4.32011e-10
4.80427e-06
-6.342e-10
4.90606e-06
-7.37555e-10
4.96784e-06
-7.58927e-10
4.98829e-06
-9.22459e-10
4.98751e-06
-1.17541e-09
4.98333e-06
-1.4276e-09
4.98463e-06
-1.54997e-09
4.98899e-06
-1.8174e-09
4.99256e-06
-1.87446e-09
-2.56956e-09
4.99987e-06
1.20134e-10
4.99922e-06
5.93524e-10
4.99793e-06
1.21344e-09
4.99531e-06
2.49638e-09
4.98988e-06
5.25869e-09
4.97907e-06
1.05911e-08
4.95581e-06
2.29953e-08
4.91293e-06
4.25481e-08
4.83806e-06
7.448e-08
4.77973e-06
5.78511e-08
4.80428e-06
-2.51023e-08
4.90603e-06
-1.02516e-07
4.96782e-06
-6.25601e-08
4.98814e-06
-2.12237e-08
4.98743e-06
-4.61471e-10
4.983e-06
2.99555e-09
4.9845e-06
-3.05899e-09
4.98897e-06
-6.29843e-09
4.99243e-06
-5.34358e-09
-4.96272e-09
4.99978e-06
3.50479e-10
4.99916e-06
1.21115e-09
4.99793e-06
2.44977e-09
4.99611e-06
4.32304e-09
4.99402e-06
7.34914e-09
4.99374e-06
1.08697e-08
4.99946e-06
1.72851e-08
5.01711e-06
2.48774e-08
5.05566e-06
3.59208e-08
5.06706e-06
4.63559e-08
5.0495e-06
-6.26323e-09
4.99614e-06
-4.91222e-08
4.98891e-06
-5.533e-08
4.99577e-06
-2.80778e-08
5.00017e-06
-4.87533e-09
5.00237e-06
7.83583e-10
5.00172e-06
-2.41691e-09
5.00099e-06
-5.57099e-09
5.00177e-06
-6.12925e-09
-5.9251e-09
4.99987e-06
4.85054e-10
4.99956e-06
1.52704e-09
4.99912e-06
2.8886e-09
4.99883e-06
4.61547e-09
4.99928e-06
6.90969e-09
5.00028e-06
9.86673e-09
5.00351e-06
1.40555e-08
5.00963e-06
1.87463e-08
5.0246e-06
2.093e-08
5.05561e-06
1.54207e-08
5.04977e-06
-1.72454e-09
5.02286e-06
-2.22721e-08
4.99794e-06
-3.03818e-08
4.99323e-06
-2.337e-08
4.99871e-06
-1.03524e-08
5.00352e-06
-4.02614e-09
5.0038e-06
-2.70405e-09
5.00244e-06
-4.21789e-09
5.00225e-06
-5.94245e-09
-6.5059e-09
4.99998e-06
5.06743e-10
4.99994e-06
1.5748e-09
5.00001e-06
2.81363e-09
5.00031e-06
4.31998e-09
5.00114e-06
6.09023e-09
5.00281e-06
8.1996e-09
5.0067e-06
1.01575e-08
5.0138e-06
1.1643e-08
5.02359e-06
1.11435e-08
5.03074e-06
8.29182e-09
5.0284e-06
5.70218e-10
5.0163e-06
-1.01126e-08
5.00356e-06
-1.76431e-08
4.99784e-06
-1.76456e-08
4.99949e-06
-1.19835e-08
5.00169e-06
-6.21846e-09
5.00249e-06
-3.50689e-09
5.00222e-06
-3.95818e-09
5.00129e-06
-5.00974e-09
-5.94526e-09
5.00004e-06
4.68522e-10
5.00019e-06
1.42952e-09
5.00051e-06
2.49267e-09
5.00115e-06
3.67679e-09
5.00232e-06
4.924e-09
5.00441e-06
6.12455e-09
5.00743e-06
7.1294e-09
5.01141e-06
7.65482e-09
5.01516e-06
7.408e-09
5.01855e-06
4.89431e-09
5.0196e-06
-4.35729e-10
5.01527e-06
-5.78984e-09
5.0086e-06
-1.0952e-08
5.00319e-06
-1.22052e-08
5.00096e-06
-9.7445e-09
5.00109e-06
-6.34884e-09
5.00164e-06
-4.05658e-09
5.00141e-06
-3.72514e-09
5.00045e-06
-4.04867e-09
-4.94441e-09
5.00008e-06
3.90725e-10
5.00032e-06
1.18514e-09
5.00079e-06
2.02053e-09
5.00156e-06
2.90048e-09
5.00275e-06
3.7406e-09
5.00442e-06
4.46884e-09
5.00657e-06
4.98731e-09
5.0091e-06
5.11898e-09
5.01204e-06
4.46764e-09
5.01443e-06
2.52987e-09
5.01419e-06
-1.84775e-10
5.01214e-06
-3.72123e-09
5.00782e-06
-6.61025e-09
5.00356e-06
-7.93554e-09
5.00101e-06
-7.18588e-09
5.00022e-06
-5.55582e-09
5.0002e-06
-4.03015e-09
4.99997e-06
-3.49048e-09
4.99928e-06
-3.34448e-09
-4.14144e-09
5.00009e-06
2.93531e-10
5.00039e-06
8.90026e-10
5.0009e-06
1.50729e-09
5.00167e-06
2.12453e-09
5.00274e-06
2.67221e-09
5.00412e-06
3.08996e-09
5.00579e-06
3.33485e-09
5.00764e-06
3.28827e-09
5.00935e-06
2.7684e-09
5.01031e-06
1.58054e-09
5.01047e-06
-3.35235e-10
5.00908e-06
-2.31123e-09
5.00656e-06
-4.0793e-09
5.00375e-06
-5.11085e-09
5.00163e-06
-5.06101e-09
5.00044e-06
-4.35896e-09
4.99981e-06
-3.38335e-09
4.99927e-06
-2.94416e-09
4.99857e-06
-2.62454e-09
-3.18817e-09
5.0001e-06
1.93644e-10
5.0004e-06
5.85184e-10
5.00092e-06
9.88777e-10
5.00166e-06
1.37892e-09
5.00262e-06
1.70753e-09
5.00378e-06
1.93442e-09
5.00509e-06
2.03726e-09
5.00645e-06
1.94702e-09
5.00766e-06
1.57372e-09
5.00842e-06
8.41928e-10
5.00827e-06
-1.5777e-10
5.0074e-06
-1.41428e-09
5.00577e-06
-2.42615e-09
5.00376e-06
-3.085e-09
5.00188e-06
-3.16975e-09
5.00044e-06
-2.90102e-09
4.99943e-06
-2.35268e-09
4.99863e-06
-2.13289e-09
4.99785e-06
-1.82873e-09
-2.25704e-09
5.00007e-06
1.12311e-10
5.00036e-06
2.99396e-10
5.00085e-06
4.95218e-10
5.00155e-06
6.84439e-10
5.00242e-06
8.38217e-10
5.00341e-06
9.39229e-10
5.00447e-06
9.79985e-10
5.0055e-06
9.32316e-10
5.00634e-06
7.47644e-10
5.00684e-06
3.70156e-10
5.00686e-06
-1.50908e-10
5.00613e-06
-6.54145e-10
5.00485e-06
-1.11587e-09
5.00323e-06
-1.43935e-09
5.00159e-06
-1.50066e-09
5.00015e-06
-1.43694e-09
4.99901e-06
-1.19774e-09
4.99804e-06
-1.15251e-09
4.99719e-06
-9.7403e-10
-1.4137e-09
5.0001e-06
5.0004e-06
5.00089e-06
5.00158e-06
5.00243e-06
5.00337e-06
5.00435e-06
5.00529e-06
5.00604e-06
5.00643e-06
5.00631e-06
5.00569e-06
5.0046e-06
5.00319e-06
5.00171e-06
5.0003e-06
4.99912e-06
4.99797e-06
4.997e-06
)
;

boundaryField
{
    sides
    {
        type            calculated;
        value           uniform 0;
    }
    inlet
    {
        type            calculated;
        value           nonuniform List<scalar> 
20
(
-5e-06
-5e-06
-5e-06
-5e-06
-5e-06
-5e-06
-5e-06
-5e-06
-5e-06
-5e-06
-5e-06
-5e-06
-5e-06
-5e-06
-5e-06
-5e-06
-5e-06
-5e-06
-5e-06
-5e-06
)
;
    }
    outlet
    {
        type            calculated;
        value           nonuniform List<scalar> 
20
(
5.00201e-06
5.00153e-06
5.00163e-06
5.00155e-06
5.00182e-06
5.0021e-06
5.00287e-06
5.0043e-06
5.00351e-06
4.99521e-06
4.99482e-06
5.00273e-06
5.00283e-06
5.00073e-06
4.99946e-06
4.99848e-06
4.99762e-06
4.99692e-06
4.99635e-06
4.99558e-06
)
;
    }
    frontAndBack
    {
        type            empty;
        value           nonuniform List<scalar> 0();
    }
}


// ************************************************************************* //
