2.80937e-05 1.08556e-08
8.78022e-05 1.15198e-08
0.000154994 1.11128e-08
0.000230608 9.68835e-09
0.000315699 7.54164e-09
0.000411455 5.21446e-09
0.000519212 3.52078e-09
0.000640475 4.76631e-09
0.000776937 1.27138e-07
0.000930502 3.17393e-05
0.00110331 0.00395309
0.00129779   0.183328
0.00151663    3.46388
0.00176291    29.8813
0.00204005    64.0655
0.00235193    51.8342
 0.0027029    39.4723
0.00309785    30.1829
0.00354231    23.2459
0.00404248    17.9938
0.00460533    13.9614
0.00523873    10.8323
0.00595151    8.38944
0.00675364    6.47875
 0.0076563    4.98615
0.00867209    3.82369
 0.0098152    2.92181
 0.0111016    2.22488
 0.0125492    1.68837
 0.0141782     1.2767
 0.0160115   0.961653
 0.0180745   0.720948
  0.020396   0.537128
 0.0230086   0.396587
 0.0259485   0.288792
  0.029257   0.205694
 0.0329801   0.141387
 0.0371699    0.09218
 0.0418848  0.0571992
 0.0471906   0.038471
 0.0528094  0.0396296
 0.0581152  0.0603464
 0.0628301  0.0966063
 0.0670199   0.146602
  0.070743   0.211548
 0.0740515   0.295307
 0.0769914   0.403845
  0.079604   0.545221
 0.0819255   0.729958
 0.0839885   0.971644
 0.0858218    1.28772
 0.0874508    1.70041
 0.0888984    2.23792
 0.0901848    2.93574
 0.0913279    3.83833
 0.0923437    5.00119
 0.0932464    6.49377
 0.0940485    8.40393
 0.0947613    10.8456
 0.0953947    13.9723
 0.0959575    17.9987
 0.0964577    23.2342
 0.0969021    30.1296
 0.0972971    39.3351
 0.0976481    51.5898
   0.09796    64.0386
 0.0982371    32.1154
 0.0984834     3.8159
 0.0987022   0.209338
 0.0988967 0.00477307
 0.0990695 4.51464e-05
 0.0992231 3.02776e-07
 0.0993595 1.12792e-08
 0.0994808 4.83887e-09
 0.0995885 5.51244e-09
 0.0996843 7.5859e-09
 0.0997694 9.67204e-09
  0.099845 1.10895e-08
 0.0999122 1.15044e-08
 0.0999719 1.08507e-08
