2.80937e-05    3367.03
8.78022e-05    3346.66
0.000154994    3320.29
0.000230608     3291.1
0.000315699    3266.95
0.000411455    3257.48
0.000519212    3274.09
0.000640475    3330.16
0.000776937    3441.16
0.000930502    3624.92
0.00110331    3901.64
0.00129779    4293.05
0.00151663    4560.61
0.00176291    3528.55
0.00204005    1878.22
0.00235193    1085.14
 0.0027029    754.239
0.00309785    565.629
0.00354231    442.042
0.00404248    354.186
0.00460533    288.412
0.00523873    237.332
0.00595151    196.651
0.00675364    163.717
 0.0076563     136.78
0.00867209    114.599
 0.0098152    96.2486
 0.0111016    81.0131
 0.0125492    68.3266
 0.0141782    57.7354
 0.0160115    48.8714
 0.0180745    41.4317
  0.020396    35.1614
 0.0230086    29.8387
 0.0259485    25.2555
  0.029257    21.1885
 0.0329801    17.3465
 0.0371699     13.296
 0.0418848     8.5067
 0.0471906    2.71912
 0.0528094    3.50385
 0.0581152    9.10859
 0.0628301     13.677
 0.0670199    17.5772
  0.070743    21.3403
 0.0740515    25.3672
 0.0769914    29.9284
  0.079604    35.2368
 0.0819255    41.4957
 0.0839885    48.9244
 0.0858218     57.776
 0.0874508    68.3523
 0.0888984    81.0199
 0.0901848    96.2307
 0.0913279    114.548
 0.0923437    136.683
 0.0932464    163.557
 0.0940485    196.406
 0.0947613    236.977
 0.0953947    287.904
 0.0959575    353.421
 0.0964577    440.719
 0.0969021    562.955
 0.0972971    748.481
 0.0976481    1072.59
   0.09796    1848.02
 0.0982371    3487.49
 0.0984834    4556.71
 0.0987022    4320.79
 0.0988967    3923.39
 0.0990695    3641.99
 0.0992231    3454.46
 0.0993595     3340.4
 0.0994808    3281.89
 0.0995885    3263.35
 0.0996843    3271.35
 0.0997694    3294.39
  0.099845     3322.8
 0.0999122    3348.66
 0.0999719    3368.74
