2.80937e-05 9.94413e-11
8.78022e-05 9.11693e-11
0.000154994 7.62855e-11
0.000230608 5.6726e-11
0.000315699 3.57886e-11
0.000411455 1.74539e-11
0.000519212 5.20132e-12
0.000640475 4.56594e-13
0.000776937 2.98074e-12
0.000930502 1.38374e-09
0.00110331 5.54625e-07
0.00129779 8.31408e-05
0.00151663 0.00443954
0.00176291  0.0821194
0.00204005   0.201501
0.00235193   0.222303
 0.0027029     0.2227
0.00309785   0.215685
0.00354231   0.205421
0.00404248    0.19355
0.00460533   0.180842
0.00523873   0.167743
0.00595151   0.154578
0.00675364    0.14161
 0.0076563   0.129049
0.00867209   0.117051
 0.0098152   0.105719
 0.0111016    0.09511
 0.0125492  0.0852399
 0.0141782  0.0760943
 0.0160115  0.0676328
 0.0180745  0.0597957
  0.020396  0.0525072
 0.0230086  0.0456799
 0.0259485    0.03922
  0.029257  0.0330387
 0.0329801  0.0270859
 0.0371699   0.021447
 0.0418848  0.0165739
 0.0471906  0.0135373
 0.0528094   0.013787
 0.0581152  0.0171923
 0.0628301   0.022225
 0.0670199  0.0279011
  0.070743  0.0338452
 0.0740515  0.0400039
 0.0769914  0.0464373
  0.079604   0.053237
 0.0819255  0.0604969
 0.0839885  0.0683042
 0.0858218  0.0767345
 0.0874508  0.0858478
 0.0888984  0.0956846
 0.0901848    0.10626
 0.0913279   0.117558
 0.0923437   0.129523
 0.0932464   0.142053
 0.0940485   0.154995
 0.0947613   0.168144
 0.0953947   0.181241
 0.0959575   0.193963
 0.0964577   0.205853
 0.0969021   0.216117
 0.0972971   0.223113
 0.0976481   0.222809
   0.09796   0.202891
 0.0982371  0.0880418
 0.0984834 0.00504825
 0.0987022 9.86954e-05
 0.0988967 6.91849e-07
 0.0990695 1.7741e-09
 0.0992231 3.21125e-12
 0.0993595 3.02489e-13
 0.0994808 4.70617e-12
 0.0995885 1.68226e-11
 0.0996843 3.51345e-11
 0.0997694 5.61531e-11
  0.099845 7.58609e-11
 0.0999122 9.09197e-11
 0.0999719 9.93632e-11
