2.80937e-05 -9.21233e-12
8.78022e-05 -7.25281e-12
0.000154994 -5.22251e-12
0.000230608 -3.28319e-12
0.000315699 -1.66651e-12
0.000411455 -5.71605e-13
0.000519212 -7.55649e-14
0.000640475 -4.37506e-16
0.000776937 -7.22302e-16
0.000930502 -6.56831e-13
0.00110331 -9.11907e-10
0.00129779 -4.86441e-07
0.00151663 -8.41048e-05
0.00176291 -0.0142672
0.00204005 -0.0553015
0.00235193 -0.0622653
 0.0027029 -0.0647511
0.00309785  -0.063982
0.00354231 -0.0616293
0.00404248 -0.0584199
0.00460533 -0.0547312
0.00523873 -0.0507803
0.00595151 -0.0467276
0.00675364 -0.0427047
 0.0076563 -0.0388126
0.00867209 -0.0351195
 0.0098152 -0.0316636
 0.0111016   -0.02846
 0.0125492 -0.0255066
 0.0141782 -0.0227897
 0.0160115 -0.0202878
 0.0180745 -0.0179732
  0.020396 -0.0158137
 0.0230086 -0.0137725
 0.0259485 -0.0118074
  0.029257 -0.00986778
 0.0329801 -0.00789087
 0.0371699 -0.00580512
 0.0418848 -0.00356725
 0.0471906 -0.00113052
 0.0528094  0.0014674
 0.0581152  0.0038998
 0.0628301 0.00612628
 0.0670199 0.00819143
  0.070743  0.0101502
 0.0740515  0.0120756
 0.0769914  0.0140288
  0.079604  0.0160592
 0.0819255  0.0182084
 0.0839885  0.0205127
 0.0858218  0.0230041
 0.0874508  0.0257101
 0.0888984  0.0286524
 0.0901848  0.0318445
 0.0913279  0.0352885
 0.0923437  0.0389695
 0.0932464  0.0428497
 0.0940485  0.0468625
 0.0947613  0.0509108
 0.0953947  0.0548677
 0.0959575  0.0585748
 0.0964577  0.0618061
 0.0969021  0.0641613
 0.0972971  0.0649032
 0.0976481  0.0624221
   0.09796  0.0557675
 0.0982371  0.0161349
 0.0984834 9.99185e-05
 0.0987022 6.04262e-07
 0.0988967 1.18176e-09
 0.0990695 7.62627e-13
 0.0992231 3.53385e-16
 0.0993595 8.13918e-17
 0.0994808 4.51187e-14
 0.0995885 5.03208e-13
 0.0996843 1.59892e-12
 0.0997694 3.22587e-12
  0.099845 5.17927e-12
 0.0999122 7.22712e-12
 0.0999719 9.20665e-12
