2.80937e-05 6.62942e-11
8.78022e-05 6.07795e-11
0.000154994 5.0857e-11
0.000230608 3.78173e-11
0.000315699 2.3859e-11
0.000411455 1.16359e-11
0.000519212 3.46755e-12
0.000640475 3.04396e-13
0.000776937 1.98716e-12
0.000930502 9.22495e-10
0.00110331 3.6975e-07
0.00129779 5.54272e-05
0.00151663  0.0029597
0.00176291  0.0547463
0.00204005   0.134334
0.00235193   0.148202
 0.0027029   0.148467
0.00309785    0.14379
0.00354231   0.136948
0.00404248   0.129033
0.00460533   0.120561
0.00523873   0.111829
0.00595151   0.103052
0.00675364  0.0944068
 0.0076563  0.0860326
0.00867209  0.0780339
 0.0098152  0.0704795
 0.0111016  0.0634066
 0.0125492  0.0568266
 0.0141782  0.0507295
 0.0160115  0.0450886
 0.0180745  0.0398638
  0.020396  0.0350048
 0.0230086  0.0304533
 0.0259485  0.0261467
  0.029257  0.0220258
 0.0329801  0.0180573
 0.0371699   0.014298
 0.0418848  0.0110493
 0.0471906 0.00902486
 0.0528094 0.00919132
 0.0581152  0.0114615
 0.0628301  0.0148167
 0.0670199  0.0186007
  0.070743  0.0225635
 0.0740515  0.0266692
 0.0769914  0.0309582
  0.079604  0.0354913
 0.0819255  0.0403312
 0.0839885  0.0455361
 0.0858218  0.0511563
 0.0874508  0.0572319
 0.0888984  0.0637897
 0.0901848    0.07084
 0.0913279  0.0783718
 0.0923437  0.0863483
 0.0932464  0.0947018
 0.0940485    0.10333
 0.0947613   0.112096
 0.0953947   0.120827
 0.0959575   0.129309
 0.0964577   0.137235
 0.0969021   0.144078
 0.0972971   0.148742
 0.0976481   0.148539
   0.09796   0.135261
 0.0982371  0.0586945
 0.0984834  0.0033655
 0.0987022 6.57969e-05
 0.0988967 4.61233e-07
 0.0990695 1.18273e-09
 0.0992231 2.14083e-12
 0.0993595 2.01659e-13
 0.0994808 3.13745e-12
 0.0995885 1.12151e-11
 0.0996843 2.3423e-11
 0.0997694 3.74354e-11
  0.099845 5.05739e-11
 0.0999122 6.06131e-11
 0.0999719 6.62421e-11
