2.80937e-05  0.0948384
8.78022e-05   0.295356
0.000154994   0.519445
0.000230608   0.769388
0.000315699     1.0482
0.000411455     1.3601
0.000519212    1.71114
0.000640475    2.11016
0.000776937    2.57001
0.000930502    3.10941
0.00110331    3.75527
0.00129779    4.54598
0.00151663     5.5352
0.00176291    6.66832
0.00204005      7.349
0.00235193    7.75456
 0.0027029    8.05987
0.00309785    8.31208
0.00354231    8.53105
0.00404248    8.72683
0.00460533    8.90522
0.00523873    9.06983
0.00595151    9.22293
0.00675364    9.36611
 0.0076563    9.50054
0.00867209    9.62714
 0.0098152    9.74667
 0.0111016    9.85979
 0.0125492    9.96705
 0.0141782     10.069
 0.0160115     10.166
 0.0180745    10.2584
  0.020396    10.3467
 0.0230086    10.4311
 0.0259485    10.5116
  0.029257    10.5881
 0.0329801    10.6598
 0.0371699    10.7245
 0.0418848    10.7771
 0.0471906    10.8082
 0.0528094    10.8058
 0.0581152    10.7709
 0.0628301     10.716
 0.0670199    10.6501
  0.070743    10.5778
 0.0740515    10.5009
 0.0769914    10.4201
  0.079604    10.3355
 0.0819255     10.247
 0.0839885    10.1544
 0.0858218    10.0573
 0.0874508    9.95538
 0.0888984     9.8481
 0.0901848    9.73499
 0.0913279    9.61549
 0.0923437    9.48897
 0.0932464    9.35465
 0.0940485    9.21162
 0.0947613    9.05872
 0.0953947    8.89439
 0.0959575    8.71633
 0.0964577    8.52102
 0.0969021    8.30281
 0.0972971    8.05203
 0.0976481     7.7495
   0.09796     7.3493
 0.0982371    6.68059
 0.0984834    5.55706
 0.0987022    4.56102
 0.0988967    3.76558
 0.0990695    3.11641
 0.0992231    2.57471
 0.0993595    2.11327
 0.0994808    1.71318
 0.0995885    1.36142
 0.0996843    1.04904
 0.0997694   0.769902
  0.099845   0.519745
 0.0999122   0.295509
 0.0999719  0.0948836
