2.80937e-05 8.14212e-06
8.78022e-05 7.79612e-06
0.000154994 7.13141e-06
0.000230608 6.14958e-06
0.000315699 4.88457e-06
0.000411455 3.41114e-06
0.000519212 1.86213e-06
0.000640475 5.51721e-07
0.000776937 1.40967e-06
0.000930502 3.03726e-05
0.00110331 0.000608071
0.00129779 0.00744494
0.00151663  0.0544031
0.00176291   0.233979
0.00204005   0.366516
0.00235193    0.38497
 0.0027029   0.385314
0.00309785   0.379196
0.00354231   0.370064
0.00404248   0.359212
0.00460533   0.347219
0.00523873   0.334408
0.00595151   0.321018
0.00675364   0.307257
 0.0076563   0.293313
0.00867209   0.279346
 0.0098152    0.26548
 0.0111016   0.251807
 0.0125492   0.238383
 0.0141782   0.225232
 0.0160115   0.212341
 0.0180745   0.199659
  0.020396   0.187096
 0.0230086   0.174509
 0.0259485   0.161699
  0.029257   0.148411
 0.0329801   0.134377
 0.0371699   0.119574
 0.0418848   0.105115
 0.0471906  0.0949993
 0.0528094  0.0958714
 0.0581152   0.107059
 0.0628301   0.121724
 0.0670199   0.136384
  0.070743   0.150211
 0.0740515   0.163307
 0.0769914    0.17595
  0.079604   0.188391
 0.0819255   0.200826
 0.0839885   0.213392
 0.0858218   0.226178
 0.0874508   0.239232
 0.0888984   0.252566
 0.0901848   0.266158
 0.0913279    0.27995
 0.0923437   0.293851
 0.0932464   0.307737
 0.0940485    0.32145
 0.0947613   0.334807
 0.0953947   0.347602
 0.0959575   0.359595
 0.0964577   0.370453
 0.0969021   0.379576
 0.0972971   0.385671
 0.0976481   0.385408
   0.09796   0.367778
 0.0982371    0.24227
 0.0984834  0.0580129
 0.0987022 0.00811153
 0.0988967 0.000679141
 0.0990695 3.43909e-05
 0.0992231 1.46316e-06
 0.0993595 4.49065e-07
 0.0994808 1.77128e-06
 0.0995885 3.34889e-06
 0.0996843 4.83973e-06
 0.0997694 6.11845e-06
  0.099845 7.11154e-06
 0.0999122 7.78544e-06
 0.0999719 8.13893e-06
