# vtk DataFile Version 2.0
sampleSurface
ASCII
DATASET POLYDATA
POINTS 189 float
-4 0 0 -5 0 0 -5 0 1 -4 0
1 -3 0 0 -3 0 1 -2 0 0
-2 0 1 -1 0 0 -1 0 1 0
0 0 0 0 1 1 0 0 1 0
1 2 0 0 2 0 1 3 0 0
3 0 1 4 0 0 4 0 1 5
0 0 5 0 1 6 0 0 6 0
1 7 0 0 7 0 1 8 0 0
8 0 1 9 0 0 9 0 1 10
0 0 10 0 1 11 0 0 11 0
1 12 0 0 12 0 1 13 0 0
13 0 1 14 0 0 14 0 1 15
0 1 15 0 0 -5 0 2 -4 0
2 -3 0 2 -2 0 2 -1 0 2
0 0 2 1 0 2 2 0 2 3
0 2 4 0 2 5 0 2 6 0
2 7 0 2 8 0 2 9 0 2
10 0 2 11 0 2 12 0 2 13
0 2 14 0 2 15 0 2 -5 0
3 -4 0 3 -3 0 3 -2 0 3
-1 0 3 0 0 3 1 0 3 2
0 3 3 0 3 4 0 3 5 0
3 6 0 3 7 0 3 8 0 3
9 0 3 10 0 3 11 0 3 12
0 3 13 0 3 14 0 3 15 0
3 -5 0 4 -4 0 4 -3 0 4
-2 0 4 -1 0 4 0 0 4 1
0 4 2 0 4 3 0 4 4 0
4 5 0 4 6 0 4 7 0 4
8 0 4 9 0 4 10 0 4 11
0 4 12 0 4 13 0 4 14 0
4 15 0 4 -5 0 5 -4 0 5
-3 0 5 -2 0 5 -1 0 5 0
0 5 1 0 5 2 0 5 3 0
5 4 0 5 5 0 5 6 0 5
7 0 5 8 0 5 9 0 5 10
0 5 11 0 5 12 0 5 13 0
5 14 0 5 15 0 5 -5 0 6
-4 0 6 -3 0 6 -2 0 6 -1
0 6 0 0 6 1 0 6 2 0
6 3 0 6 4 0 6 5 0 6
6 0 6 7 0 6 8 0 6 9
0 6 10 0 6 11 0 6 12 0
6 13 0 6 14 0 6 15 0 6
-5 0 7 -4 0 7 -3 0 7 -2
0 7 -1 0 7 0 0 7 1 0
7 2 0 7 3 0 7 4 0 7
5 0 7 6 0 7 7 0 7 8
0 7 9 0 7 10 0 7 11 0
7 12 0 7 13 0 7 14 0 7
15 0 7 -5 0 8 -4 0 8 -3
0 8 -2 0 8 -1 0 8 0 0
8 1 0 8 2 0 8 3 0 8
4 0 8 5 0 8 6 0 8 7
0 8 8 0 8 9 0 8 10 0
8 11 0 8 12 0 8 13 0 8
14 0 8 15 0 8 
POLYGONS 160 800
4 0 1 2 3 4 4 0 3 5 4
6 4 5 7 4 8 6 7 9 4
10 8 9 11 4 12 10 11 13 4
14 12 13 15 4 16 14 15 17 4
18 16 17 19 4 20 18 19 21 4
22 20 21 23 4 24 22 23 25 4
26 24 25 27 4 28 26 27 29 4
30 28 29 31 4 32 30 31 33 4
34 32 33 35 4 36 34 35 37 4
38 36 37 39 4 40 41 38 39 4
3 2 42 43 4 5 3 43 44 4
7 5 44 45 4 9 7 45 46 4
11 9 46 47 4 13 11 47 48 4
15 13 48 49 4 17 15 49 50 4
19 17 50 51 4 21 19 51 52 4
23 21 52 53 4 25 23 53 54 4
27 25 54 55 4 29 27 55 56 4
31 29 56 57 4 33 31 57 58 4
35 33 58 59 4 37 35 59 60 4
39 37 60 61 4 62 40 39 61 4
43 42 63 64 4 44 43 64 65 4
45 44 65 66 4 46 45 66 67 4
47 46 67 68 4 48 47 68 69 4
49 48 69 70 4 50 49 70 71 4
51 50 71 72 4 52 51 72 73 4
53 52 73 74 4 54 53 74 75 4
55 54 75 76 4 56 55 76 77 4
57 56 77 78 4 58 57 78 79 4
59 58 79 80 4 60 59 80 81 4
61 60 81 82 4 83 62 61 82 4
64 63 84 85 4 65 64 85 86 4
66 65 86 87 4 67 66 87 88 4
68 67 88 89 4 69 68 89 90 4
70 69 90 91 4 71 70 91 92 4
72 71 92 93 4 73 72 93 94 4
74 73 94 95 4 75 74 95 96 4
76 75 96 97 4 77 76 97 98 4
78 77 98 99 4 79 78 99 100 4
80 79 100 101 4 81 80 101 102 4
82 81 102 103 4 104 83 82 103 4
85 84 105 106 4 86 85 106 107 4
87 86 107 108 4 88 87 108 109 4
89 88 109 110 4 90 89 110 111 4
91 90 111 112 4 92 91 112 113 4
93 92 113 114 4 94 93 114 115 4
95 94 115 116 4 96 95 116 117 4
97 96 117 118 4 98 97 118 119 4
99 98 119 120 4 100 99 120 121 4
101 100 121 122 4 102 101 122 123 4
103 102 123 124 4 125 104 103 124 4
106 105 126 127 4 107 106 127 128 4
108 107 128 129 4 109 108 129 130 4
110 109 130 131 4 111 110 131 132 4
112 111 132 133 4 113 112 133 134 4
114 113 134 135 4 115 114 135 136 4
116 115 136 137 4 117 116 137 138 4
118 117 138 139 4 119 118 139 140 4
120 119 140 141 4 121 120 141 142 4
122 121 142 143 4 123 122 143 144 4
124 123 144 145 4 146 125 124 145 4
127 126 147 148 4 128 127 148 149 4
129 128 149 150 4 130 129 150 151 4
131 130 151 152 4 132 131 152 153 4
133 132 153 154 4 134 133 154 155 4
135 134 155 156 4 136 135 156 157 4
137 136 157 158 4 138 137 158 159 4
139 138 159 160 4 140 139 160 161 4
141 140 161 162 4 142 141 162 163 4
143 142 163 164 4 144 143 164 165 4
145 144 165 166 4 167 146 145 166 4
148 147 168 169 4 149 148 169 170 4
150 149 170 171 4 151 150 171 172 4
152 151 172 173 4 153 152 173 174 4
154 153 174 175 4 155 154 175 176 4
156 155 176 177 4 157 156 177 178 4
158 157 178 179 4 159 158 179 180 4
160 159 180 181 4 161 160 181 182 4
162 161 182 183 4 163 162 183 184 4
164 163 184 185 4 165 164 185 186 4
166 165 186 187 4 167 166 187 188 
POINT_DATA 189
FIELD attributes 1
p 1 189 float
-2.28092e-13 -1.94814e-13 -1.94326e-13 -2.12153e-13 -2.38664e-13 -2.20666e-13 -2.19707e-13 -2.21878e-13 -2.0967e-13 -2.17777e-13 -1.91752e-13
-1.94941e-13 -1.94523e-13 -1.87429e-13 -1.88242e-13 -1.81336e-13 -1.61499e-13 -1.62098e-13 -1.31774e-13 -1.34704e-13 -1.18293e-13
-1.24054e-13 -1.2009e-13 -1.25653e-13 -1.02391e-13 -1.07167e-13 -9.20538e-14 -9.4731e-14 -9.39695e-14 -9.30708e-14 -7.11462e-14
-7.4483e-14 -5.20804e-14 -5.91179e-14 -3.37735e-14 -3.70413e-14 -4.01905e-15 -6.77065e-15 3.98473e-15 2.7605e-15 0
-1.29707e-16 -2.04369e-13 -2.02343e-13 -2.05893e-13 -2.23829e-13 -2.24188e-13 -1.99249e-13 -1.81563e-13 -1.74964e-13 -1.62738e-13
-1.38499e-13 -1.27911e-13 -1.25964e-13 -1.09363e-13 -9.64699e-14 -8.92081e-14 -7.60556e-14 -6.29692e-14 -4.07969e-14 -1.47903e-14
-1.18473e-15 0 -2.04083e-13 -2.05392e-13 -2.13975e-13 -2.25284e-13 -2.23573e-13 -2.0366e-13 -1.8241e-13 -1.71937e-13
-1.6238e-13 -1.4577e-13 -1.31657e-13 -1.20353e-13 -1.07794e-13 -1.00877e-13 -9.11513e-14 -7.45414e-14 -5.34917e-14 -3.44609e-14
-2.03793e-14 -7.19547e-15 0 -1.9555e-13 -2.0786e-13 -2.27196e-13 -2.29602e-13 -2.18663e-13 -2.01892e-13 -1.80959e-13
-1.65504e-13 -1.61614e-13 -1.56735e-13 -1.3941e-13 -1.19971e-13 -1.11642e-13 -1.06655e-13 -9.30897e-14 -7.2873e-14 -4.79623e-14
-2.99924e-14 -2.17946e-14 -1.0946e-14 0 -2.13611e-13 -2.27183e-13 -2.40218e-13 -2.28331e-13 -2.04475e-13 -1.87531e-13
-1.78295e-13 -1.6771e-13 -1.64073e-13 -1.6004e-13 -1.40281e-13 -1.19324e-13 -1.12874e-13 -1.08003e-13 -9.23799e-14 -6.93522e-14
-4.67987e-14 -3.50285e-14 -2.59639e-14 -1.05163e-14 0 -2.15372e-13 -2.32287e-13 -2.42459e-13 -2.28743e-13 -2.02745e-13
-1.74681e-13 -1.72706e-13 -1.81533e-13 -1.76485e-13 -1.56548e-13 -1.33667e-13 -1.20248e-13 -1.13658e-13 -1.0685e-13 -9.08931e-14
-6.50201e-14 -4.33496e-14 -3.46208e-14 -2.73186e-14 -1.19891e-14 0 -1.99181e-13 -2.22168e-13 -2.39092e-13 -2.33731e-13
-2.12797e-13 -1.68839e-13 -1.60345e-13 -1.9124e-13 -1.92379e-13 -1.54792e-13 -1.31022e-13 -1.25001e-13 -1.14457e-13 -1.09141e-13
-9.30895e-14 -5.86067e-14 -3.30865e-14 -2.63547e-14 -2.26536e-14 -1.21696e-14 0 -1.97007e-13 -2.2072e-13 -2.38141e-13
-2.34393e-13 -2.1638e-13 -1.66544e-13 -1.51976e-13 -1.92202e-13 -1.98687e-13 -1.55277e-13 -1.33758e-13 -1.28205e-13 -1.12866e-13
-1.135e-13 -9.90318e-14 -5.49231e-14 -2.43469e-14 -2.11772e-14 -1.97087e-14 -9.98663e-15 -3.52948e-15 
