/*--------------------------------*- C++ -*----------------------------------*\
  =========                 |
  \\      /  F ield         | OpenFOAM: The Open Source CFD Toolbox
   \\    /   O peration     | Website:  https://openfoam.org
    \\  /    A nd           | Version:  9
     \\/     M anipulation  |
\*---------------------------------------------------------------------------*/
FoamFile
{
    format      ascii;
    class       volVectorField;
    location    "10";
    object      ddt0(hU);
}
// * * * * * * * * * * * * * * * * * * * * * * * * * * * * * * * * * * * * * //

dimensions      [0 2 -2 0 0 0 0];

internalField   nonuniform List<vector> 
400
(
(1.42098e-06 -2.21207e-07 0)
(4.90426e-06 -3.44796e-07 0)
(4.04987e-06 -5.3754e-07 0)
(1.99394e-06 -5.29848e-07 0)
(-4.28881e-07 -3.95493e-07 0)
(-2.04212e-06 -3.34529e-07 0)
(-2.33238e-06 -3.72738e-07 0)
(-1.90107e-06 -1.94761e-07 0)
(-1.06067e-06 -3.713e-08 0)
(-3.9773e-07 -9.56353e-08 0)
(3.42764e-09 -1.88501e-07 0)
(2.77762e-07 -1.22992e-07 0)
(3.04489e-07 -1.0941e-07 0)
(-2.35273e-08 -1.56138e-07 0)
(-3.93036e-07 -1.73545e-07 0)
(-1.56313e-07 -1.75839e-07 0)
(1.87128e-07 -2.94331e-07 0)
(-3.52488e-07 -3.69561e-07 0)
(-2.28524e-06 -3.50735e-07 0)
(-4.13897e-06 -1.25394e-07 0)
(1.38504e-06 -5.9357e-07 0)
(4.56812e-06 -9.09981e-07 0)
(3.75603e-06 -1.46944e-06 0)
(1.9137e-06 -1.44842e-06 0)
(-4.44633e-07 -9.8463e-07 0)
(-1.85329e-06 -7.84475e-07 0)
(-2.17493e-06 -7.57124e-07 0)
(-1.72052e-06 -3.96463e-07 0)
(-1.09348e-06 -1.41113e-07 0)
(-4.96179e-07 -2.55316e-07 0)
(1.03969e-07 -4.79498e-07 0)
(3.21373e-07 -6.21624e-07 0)
(1.19086e-07 -5.59552e-07 0)
(-3.55795e-07 -5.14328e-07 0)
(-6.30624e-07 -4.38466e-07 0)
(-2.71853e-07 -4.53093e-07 0)
(1.46196e-07 -6.3151e-07 0)
(-1.93963e-07 -8.48289e-07 0)
(-1.95143e-06 -7.40008e-07 0)
(-3.55739e-06 -2.72285e-07 0)
(1.41084e-06 -6.57727e-07 0)
(4.01365e-06 -1.18307e-06 0)
(3.2009e-06 -2.03825e-06 0)
(1.65794e-06 -1.87328e-06 0)
(-8.11767e-08 -1.09059e-06 0)
(-1.26474e-06 -9.03525e-07 0)
(-1.73311e-06 -9.60853e-07 0)
(-1.74991e-06 -5.45673e-07 0)
(-1.36046e-06 -1.11436e-07 0)
(-6.21242e-07 -1.74681e-07 0)
(-9.36541e-08 -6.36618e-07 0)
(2.34605e-07 -1.09778e-06 0)
(2.31311e-08 -1.10141e-06 0)
(-7.02881e-07 -9.46052e-07 0)
(-8.61535e-07 -7.03165e-07 0)
(-4.15164e-07 -7.00605e-07 0)
(1.91212e-07 -9.14241e-07 0)
(1.53305e-09 -1.22906e-06 0)
(-1.30072e-06 -1.07999e-06 0)
(-2.83742e-06 -4.48696e-07 0)
(1.28289e-06 -2.75472e-07 0)
(3.29281e-06 -1.02296e-06 0)
(2.49926e-06 -2.16164e-06 0)
(1.4387e-06 -1.80286e-06 0)
(1.03893e-07 -8.11225e-07 0)
(-7.99649e-07 -7.86366e-07 0)
(-1.4598e-06 -1.19499e-06 0)
(-1.82262e-06 -7.35166e-07 0)
(-1.67467e-06 8.62879e-08 0)
(-9.42592e-07 1.79007e-07 0)
(-1.72822e-07 -5.91085e-07 0)
(1.97544e-07 -1.36971e-06 0)
(-2.26422e-07 -1.68494e-06 0)
(-9.81955e-07 -1.45788e-06 0)
(-1.23604e-06 -9.34857e-07 0)
(-6.07924e-07 -7.29783e-07 0)
(8.28607e-08 -9.55895e-07 0)
(2.94633e-07 -1.2557e-06 0)
(-6.61587e-07 -1.24067e-06 0)
(-1.66523e-06 -5.27232e-07 0)
(1.23732e-06 4.12652e-07 0)
(2.35603e-06 -5.17733e-07 0)
(1.66003e-06 -1.89153e-06 0)
(1.14873e-06 -1.41382e-06 0)
(3.9373e-07 -2.6977e-07 0)
(-3.86712e-07 -5.05061e-07 0)
(-1.19805e-06 -1.23531e-06 0)
(-1.93654e-06 -7.96359e-07 0)
(-1.96206e-06 3.84464e-07 0)
(-1.24855e-06 5.94009e-07 0)
(-4.26396e-07 -3.43471e-07 0)
(-2.33632e-08 -1.64228e-06 0)
(-4.28797e-07 -2.29057e-06 0)
(-1.09087e-06 -1.97636e-06 0)
(-1.25077e-06 -1.20256e-06 0)
(-6.56513e-07 -8.01657e-07 0)
(1.73026e-07 -9.92689e-07 0)
(3.97958e-07 -1.29202e-06 0)
(2.39406e-09 -1.18714e-06 0)
(-6.09421e-07 -5.3442e-07 0)
(1.08632e-06 1.14651e-06 0)
(1.33588e-06 1.30316e-07 0)
(7.91805e-07 -1.34427e-06 0)
(7.76401e-07 -7.30227e-07 0)
(5.353e-07 3.08665e-07 0)
(-1.05594e-07 -1.78226e-07 0)
(-1.03165e-06 -1.18844e-06 0)
(-1.93646e-06 -7.95546e-07 0)
(-2.16812e-06 6.60356e-07 0)
(-1.61116e-06 1.06184e-06 0)
(-7.85002e-07 -1.67521e-09 0)
(-3.38701e-07 -1.70244e-06 0)
(-5.28598e-07 -2.58464e-06 0)
(-1.055e-06 -2.19321e-06 0)
(-1.21115e-06 -1.38755e-06 0)
(-8.39184e-07 -8.44926e-07 0)
(1.61477e-07 -9.8078e-07 0)
(8.15728e-07 -1.44883e-06 0)
(8.27752e-07 -1.27731e-06 0)
(4.80867e-07 -5.82724e-07 0)
(9.0252e-07 1.69368e-06 0)
(3.99202e-07 7.71684e-07 0)
(-2.839e-09 -6.71652e-07 0)
(3.37375e-07 -4.5071e-08 0)
(4.1063e-07 6.94209e-07 0)
(4.33094e-08 2.12028e-08 0)
(-9.32263e-07 -1.10107e-06 0)
(-1.84828e-06 -7.44777e-07 0)
(-2.18743e-06 6.86162e-07 0)
(-1.95357e-06 1.31255e-06 0)
(-1.30445e-06 8.20084e-08 0)
(-7.78801e-07 -1.48665e-06 0)
(-4.97503e-07 -2.37798e-06 0)
(-6.84639e-07 -2.0819e-06 0)
(-9.22108e-07 -1.39154e-06 0)
(-6.47404e-07 -8.30592e-07 0)
(-1.4595e-07 -9.84413e-07 0)
(7.35417e-07 -1.23916e-06 0)
(1.40509e-06 -1.1232e-06 0)
(1.48867e-06 -5.8873e-07 0)
(6.76867e-07 1.83672e-06 0)
(-2.88029e-07 1.0826e-06 0)
(-6.70292e-07 -1.17747e-07 0)
(-2.13664e-07 3.1592e-07 0)
(1.55156e-07 8.57514e-07 0)
(-2.5551e-09 1.0134e-07 0)
(-8.32908e-07 -9.47884e-07 0)
(-1.68891e-06 -6.93809e-07 0)
(-2.14148e-06 6.11771e-07 0)
(-2.27445e-06 1.26557e-06 0)
(-1.40318e-06 3.93021e-07 0)
(-7.63683e-07 -1.08573e-06 0)
(-4.50231e-07 -1.85687e-06 0)
(-5.22448e-07 -1.88236e-06 0)
(-7.67565e-07 -1.3502e-06 0)
(-7.72802e-07 -9.28057e-07 0)
(-1.20038e-07 -8.11858e-07 0)
(1.02355e-06 -8.3814e-07 0)
(1.70884e-06 -7.99485e-07 0)
(2.16661e-06 -4.26825e-07 0)
(4.71647e-07 1.40489e-06 0)
(-7.60764e-07 9.3388e-07 0)
(-1.15582e-06 1.34064e-07 0)
(-6.95587e-07 3.77439e-07 0)
(-8.61089e-08 7.05628e-07 0)
(-1.37191e-07 1.68451e-07 0)
(-7.74966e-07 -5.28109e-07 0)
(-1.41015e-06 -4.93012e-07 0)
(-1.8987e-06 3.16533e-07 0)
(-2.0175e-06 9.2797e-07 0)
(-1.90625e-06 2.91525e-07 0)
(-1.09594e-06 -8.49082e-07 0)
(-3.93696e-07 -1.32444e-06 0)
(-4.38046e-07 -1.22352e-06 0)
(-7.66565e-07 -7.14802e-07 0)
(-7.83305e-07 -6.17833e-07 0)
(-4.9272e-08 -5.68317e-07 0)
(1.02057e-06 -1.58863e-07 0)
(1.73688e-06 5.65744e-08 0)
(2.47379e-06 -1.73809e-07 0)
(3.98045e-07 5.27819e-07 0)
(-1.00972e-06 3.93923e-07 0)
(-1.52426e-06 1.05021e-07 0)
(-9.24894e-07 2.04635e-07 0)
(-1.73342e-07 3.32891e-07 0)
(-2.02384e-07 1.63911e-07 0)
(-7.22852e-07 -6.14688e-08 0)
(-1.28544e-06 -1.17159e-07 0)
(-1.83012e-06 2.31523e-08 0)
(-2.21688e-06 2.25318e-07 0)
(-1.55676e-06 -1.71165e-07 0)
(-8.02652e-07 -5.99291e-07 0)
(-5.94629e-07 -5.66019e-07 0)
(-4.14632e-07 -2.32584e-07 0)
(-1.89193e-07 -3.85953e-08 0)
(-1.61228e-07 -2.17332e-07 0)
(-5.31646e-07 -3.10293e-07 0)
(1.1131e-07 4.20078e-07 0)
(2.20998e-06 4.99422e-07 0)
(3.01991e-06 -1.32182e-07 0)
(3.96792e-07 -4.75464e-07 0)
(-1.02904e-06 -3.3781e-07 0)
(-1.53767e-06 -2.58641e-08 0)
(-9.19814e-07 -8.04859e-08 0)
(-1.64618e-07 -1.20764e-07 0)
(-2.23148e-07 8.03986e-08 0)
(-7.39906e-07 2.5065e-07 0)
(-1.31326e-06 1.96279e-07 0)
(-1.88466e-06 -8.21809e-08 0)
(-2.20116e-06 -4.46048e-07 0)
(-1.555e-06 7.31103e-08 0)
(-8.42764e-07 3.02835e-07 0)
(-4.87803e-07 2.95088e-07 0)
(-3.198e-07 2.30259e-07 0)
(-1.54002e-07 2.10756e-07 0)
(-1.0968e-07 5.16414e-07 0)
(-5.42604e-07 5.82321e-07 0)
(9.97568e-08 -1.50332e-07 0)
(2.08872e-06 -2.60427e-07 0)
(2.94407e-06 1.78219e-07 0)
(4.58323e-07 -1.35839e-06 0)
(-7.85517e-07 -8.9776e-07 0)
(-1.19751e-06 -7.13104e-08 0)
(-7.49302e-07 -2.50462e-07 0)
(-1.26507e-07 -4.80995e-07 0)
(-1.92929e-07 9.74728e-08 0)
(-8.389e-07 7.63158e-07 0)
(-1.4601e-06 6.3447e-07 0)
(-1.93244e-06 -2.93202e-07 0)
(-1.91069e-06 -9.74946e-07 0)
(-2.21046e-06 -5.82079e-07 0)
(-1.20035e-06 6.48675e-07 0)
(-3.54839e-07 1.25939e-06 0)
(-3.24415e-07 1.12508e-06 0)
(-7.30109e-07 7.10285e-07 0)
(-6.93856e-07 5.96607e-07 0)
(-8.20883e-08 6.70167e-07 0)
(1.01117e-06 2.90552e-07 0)
(1.61152e-06 5.83907e-08 0)
(2.34129e-06 2.28636e-07 0)
(6.50651e-07 -1.84883e-06 0)
(-3.43735e-07 -1.08128e-06 0)
(-7.04682e-07 1.27793e-07 0)
(-2.58033e-07 -1.79152e-07 0)
(1.01529e-07 -5.89861e-07 0)
(-7.03243e-08 2.04584e-07 0)
(-8.79157e-07 1.24849e-06 0)
(-1.73658e-06 9.23293e-07 0)
(-2.18264e-06 -4.80648e-07 0)
(-2.34106e-06 -1.13176e-06 0)
(-1.05933e-06 -5.90926e-07 0)
(-5.23356e-07 1.01268e-06 0)
(-3.09857e-07 1.89101e-06 0)
(-5.48208e-07 1.88471e-06 0)
(-9.0527e-07 1.25908e-06 0)
(-9.84498e-07 8.68743e-07 0)
(-8.91925e-08 7.90191e-07 0)
(1.00549e-06 8.43671e-07 0)
(1.64654e-06 7.70127e-07 0)
(2.10872e-06 4.2852e-07 0)
(9.00961e-07 -1.76203e-06 0)
(3.3006e-07 -8.34236e-07 0)
(-6.37085e-08 6.6481e-07 0)
(2.88758e-07 1.81244e-07 0)
(3.8418e-07 -4.83646e-07 0)
(-2.19434e-08 2.87317e-07 0)
(-9.98536e-07 1.39889e-06 0)
(-1.88391e-06 9.86459e-07 0)
(-2.12049e-06 -5.4447e-07 0)
(-1.92201e-06 -1.21767e-06 0)
(-1.14799e-06 5.55778e-08 0)
(-5.62937e-07 1.51646e-06 0)
(-5.07607e-07 2.28253e-06 0)
(-8.18056e-07 2.07296e-06 0)
(-1.05278e-06 1.38713e-06 0)
(-8.13568e-07 9.79454e-07 0)
(-1.7341e-07 1.10656e-06 0)
(7.58762e-07 1.27223e-06 0)
(1.3405e-06 1.12829e-06 0)
(1.53539e-06 5.83216e-07 0)
(1.09789e-06 -1.24843e-06 0)
(1.28325e-06 -2.61707e-07 0)
(7.38565e-07 1.29457e-06 0)
(7.27365e-07 7.74835e-07 0)
(5.15274e-07 -1.32181e-07 0)
(-1.12693e-07 4.4466e-07 0)
(-1.02878e-06 1.42528e-06 0)
(-1.94707e-06 9.89497e-07 0)
(-2.13434e-06 -5.37835e-07 0)
(-1.55919e-06 -1.06627e-06 0)
(-6.84747e-07 4.34592e-08 0)
(-2.88063e-07 1.58706e-06 0)
(-5.53581e-07 2.28434e-06 0)
(-1.09715e-06 1.95521e-06 0)
(-1.30001e-06 1.37364e-06 0)
(-7.98978e-07 9.55587e-07 0)
(5.09528e-08 1.22589e-06 0)
(7.25942e-07 1.61648e-06 0)
(8.47192e-07 1.51029e-06 0)
(5.97554e-07 6.83208e-07 0)
(1.29208e-06 -4.91519e-07 0)
(2.29798e-06 4.1324e-07 0)
(1.59279e-06 1.83485e-06 0)
(1.09254e-06 1.44853e-06 0)
(3.75238e-07 4.25533e-07 0)
(-3.67359e-07 6.75123e-07 0)
(-1.20805e-06 1.37597e-06 0)
(-1.89955e-06 8.70028e-07 0)
(-1.90201e-06 -3.1526e-07 0)
(-1.17812e-06 -5.91698e-07 0)
(-3.60378e-07 2.93859e-07 0)
(-9.39966e-08 1.48837e-06 0)
(-5.20008e-07 2.08194e-06 0)
(-1.1157e-06 1.78163e-06 0)
(-1.27495e-06 1.24277e-06 0)
(-6.74435e-07 1.0176e-06 0)
(1.63109e-07 1.29628e-06 0)
(5.27286e-07 1.65095e-06 0)
(1.41109e-07 1.53211e-06 0)
(-5.79523e-07 6.74746e-07 0)
(1.32865e-06 2.41726e-07 0)
(3.22141e-06 9.46537e-07 0)
(2.42062e-06 2.15121e-06 0)
(1.4334e-06 1.89762e-06 0)
(1.12578e-07 9.29127e-07 0)
(-8.4588e-07 8.76262e-07 0)
(-1.50105e-06 1.27253e-06 0)
(-1.75622e-06 8.02112e-07 0)
(-1.57503e-06 1.24827e-08 0)
(-8.44658e-07 -1.25725e-07 0)
(-2.03341e-07 5.38094e-07 0)
(1.82476e-07 1.35359e-06 0)
(-2.61794e-07 1.69965e-06 0)
(-1.00237e-06 1.43357e-06 0)
(-1.18204e-06 9.76751e-07 0)
(-6.1125e-07 8.58894e-07 0)
(1.4681e-07 1.13314e-06 0)
(2.95728e-07 1.4822e-06 0)
(-6.29273e-07 1.35437e-06 0)
(-1.82982e-06 5.7474e-07 0)
(1.37136e-06 6.21429e-07 0)
(4.02781e-06 1.14131e-06 0)
(3.17387e-06 2.04789e-06 0)
(1.63334e-06 1.85162e-06 0)
(-2.51029e-07 1.10543e-06 0)
(-1.37628e-06 9.79237e-07 0)
(-1.79838e-06 1.20252e-06 0)
(-1.7243e-06 7.67751e-07 0)
(-1.31802e-06 1.92718e-07 0)
(-6.13462e-07 2.17065e-07 0)
(9.36208e-08 6.40189e-07 0)
(2.41492e-07 1.012e-06 0)
(-8.21734e-08 1.08256e-06 0)
(-7.39839e-07 1.02086e-06 0)
(-9.25946e-07 8.02077e-07 0)
(-4.2432e-07 7.41911e-07 0)
(1.42096e-07 9.67026e-07 0)
(-2.7228e-08 1.21295e-06 0)
(-1.39076e-06 1.05812e-06 0)
(-2.87554e-06 4.17774e-07 0)
(1.42913e-06 5.38116e-07 0)
(4.62705e-06 8.79749e-07 0)
(3.69501e-06 1.44764e-06 0)
(1.79498e-06 1.38361e-06 0)
(-3.51665e-07 8.60837e-07 0)
(-1.69248e-06 6.98955e-07 0)
(-2.00546e-06 6.86639e-07 0)
(-1.82151e-06 4.42769e-07 0)
(-1.18763e-06 2.24008e-07 0)
(-4.4683e-07 3.79072e-07 0)
(3.9734e-09 6.34903e-07 0)
(2.90464e-07 6.77562e-07 0)
(2.17547e-07 6.61094e-07 0)
(-3.15092e-07 6.61843e-07 0)
(-6.82658e-07 5.55976e-07 0)
(-3.34657e-07 4.93731e-07 0)
(8.00578e-08 6.16891e-07 0)
(-2.95532e-07 7.62511e-07 0)
(-1.95184e-06 6.62026e-07 0)
(-3.6246e-06 2.72518e-07 0)
(1.41227e-06 1.8537e-07 0)
(4.94385e-06 3.13771e-07 0)
(3.96292e-06 5.07628e-07 0)
(1.86184e-06 5.32775e-07 0)
(-5.94186e-07 3.21161e-07 0)
(-2.13857e-06 2.02031e-07 0)
(-2.26794e-06 7.63432e-08 0)
(-1.62848e-06 6.47803e-08 0)
(-7.86803e-07 1.21832e-07 0)
(-2.67008e-07 2.36738e-07 0)
(6.38997e-09 3.39592e-07 0)
(2.04388e-07 3.3678e-07 0)
(2.01566e-07 2.78208e-07 0)
(-1.91041e-07 2.20662e-07 0)
(-5.32469e-07 1.74055e-07 0)
(-3.15262e-07 1.48281e-07 0)
(6.46161e-08 1.97186e-07 0)
(-4.02064e-07 2.46463e-07 0)
(-2.2203e-06 2.06011e-07 0)
(-4.00353e-06 6.52231e-08 0)
)
;

boundaryField
{
    sides
    {
        type            calculated;
        value           nonuniform List<vector> 
40
(
(1.41227e-06 0 0)
(4.94385e-06 0 0)
(3.96292e-06 0 0)
(1.86184e-06 0 0)
(-5.94186e-07 0 0)
(-2.13857e-06 0 0)
(-2.26794e-06 0 0)
(-1.62848e-06 0 0)
(-7.86803e-07 0 0)
(-2.67008e-07 0 0)
(6.38997e-09 0 0)
(2.04388e-07 0 0)
(2.01566e-07 0 0)
(-1.91041e-07 0 0)
(-5.32469e-07 0 0)
(-3.15262e-07 0 0)
(6.46161e-08 0 0)
(-4.02064e-07 0 0)
(-2.2203e-06 0 0)
(-4.00353e-06 0 0)
(1.42098e-06 0 0)
(4.90426e-06 0 0)
(4.04987e-06 0 0)
(1.99394e-06 0 0)
(-4.28881e-07 0 0)
(-2.04212e-06 0 0)
(-2.33238e-06 0 0)
(-1.90107e-06 0 0)
(-1.06067e-06 0 0)
(-3.9773e-07 0 0)
(3.42764e-09 0 0)
(2.77762e-07 0 0)
(3.04489e-07 0 0)
(-2.35273e-08 0 0)
(-3.93036e-07 0 0)
(-1.56313e-07 0 0)
(1.87128e-07 0 0)
(-3.52488e-07 0 0)
(-2.28524e-06 0 0)
(-4.13897e-06 0 0)
)
;
    }
    inlet
    {
        type            calculated;
        value           uniform (0 0 0);
    }
    outlet
    {
        type            calculated;
        value           nonuniform List<vector> 
20
(
(-4.13897e-06 -1.25394e-07 0)
(-3.55739e-06 -2.72285e-07 0)
(-2.83742e-06 -4.48696e-07 0)
(-1.66523e-06 -5.27232e-07 0)
(-6.09421e-07 -5.3442e-07 0)
(4.80867e-07 -5.82724e-07 0)
(1.48867e-06 -5.8873e-07 0)
(2.16661e-06 -4.26825e-07 0)
(2.47379e-06 -1.73809e-07 0)
(3.01991e-06 -1.32182e-07 0)
(2.94407e-06 1.78219e-07 0)
(2.34129e-06 2.28636e-07 0)
(2.10872e-06 4.2852e-07 0)
(1.53539e-06 5.83216e-07 0)
(5.97554e-07 6.83208e-07 0)
(-5.79523e-07 6.74746e-07 0)
(-1.82982e-06 5.7474e-07 0)
(-2.87554e-06 4.17774e-07 0)
(-3.6246e-06 2.72518e-07 0)
(-4.00353e-06 6.52231e-08 0)
)
;
    }
    frontAndBack
    {
        type            empty;
    }
}


// ************************************************************************* //
