/*--------------------------------*- C++ -*----------------------------------*\
  =========                 |
  \\      /  F ield         | OpenFOAM: The Open Source CFD Toolbox
   \\    /   O peration     | Website:  https://openfoam.org
    \\  /    A nd           | Version:  9
     \\/     M anipulation  |
\*---------------------------------------------------------------------------*/
FoamFile
{
    format      ascii;
    class       surfaceScalarField;
    location    "10";
    object      ddtCorrDdt0(phi);
}
// * * * * * * * * * * * * * * * * * * * * * * * * * * * * * * * * * * * * * //

dimensions      [0 4 -2 0 0 0 0];

internalField   nonuniform List<scalar> 
760
(
2.1921e-08
-1.98307e-09
2.66265e-08
-3.23974e-09
1.68137e-08
-5.31063e-09
8.03846e-10
-5.18609e-09
-9.1837e-09
-3.52102e-09
-1.15771e-08
-2.85725e-09
-1.18793e-08
-3.17066e-09
-6.88988e-09
-1.67922e-09
-1.57021e-09
2.30562e-11
-1.98076e-10
-1.005e-09
6.082e-10
-1.55441e-09
2.00017e-09
-8.3079e-10
1.37875e-09
-6.99238e-10
-3.17964e-09
-1.26497e-09
-3.20871e-09
-1.59338e-09
1.00866e-09
-1.69899e-09
2.37733e-09
-2.78375e-09
-4.31243e-09
-3.30648e-09
-1.80106e-08
-2.9543e-09
-1.09734e-09
2.0311e-08
-3.73416e-09
2.47556e-08
-5.76397e-09
1.56695e-08
-9.48765e-09
5.62055e-10
-9.09096e-09
-8.04188e-09
-5.99338e-09
-1.06715e-08
-4.48905e-09
-1.05692e-08
-3.77621e-09
-6.88006e-09
-2.15438e-09
-2.79156e-09
-1.17668e-09
-2.77396e-10
-1.42549e-09
2.00814e-09
-3.15369e-09
1.71904e-09
-5.33469e-09
-3.02192e-10
-3.95661e-09
-4.72022e-09
-3.36832e-09
-3.83612e-09
-2.47932e-09
2.06754e-10
-2.98145e-09
2.67223e-09
-4.11809e-09
-3.46888e-09
-5.8009e-09
-1.5248e-08
-4.79094e-09
-1.69762e-09
1.78146e-08
-2.57457e-09
2.14636e-08
-6.09551e-09
1.30039e-08
-1.11788e-08
1.16715e-09
-9.11873e-09
-4.79553e-09
-5.03837e-09
-7.0489e-09
-4.28344e-09
-9.3174e-09
-5.29824e-09
-8.87435e-09
-3.05811e-09
-4.68134e-09
-1.20147e-10
-5.60997e-10
-2.70144e-10
1.42174e-09
-3.33167e-09
1.96962e-09
-4.23612e-09
-1.69377e-09
-6.04358e-09
-6.0683e-09
-5.81658e-09
-5.10147e-09
-4.25668e-09
4.27047e-11
-3.88417e-09
2.62586e-09
-4.93555e-09
-1.31192e-09
-6.35162e-09
-1.15257e-08
-5.7352e-09
-2.66934e-09
1.38469e-08
1.00649e-10
1.71151e-08
-4.15575e-09
1.03903e-08
-1.05857e-08
1.53918e-09
-7.93e-09
-2.11324e-09
-3.16237e-09
-4.48123e-09
-3.18212e-09
-8.60095e-09
-5.97348e-09
-1.07118e-08
-3.73861e-09
-7.17231e-09
1.10704e-09
-1.65885e-09
1.85378e-09
1.8578e-09
-2.41565e-09
1.71218e-09
-7.5611e-09
-3.4451e-09
-1.0046e-08
-7.63788e-09
-8.34037e-09
-6.47917e-09
-4.88398e-09
-1.01031e-09
-3.65799e-09
2.81899e-09
-5.00638e-09
4.79929e-10
-6.07972e-09
-6.65576e-09
-6.61417e-09
-2.81218e-09
9.30822e-09
4.03187e-09
1.17075e-08
-1.12614e-09
7.25557e-09
-8.37363e-09
2.31164e-09
-5.78421e-09
7.67856e-10
2.92049e-10
-2.54469e-09
-1.51191e-09
-8.08986e-09
-5.56407e-09
-1.20465e-08
-3.72235e-09
-9.28106e-09
2.85958e-09
-3.35512e-09
4.22068e-09
9.9034e-10
-1.15051e-09
4.06709e-10
-8.4735e-09
-4.06111e-09
-1.27271e-08
-7.29514e-09
-1.08974e-08
-6.72529e-09
-6.57106e-09
-1.46737e-09
-3.94111e-09
3.24316e-09
-4.89369e-09
1.54304e-09
-6.77921e-09
-1.66915e-09
-5.86781e-09
-3.22119e-09
4.12994e-09
7.56143e-09
6.01108e-09
2.31566e-09
3.76582e-09
-5.00341e-09
3.20252e-09
-1.6646e-09
2.28652e-09
2.58965e-09
-1.39583e-09
-1.05919e-10
-7.80164e-09
-5.56993e-09
-1.19765e-08
-3.51365e-09
-1.13208e-08
3.58436e-09
-5.11327e-09
5.8173e-09
-1.41854e-09
8.57989e-10
-8.39861e-10
-8.0954e-09
-4.03701e-09
-1.29501e-08
-6.47394e-09
-1.09428e-08
-6.73564e-09
-7.18272e-09
-2.22714e-09
-4.35516e-09
3.39562e-09
-4.91537e-09
4.55573e-09
-7.2469e-09
3.28292e-09
-6.51096e-09
-2.9932e-09
-6.04872e-10
9.55368e-09
4.84063e-10
5.2543e-09
1.05119e-09
-1.83311e-09
2.47858e-09
1.09567e-09
3.06277e-09
4.12696e-09
-1.41937e-09
4.25162e-10
-7.22804e-09
-5.20653e-09
-1.10423e-08
-3.72118e-09
-1.21525e-08
3.54467e-09
-7.58866e-09
7.26561e-09
-4.6854e-09
7.0555e-10
-2.47241e-09
-7.01035e-09
-2.29319e-09
-1.11813e-08
-4.75333e-09
-1.0212e-08
-4.87224e-09
-7.18541e-09
-2.54448e-09
-4.31031e-09
1.29186e-09
-5.84157e-09
5.73515e-09
-3.38141e-09
7.73298e-09
-4.8625e-09
-2.67954e-09
-4.1793e-09
8.87628e-09
-4.12069e-09
5.26475e-09
-1.60762e-09
1.98406e-10
1.17182e-09
1.98714e-09
2.52809e-09
4.17242e-09
-1.94142e-09
5.49985e-10
-6.58854e-09
-3.90131e-09
-9.63447e-09
-2.9553e-09
-1.14688e-08
2.46149e-09
-1.08741e-08
5.77363e-09
-4.95187e-09
4.41502e-08
-2.61926e-09
-5.4571e-09
-1.35838e-09
-8.13505e-09
-3.71231e-09
-8.48866e-09
-4.52833e-09
-5.62844e-09
-3.29064e-09
-2.30276e-09
2.31866e-09
-5.21463e-09
6.76835e-09
-2.11495e-09
1.04468e-08
-1.60477e-09
-2.10757e-09
-6.93009e-09
5.16073e-09
-7.15092e-09
3.88473e-09
-4.0258e-09
7.96902e-10
2.83072e-10
1.51848e-09
1.30923e-09
2.61683e-09
-2.60251e-09
6.157e-10
-5.92701e-09
-1.83453e-09
-7.27692e-09
-1.79149e-09
-1.01176e-08
6.8799e-10
-1.07637e-08
3.0045e-09
-8.94617e-09
-1.2869e-09
-2.88403e-09
-3.74616e-09
-2.0126e-09
-5.06015e-09
-2.69363e-09
-3.78408e-09
-3.96071e-09
-1.28545e-10
-2.58078e-09
-1.99747e-09
1.35103e-09
-3.55383e-09
7.07558e-09
1.22158e-09
1.15306e-08
1.30138e-09
-8.226e-10
-7.86709e-09
9.78461e-11
-9.36468e-09
9.80769e-11
-5.5512e-09
1.66481e-10
9.72768e-11
2.94744e-10
8.59301e-10
5.30327e-10
-3.03197e-09
5.30216e-10
-5.56438e-09
4.80073e-10
-6.40796e-09
2.09112e-10
-9.48323e-09
-1.17911e-10
-1.25401e-08
-7.8477e-10
-6.63775e-09
-3.52007e-10
-2.5248e-09
-1.0903e-09
-3.14091e-09
-8.6047e-10
-1.16539e-09
3.67133e-10
7.36692e-11
5.54566e-10
-2.06782e-09
6.90043e-10
-2.72014e-09
6.33381e-10
6.1048e-09
8.49738e-10
1.42017e-08
7.03902e-10
6.1001e-11
-7.98471e-09
-4.85737e-09
-9.39949e-09
-3.51865e-09
-5.59485e-09
-4.07151e-10
1.42473e-10
-8.75264e-10
8.04934e-10
-1.58825e-09
-3.10889e-09
7.92583e-10
-5.68827e-09
3.03335e-09
-6.47711e-09
2.37528e-09
-9.96775e-09
-9.18704e-10
-1.19926e-08
-3.44004e-09
-7.12274e-09
-1.3802e-11
-2.42775e-09
2.78446e-09
-2.13993e-09
4.23727e-09
-1.04826e-09
3.61209e-09
2.0044e-10
2.48303e-09
-2.09181e-09
3.08534e-09
-2.53481e-09
3.50743e-09
5.75399e-09
1.46288e-10
1.34825e-08
-6.61325e-10
8.67676e-10
-7.17623e-09
-8.69603e-09
-7.18264e-09
-5.25128e-09
-4.36925e-09
-1.39014e-10
8.95468e-12
-1.34272e-09
1.1331e-09
-2.78875e-09
-2.88684e-09
8.79674e-10
-6.23459e-09
5.12599e-09
-7.40174e-09
3.73486e-09
-1.05992e-08
-1.96403e-09
-1.00418e-08
-5.5598e-09
-1.08538e-08
-8.45996e-09
-3.01498e-09
4.70613e-09
-1.30491e-09
8.47708e-09
-2.28435e-09
7.7692e-09
-3.62936e-09
5.42959e-09
-2.80955e-09
1.7952e-09
1.51609e-09
3.44851e-09
6.80536e-09
1.86531e-09
1.06413e-08
1.41372e-09
1.48532e-09
-4.66918e-09
-9.80309e-09
-4.21257e-09
-5.14907e-09
-1.88858e-09
1.57571e-09
1.01e-09
-3.44275e-10
2.16147e-09
-2.81167e-09
-2.17208e-09
1.00975e-09
-6.87477e-09
6.68346e-09
-9.82609e-09
4.95406e-09
-1.16202e-08
-2.76909e-09
-1.08266e-08
-6.3986e-09
-2.99887e-09
-4.66004e-10
-1.23145e-09
7.01015e-09
-1.43871e-09
1.13515e-08
-4.10821e-09
1.08042e-08
-5.61656e-09
7.05651e-09
-3.37969e-09
3.67347e-09
1.96356e-09
3.66688e-09
6.79457e-09
5.64645e-09
1.01899e-08
5.01981e-09
2.60787e-09
-8.97416e-10
-7.82036e-09
-1.89134e-11
-2.97832e-09
9.57557e-10
5.11352e-09
2.37913e-09
2.28151e-09
2.61179e-09
-1.8426e-09
-1.63778e-09
1.71418e-09
-7.51673e-09
7.10578e-09
-1.10948e-08
4.75248e-09
-1.14336e-08
-2.99602e-09
-7.93718e-09
-5.74126e-09
-3.32092e-09
6.31129e-11
-1.55597e-09
7.94208e-09
-2.57887e-09
1.17016e-08
-6.09412e-09
1.02955e-08
-5.33488e-09
7.18816e-09
-3.32746e-09
4.54295e-09
1.71013e-09
5.80832e-09
5.41067e-09
7.25937e-09
7.71613e-09
6.58551e-09
3.15062e-09
3.67947e-09
-4.63373e-09
5.75565e-09
3.70912e-10
3.79638e-09
7.9001e-09
2.75876e-09
5.58912e-09
2.38084e-09
7.15492e-10
-1.46677e-09
2.61613e-09
-7.7618e-09
6.37014e-09
-1.21404e-08
4.31543e-09
-1.09762e-08
-2.45371e-09
-4.76527e-09
-4.36757e-09
-9.54382e-10
6.98344e-10
-7.76408e-10
7.76599e-09
-3.83626e-09
1.09803e-08
-7.34396e-09
9.12721e-09
-6.78331e-09
6.54005e-09
-2.37919e-09
5.00252e-09
2.91738e-09
6.45939e-09
4.28509e-09
8.36104e-09
3.70668e-09
7.94742e-09
3.51898e-09
8.91464e-09
-4.40322e-10
1.1463e-08
3.85343e-09
6.95939e-09
1.05043e-08
2.32872e-09
8.04582e-09
7.29596e-10
3.72111e-09
-2.69563e-09
3.65711e-09
-7.94294e-09
6.44612e-09
-1.18694e-08
3.76904e-09
-9.03143e-09
-8.57006e-10
-2.71717e-09
-1.72881e-09
1.01635e-09
1.50768e-09
-3.85967e-10
6.55787e-09
-4.1772e-09
9.54989e-09
-7.45185e-09
8.09062e-09
-6.77762e-09
5.41004e-09
-1.36762e-09
5.03964e-09
3.15853e-09
6.53884e-09
2.62214e-09
8.36651e-09
-1.51989e-09
7.76992e-09
3.39608e-09
1.3498e-08
2.53646e-09
1.66336e-08
5.6902e-09
1.04466e-08
1.12272e-08
1.58994e-09
9.37149e-09
-2.2906e-09
5.70412e-09
-4.76674e-09
4.67205e-09
-8.66655e-09
5.71239e-09
-1.01221e-08
3.89451e-09
-6.68505e-09
9.46683e-10
-1.39098e-09
2.62056e-10
1.63866e-09
3.66675e-09
1.46606e-09
4.47289e-09
-3.61172e-09
6.41796e-09
-7.42455e-09
5.8303e-09
-6.20488e-09
4.3897e-09
-9.64251e-10
3.92871e-09
2.98271e-09
5.35351e-09
6.93237e-10
6.9175e-09
-6.97165e-09
6.13719e-09
2.47843e-09
1.74364e-08
3.35889e-09
2.13662e-08
5.54571e-09
1.3164e-08
9.30568e-09
7.06687e-10
8.21197e-09
-5.69321e-09
5.26616e-09
-7.58058e-09
4.63289e-09
-9.43398e-09
5.48033e-09
-8.40319e-09
3.36163e-09
-4.64778e-09
3.08208e-10
-2.9265e-10
1.66155e-09
2.35146e-09
2.9044e-09
1.49379e-09
2.80568e-09
-2.34141e-09
3.36272e-09
-6.18236e-09
3.82644e-09
-5.10617e-09
3.32031e-09
-1.50231e-10
3.16195e-09
2.5291e-09
4.02081e-09
-1.69256e-09
5.03294e-09
-1.19046e-08
4.36328e-09
1.77272e-09
2.05029e-08
1.87158e-09
2.47534e-08
3.33802e-09
1.5004e-08
5.29118e-09
6.56052e-10
5.03195e-09
-7.69088e-09
3.36165e-09
-9.21972e-09
2.11636e-09
-1.06218e-08
1.00165e-09
-7.69319e-09
1.04126e-09
-2.62565e-09
1.57722e-09
-2.05737e-10
1.42889e-09
1.0598e-09
3.74225e-09
2.19698e-09
2.94012e-09
1.45348e-10
2.05624e-09
-4.63446e-09
2.01035e-09
-4.38094e-09
1.70255e-09
1.23874e-10
1.61992e-09
1.99709e-09
2.25022e-09
-3.57417e-09
2.74571e-09
-1.54155e-08
2.37375e-09
8.98606e-10
2.21897e-08
2.6322e-08
1.63958e-08
-1.932e-10
-9.76436e-09
-1.2037e-08
-1.05627e-08
-5.38773e-09
-6.65088e-10
2.05361e-10
2.63777e-10
1.65551e-09
6.54058e-10
-3.88187e-09
-4.06434e-09
3.65092e-10
1.79269e-09
-4.38811e-09
-1.71724e-08
)
;

boundaryField
{
    sides
    {
        type            calculated;
        value           uniform 0;
    }
    inlet
    {
        type            calculated;
        value           uniform 0;
    }
    outlet
    {
        type            calculated;
        value           nonuniform List<scalar> 
20
(
-2.45231e-08
-2.13915e-08
-1.72892e-08
-1.02372e-08
-4.14735e-09
2.41566e-09
8.07217e-09
1.20294e-08
1.34319e-08
1.57906e-08
1.56732e-08
1.29415e-08
1.15799e-08
8.38739e-09
3.07441e-09
-3.8379e-09
-1.13702e-08
-1.7416e-08
-2.18067e-08
-2.40514e-08
)
;
    }
    frontAndBack
    {
        type            empty;
        value           nonuniform List<scalar> 0();
    }
}


// ************************************************************************* //
