/*--------------------------------*- C++ -*----------------------------------*\
  =========                 |
  \\      /  F ield         | OpenFOAM: The Open Source CFD Toolbox
   \\    /   O peration     | Website:  https://openfoam.org
    \\  /    A nd           | Version:  9
     \\/     M anipulation  |
\*---------------------------------------------------------------------------*/
FoamFile
{
    format      ascii;
    class       volScalarField;
    location    "10";
    object      h_0;
}
// * * * * * * * * * * * * * * * * * * * * * * * * * * * * * * * * * * * * * //

dimensions      [0 1 0 0 0 0 0];

internalField   nonuniform List<scalar> 
400
(
0.00999974
0.00999716
0.00999412
0.0099925
0.00999317
0.00999496
0.00999663
0.00999785
0.00999799
0.00999715
0.00999619
0.00999552
0.00999514
0.0099953
0.00999633
0.00999735
0.00999751
0.00999709
0.00999717
0.00999879
0.00999968
0.00999738
0.00999463
0.00999316
0.00999378
0.00999527
0.00999666
0.00999766
0.00999786
0.00999725
0.0099963
0.00999539
0.00999492
0.00999519
0.00999634
0.00999745
0.00999776
0.00999739
0.00999748
0.00999889
0.00999966
0.00999787
0.00999564
0.00999451
0.00999495
0.00999587
0.00999662
0.00999736
0.00999782
0.00999754
0.00999661
0.00999558
0.00999493
0.00999523
0.0099965
0.00999784
0.00999832
0.00999812
0.00999809
0.00999914
0.00999949
0.00999841
0.00999686
0.00999603
0.00999624
0.00999651
0.00999661
0.00999701
0.00999759
0.00999757
0.00999674
0.00999561
0.00999494
0.00999546
0.00999695
0.00999843
0.00999904
0.00999888
0.00999878
0.00999943
0.00999906
0.00999879
0.00999802
0.00999755
0.00999749
0.00999712
0.00999666
0.00999668
0.00999717
0.00999725
0.00999653
0.00999551
0.00999512
0.00999595
0.00999766
0.00999935
0.0100001
0.00999984
0.0099996
0.00999975
0.00999833
0.0099989
0.00999895
0.00999886
0.00999849
0.00999766
0.00999675
0.00999637
0.00999644
0.00999648
0.00999589
0.00999528
0.00999546
0.00999679
0.00999867
0.0100003
0.0100009
0.0100006
0.0100002
0.01
0.0099974
0.0099987
0.00999954
0.00999976
0.00999932
0.00999824
0.00999715
0.00999627
0.00999544
0.00999455
0.00999368
0.00999404
0.00999604
0.00999884
0.0100012
0.0100021
0.010002
0.0100014
0.0100008
0.0100002
0.00999635
0.00999822
0.00999979
0.0100004
0.01
0.00999896
0.00999795
0.00999686
0.00999529
0.00999291
0.00999001
0.00999022
0.00999467
0.0100005
0.010004
0.0100044
0.0100032
0.0100019
0.0100011
0.0100005
0.00999542
0.00999772
0.00999985
0.0100009
0.0100008
0.0100001
0.00999915
0.00999711
0.0099931
0.00998782
0.00998586
0.00998989
0.00999884
0.010005
0.0100061
0.0100044
0.0100026
0.0100018
0.0100014
0.0100006
0.00999481
0.00999729
0.00999976
0.0100011
0.0100015
0.0100022
0.0100037
0.0100055
0.0100024
0.00897629
0.00895155
0.00997618
0.0100099
0.0100196
0.0100126
0.0100046
0.0100013
0.0100015
0.0100018
0.0100009
0.00999468
0.00999717
0.00999964
0.010001
0.0100014
0.0100021
0.0100036
0.0100055
0.0100024
0.00897632
0.00895155
0.0099762
0.0100099
0.0100195
0.0100125
0.0100045
0.0100013
0.0100014
0.0100017
0.0100009
0.00999501
0.00999734
0.00999949
0.0100005
0.0100005
0.00999986
0.00999895
0.00999695
0.00999299
0.00998779
0.00998564
0.00998979
0.00999876
0.0100048
0.0100058
0.0100042
0.0100025
0.0100017
0.0100013
0.0100006
0.0099957
0.00999763
0.00999923
0.00999986
0.00999954
0.00999855
0.00999759
0.00999657
0.00999506
0.00999273
0.00998996
0.00999005
0.00999435
0.0100002
0.0100038
0.0100043
0.0100031
0.0100019
0.0100011
0.0100004
0.00999654
0.00999789
0.0099988
0.00999904
0.00999863
0.00999764
0.0099966
0.00999576
0.00999498
0.00999408
0.00999333
0.00999361
0.00999551
0.00999834
0.0100009
0.0100019
0.0100019
0.0100013
0.0100007
0.0100002
0.00999731
0.00999795
0.00999804
0.00999794
0.00999764
0.00999684
0.00999599
0.00999567
0.00999584
0.00999591
0.00999534
0.00999472
0.00999491
0.00999624
0.00999829
0.01
0.0100007
0.0100006
0.0100002
0.01
0.00999789
0.00999771
0.00999698
0.00999652
0.00999645
0.00999612
0.00999574
0.00999583
0.00999638
0.0099965
0.00999576
0.0099948
0.00999455
0.00999543
0.00999719
0.00999891
0.00999969
0.00999959
0.0099994
0.00999968
0.00999816
0.00999716
0.00999566
0.00999482
0.00999505
0.00999539
0.00999558
0.00999606
0.00999666
0.00999669
0.00999591
0.00999485
0.00999427
0.00999486
0.00999637
0.00999787
0.00999855
0.00999848
0.00999848
0.0099993
0.00999817
0.00999646
0.00999427
0.00999311
0.00999359
0.00999461
0.00999545
0.00999622
0.00999666
0.0099964
0.00999553
0.00999451
0.00999399
0.00999444
0.00999578
0.00999714
0.0099977
0.00999759
0.00999774
0.00999901
0.00999805
0.0099958
0.0099931
0.00999174
0.00999239
0.00999393
0.00999524
0.00999631
0.00999663
0.00999604
0.00999515
0.00999439
0.00999395
0.00999423
0.00999544
0.00999668
0.00999711
0.00999694
0.0099972
0.00999878
0.00999798
0.00999537
0.00999239
0.00999082
0.00999163
0.00999352
0.00999526
0.00999637
0.00999642
0.00999557
0.00999463
0.00999404
0.00999374
0.00999402
0.00999517
0.00999636
0.00999671
0.00999652
0.00999684
0.00999863
)
;

boundaryField
{
    sides
    {
        type            zeroGradient;
    }
    inlet
    {
        type            zeroGradient;
    }
    outlet
    {
        type            fixedValue;
        value           uniform 0.01;
    }
    frontAndBack
    {
        type            empty;
    }
}


// ************************************************************************* //
