/*--------------------------------*- C++ -*----------------------------------*\
  =========                 |
  \\      /  F ield         | OpenFOAM: The Open Source CFD Toolbox
   \\    /   O peration     | Website:  https://openfoam.org
    \\  /    A nd           | Version:  9
     \\/     M anipulation  |
\*---------------------------------------------------------------------------*/
FoamFile
{
    format      ascii;
    class       volScalarField;
    location    "10";
    object      hTotal;
}
// * * * * * * * * * * * * * * * * * * * * * * * * * * * * * * * * * * * * * //

dimensions      [0 1 0 0 0 0 0];

internalField   nonuniform List<scalar> 
400
(
0.00999912
0.00999649
0.00999417
0.00999353
0.00999466
0.00999615
0.00999728
0.00999762
0.00999704
0.00999622
0.00999571
0.00999533
0.00999514
0.00999568
0.00999676
0.00999741
0.00999722
0.00999676
0.00999713
0.00999883
0.00999922
0.00999684
0.00999477
0.00999416
0.00999503
0.00999624
0.00999711
0.00999748
0.00999709
0.00999636
0.00999569
0.00999505
0.00999482
0.00999546
0.0099967
0.00999755
0.00999753
0.00999716
0.00999743
0.00999894
0.00999948
0.00999757
0.00999593
0.00999541
0.00999592
0.00999647
0.00999691
0.00999732
0.00999728
0.00999671
0.00999575
0.00999487
0.00999458
0.00999528
0.00999682
0.00999797
0.00999825
0.009998
0.00999818
0.00999922
0.00999963
0.00999843
0.00999728
0.00999683
0.0099968
0.00999667
0.0099966
0.00999696
0.00999721
0.00999679
0.00999573
0.00999468
0.00999439
0.00999539
0.00999714
0.00999862
0.00999906
0.00999891
0.00999886
0.00999951
0.00999962
0.00999914
0.00999856
0.00999816
0.00999766
0.00999686
0.00999637
0.00999653
0.00999687
0.00999655
0.00999548
0.00999448
0.00999442
0.00999569
0.00999778
0.00999958
0.0100003
0.01
0.0099998
0.00999987
0.00999926
0.00999956
0.00999958
0.00999921
0.00999832
0.00999711
0.00999627
0.00999607
0.00999619
0.00999588
0.00999497
0.00999435
0.0099948
0.00999647
0.00999874
0.0100005
0.0100012
0.0100009
0.0100005
0.0100001
0.00999859
0.00999963
0.0100002
0.00999994
0.00999882
0.00999751
0.00999651
0.00999581
0.00999512
0.00999402
0.00999303
0.00999338
0.00999555
0.00999868
0.0100013
0.0100024
0.0100022
0.0100016
0.010001
0.0100004
0.0099977
0.00999946
0.0100005
0.0100004
0.00999934
0.00999814
0.00999722
0.00999624
0.00999484
0.00999256
0.00998971
0.00998998
0.00999451
0.0100005
0.0100042
0.0100047
0.0100034
0.010002
0.0100012
0.0100005
0.00999685
0.00999917
0.0100007
0.0100008
0.01
0.00999928
0.00999845
0.00999641
0.00999255
0.00998764
0.00998598
0.00999005
0.00999913
0.0100052
0.0100062
0.0100045
0.0100027
0.0100018
0.0100013
0.0100006
0.00999626
0.00999888
0.0100006
0.010001
0.0100007
0.0100014
0.010003
0.0100048
0.0100018
0.00997616
0.00995173
0.00997658
0.0100105
0.0100201
0.0100127
0.0100045
0.0100012
0.0100014
0.0100016
0.0100008
0.00999613
0.00999876
0.0100005
0.0100009
0.0100007
0.0100013
0.010003
0.0100047
0.0100018
0.00997618
0.00995175
0.00997658
0.0100104
0.01002
0.0100127
0.0100045
0.0100012
0.0100013
0.0100016
0.0100008
0.00999646
0.00999882
0.0100004
0.0100005
0.00999978
0.00999906
0.00999826
0.00999625
0.00999245
0.00998755
0.0099858
0.00998992
0.00999898
0.0100051
0.010006
0.0100043
0.0100025
0.0100017
0.0100012
0.0100006
0.00999707
0.0099989
0.01
0.00999992
0.0099989
0.00999775
0.00999688
0.00999595
0.00999462
0.00999242
0.00998957
0.00998978
0.0099942
0.0100002
0.010004
0.0100045
0.0100033
0.0100019
0.0100011
0.0100005
0.00999777
0.00999887
0.0099995
0.00999925
0.00999821
0.00999693
0.00999597
0.00999532
0.00999467
0.00999361
0.00999272
0.00999296
0.00999501
0.00999826
0.0100011
0.0100022
0.0100021
0.0100015
0.0100009
0.0100003
0.00999829
0.00999864
0.00999869
0.00999834
0.00999751
0.00999634
0.00999556
0.00999544
0.00999563
0.00999534
0.00999448
0.00999381
0.00999422
0.00999601
0.00999844
0.0100003
0.010001
0.0100008
0.0100004
0.0100001
0.00999853
0.00999809
0.00999754
0.00999711
0.00999664
0.00999595
0.00999553
0.00999576
0.00999615
0.00999581
0.00999475
0.00999382
0.00999385
0.00999517
0.00999732
0.00999916
0.00999991
0.00999981
0.00999968
0.00999983
0.00999837
0.0099972
0.00999607
0.00999563
0.00999566
0.0099956
0.00999562
0.00999607
0.00999633
0.00999595
0.00999488
0.00999398
0.00999375
0.00999476
0.00999655
0.00999805
0.00999863
0.00999856
0.00999868
0.00999943
0.00999801
0.00999621
0.00999458
0.00999406
0.00999457
0.00999525
0.00999573
0.00999613
0.0099961
0.00999558
0.00999475
0.00999386
0.00999372
0.00999454
0.00999607
0.00999727
0.00999761
0.00999748
0.00999782
0.00999909
0.00999763
0.00999533
0.00999333
0.00999281
0.00999374
0.00999493
0.00999582
0.00999618
0.00999581
0.00999515
0.00999451
0.009994
0.00999385
0.00999451
0.00999583
0.0099968
0.00999691
0.0099967
0.00999718
0.00999884
0.00999733
0.00999475
0.0099925
0.00999192
0.00999314
0.00999471
0.00999584
0.00999613
0.00999551
0.00999466
0.00999418
0.00999386
0.00999376
0.0099944
0.00999565
0.00999646
0.00999645
0.00999621
0.00999678
0.00999867
)
;

boundaryField
{
    sides
    {
        type            calculated;
        value           nonuniform List<scalar> 
40
(
0.00999733
0.00999475
0.0099925
0.00999192
0.00999314
0.00999471
0.00999584
0.00999613
0.00999551
0.00999466
0.00999418
0.00999386
0.00999376
0.0099944
0.00999565
0.00999646
0.00999645
0.00999621
0.00999678
0.00999867
0.00999912
0.00999649
0.00999417
0.00999353
0.00999466
0.00999615
0.00999728
0.00999762
0.00999704
0.00999622
0.00999571
0.00999533
0.00999514
0.00999568
0.00999676
0.00999741
0.00999722
0.00999676
0.00999713
0.00999883
)
;
    }
    inlet
    {
        type            calculated;
        value           nonuniform List<scalar> 
20
(
0.00999912
0.00999922
0.00999948
0.00999963
0.00999962
0.00999926
0.00999859
0.0099977
0.00999685
0.00999626
0.00999613
0.00999646
0.00999707
0.00999777
0.00999829
0.00999853
0.00999837
0.00999801
0.00999763
0.00999733
)
;
    }
    outlet
    {
        type            calculated;
        value           uniform 0.01;
    }
    frontAndBack
    {
        type            empty;
    }
}


// ************************************************************************* //
