/*--------------------------------*- C++ -*----------------------------------*\
  =========                 |
  \\      /  F ield         | OpenFOAM: The Open Source CFD Toolbox
   \\    /   O peration     | Website:  https://openfoam.org
    \\  /    A nd           | Version:  9
     \\/     M anipulation  |
\*---------------------------------------------------------------------------*/
FoamFile
{
    format      ascii;
    class       volScalarField;
    location    "40";
    object      sigmayz;
}
// * * * * * * * * * * * * * * * * * * * * * * * * * * * * * * * * * * * * * //

dimensions      [1 -1 -2 0 0 0 0];

internalField   nonuniform List<scalar> 
1000
(
5.77355e-14
7.71205e-14
-2.19159e-14
-1.78463e-14
-1.86449e-14
6.12526e-15
-8.12399e-14
5.64952e-14
-2.781e-14
0
1.81352e-14
0
6.33823e-14
-1.16355e-13
-5.30542e-14
5.17126e-14
4.22446e-14
9.6578e-14
0
0
0
0
6.34768e-14
1.0887e-14
9.30701e-17
-4.97478e-14
4.21314e-14
-3.7651e-14
-4.7143e-15
-1.47415e-14
6.87165e-15
-1.44519e-14
-3.02503e-14
6.49906e-15
5.36779e-14
-4.49855e-14
-4.03743e-14
-9.06119e-14
-1.09573e-14
1.63297e-14
1.02418e-15
1.49693e-16
-8.13626e-14
-1.30823e-15
1.04482e-15
4.06929e-14
-1.41932e-15
3.55948e-14
1.22715e-16
-2.28044e-14
1.10812e-14
-9.14333e-17
3.89693e-17
5.26894e-16
-4.0279e-14
1.30929e-16
3.28036e-14
7.10131e-14
1.33424e-14
-2.02029e-14
-1.37836e-14
9.90685e-15
1.93825e-14
-2.36483e-15
2.90871e-14
-2.5922e-14
9.59877e-15
-2.40894e-14
-7.0846e-15
-1.78402e-14
-2.26719e-14
-2.7761e-14
4.22109e-16
7.26879e-15
4.34786e-14
-4.91098e-15
-2.28629e-16
-2.15218e-14
3.71536e-15
6.46573e-15
-2.0621e-14
-2.75038e-14
1.26313e-14
1.35784e-14
-7.34241e-15
7.44829e-15
6.15428e-15
2.16403e-14
4.96598e-15
-1.2406e-14
-2.88662e-14
-2.07347e-14
1.6399e-14
1.01386e-14
-3.43992e-16
-3.31535e-15
6.73723e-15
2.25573e-15
-8.32917e-15
-5.16684e-15
-6.30305e-14
4.97542e-15
-1.51672e-14
0
-1.64395e-15
-9.58537e-15
4.65369e-16
-6.73676e-15
2.9866e-15
8.47477e-15
-5.79954e-14
3.00731e-14
-1.93888e-14
-3.55029e-15
0
-1.10335e-14
1.38012e-15
1.15322e-18
8.42263e-16
4.33708e-15
-3.43071e-14
3.57781e-14
1.52262e-14
-5.70365e-15
0
-1.36574e-14
-1.72428e-14
1.02751e-14
-4.04847e-19
-7.4618e-15
3.9454e-14
-1.69451e-14
1.67425e-14
0
-1.06178e-14
9.04298e-15
-2.77142e-15
-9.51224e-16
5.77972e-15
1.04577e-14
-2.55651e-15
1.35269e-14
-2.0094e-14
1.91669e-14
1.74881e-16
1.41643e-14
9.00984e-15
0
-6.01939e-15
6.14868e-15
-1.1949e-13
-4.33727e-14
-3.76526e-14
-1.02302e-14
2.98056e-14
-1.81821e-14
2.37346e-17
-2.05069e-14
-9.74894e-19
-2.00432e-14
-4.6464e-14
-9.55532e-16
-8.91786e-16
-5.31614e-14
1.45178e-14
-3.10571e-14
5.46245e-14
1.75808e-18
1.18589e-14
-1.6366e-14
-3.2058e-14
-4.63532e-14
1.74074e-14
-1.05353e-14
6.5833e-16
2.71547e-14
-3.67352e-15
2.57398e-16
-1.20652e-15
8.98066e-15
7.62728e-14
1.03901e-13
-8.71233e-16
4.01858e-14
4.58074e-14
3.98919e-14
3.62893e-15
-4.77278e-14
3.11957e-14
1.28613e-14
8.04516e-15
2.28366e-14
-3.24025e-14
8.16659e-14
-1.85815e-16
-4.41434e-14
-3.4659e-14
-1.73636e-14
4.45814e-15
5.22172e-15
2.87982e-15
5.46309e-15
2.51517e-15
-8.13358e-17
-8.03208e-15
0
0
2.06903e-16
2.38576e-15
5.9514e-16
6.21738e-15
-1.86319e-15
4.81374e-15
-1.6291e-15
-3.16063e-16
2.54513e-18
-8.08085e-16
8.9967e-16
-5.61344e-15
1.6372e-15
3.24743e-15
6.17888e-15
2.73808e-15
6.92593e-15
-2.83403e-15
-4.18495e-15
5.6129e-15
0
2.54141e-15
4.8698e-15
1.2175e-14
4.63749e-17
2.0207e-15
1.60074e-15
1.8684e-15
-2.08795e-15
-2.38395e-15
-5.39002e-15
-2.50342e-17
1.25327e-14
9.70472e-16
3.81392e-15
-2.15494e-15
-3.00048e-15
8.93757e-15
-5.72663e-15
-1.12032e-15
2.22718e-15
3.28466e-15
-3.16742e-15
3.30329e-15
5.90806e-15
7.90988e-17
-2.61522e-15
2.91658e-15
1.1777e-17
-3.8739e-15
4.61077e-15
9.6723e-15
-1.37622e-17
0
4.69823e-15
1.44739e-15
1.71349e-15
0
2.62491e-15
-8.86909e-15
-3.30138e-15
-3.7274e-15
-2.01712e-15
-3.41017e-15
5.66308e-15
4.19321e-15
1.39662e-15
2.37553e-15
-4.56841e-15
-1.63899e-17
1.78006e-14
-7.40013e-15
-1.97815e-14
-4.68568e-15
-6.17825e-15
-1.07921e-14
7.002e-15
1.96122e-14
-2.26977e-15
0
2.26742e-15
-1.18875e-14
-6.65127e-15
1.19498e-15
-4.01253e-15
2.14703e-15
1.05718e-14
2.24798e-15
-3.82177e-15
2.43274e-15
6.10823e-16
1.64844e-14
2.91703e-14
2.36852e-15
3.71528e-16
-1.07727e-14
-2.30161e-14
8.44452e-15
6.16935e-15
-2.89767e-15
-2.37562e-15
1.82033e-14
-9.78428e-15
-4.20408e-15
1.25454e-14
-1.2963e-14
-1.51802e-14
-3.00262e-15
-1.77806e-14
-2.65826e-16
2.62844e-14
9.34897e-15
-1.23308e-15
-3.86458e-15
5.94406e-15
8.99728e-15
-4.75649e-15
-1.4649e-14
6.86389e-15
1.73877e-14
-2.62782e-14
-1.70643e-14
2.47006e-14
-1.00066e-14
1.3774e-14
1.42116e-14
-1.27921e-14
1.69693e-15
6.38217e-16
-2.8908e-14
9.22793e-15
1.17173e-14
-1.12857e-17
8.43027e-16
-7.72807e-15
2.8804e-15
0
0
-1.85401e-14
1.25393e-14
3.10178e-14
-1.95878e-14
-2.14485e-14
9.52345e-15
-8.9959e-16
1.57802e-14
2.67839e-14
9.49992e-16
-3.9954e-15
0
-5.13784e-15
1.68245e-15
2.05993e-15
-1.12583e-15
1.28507e-14
-1.28726e-14
-1.19695e-14
2.89248e-14
2.17021e-14
-2.36731e-14
6.18933e-15
1.78449e-15
-4.32935e-15
-2.28859e-14
5.47917e-16
-1.14467e-14
-8.99542e-16
9.80859e-15
-6.60832e-16
3.14464e-14
-3.02761e-15
-4.94315e-14
-2.81561e-14
-3.51041e-15
-1.71796e-14
1.25489e-14
-2.44127e-14
-2.65611e-14
9.09414e-15
6.69647e-15
1.8191e-14
-2.1471e-14
-8.466e-16
1.7253e-15
-1.75921e-14
0
-1.35278e-14
1.54792e-16
-1.63826e-14
9.09825e-15
8.2292e-15
1.50063e-16
-4.49396e-15
1.76708e-14
-1.95566e-14
-6.97272e-15
1.67283e-14
-3.65336e-14
-2.32638e-14
-1.9523e-14
6.14344e-15
3.92332e-14
-9.53897e-16
1.97432e-14
-7.56346e-16
0
-7.20045e-15
6.50558e-15
-4.27338e-16
-3.60758e-15
2.05978e-16
5.74351e-17
-1.28568e-16
1.89963e-14
0
-1.07839e-14
2.10993e-28
7.79612e-29
2.25464e-28
1.82416e-28
-6.80435e-15
0
6.40738e-15
-3.1554e-29
-6.55836e-15
6.82833e-15
9.76629e-29
-7.76706e-15
-5.87209e-29
9.30599e-15
1.03457e-14
-6.36816e-29
-7.63185e-29
-1.73701e-15
-1.50351e-14
-2.59766e-14
0
-4.08234e-15
-1.6857e-14
-1.99904e-14
-3.00907e-14
7.27129e-15
-1.96737e-14
-9.1538e-15
-1.69957e-14
-1.5744e-14
-7.27907e-15
-1.34443e-14
-1.24116e-14
-9.77619e-15
-5.32232e-15
-4.98109e-15
-4.73811e-15
7.20701e-14
1.43886e-14
-3.76275e-14
5.05786e-28
6.73519e-15
0
1.19384e-14
-1.6515e-14
4.74593e-28
1.55927e-14
-9.30685e-15
-5.09659e-29
-3.31688e-28
7.54056e-15
-1.82192e-28
-1.88798e-14
1.77891e-28
1.64185e-14
-5.51394e-15
-5.3544e-15
2.74569e-14
2.65543e-14
2.71521e-14
2.90962e-29
3.61755e-14
2.51786e-15
2.48778e-15
2.23962e-14
8.59731e-15
1.8412e-14
1.87896e-14
3.94901e-16
7.9421e-15
7.75701e-15
2.38799e-14
6.85962e-15
2.34154e-30
2.3784e-14
1.20017e-14
1.18322e-14
-1.6489e-14
-1.30632e-14
-1.21975e-14
0
1.08851e-14
2.23608e-14
-2.14029e-14
-9.4524e-15
9.17128e-15
9.96528e-15
1.58431e-28
8.89884e-15
0
-7.92943e-15
0
7.12818e-15
-1.08463e-14
8.5118e-29
4.43199e-29
-2.64661e-30
1.61945e-14
1.24248e-14
-1.22984e-14
3.30036e-28
7.08421e-30
1.16943e-14
1.12932e-14
-9.94543e-15
0
1.93986e-14
-2.9184e-28
-5.20907e-16
9.57037e-15
8.06025e-15
-1.01139e-14
7.35723e-15
1.10936e-14
1.17557e-14
-4.69843e-29
-1.40235e-28
1.16673e-14
1.18191e-14
1.18538e-14
0
1.15861e-14
0
1.09852e-14
0
0
0
9.34212e-15
0
0
8.15287e-15
0
0
0
7.20088e-15
7.16196e-15
7.24408e-15
-2.6073e-14
0
-1.13153e-14
0
-1.11406e-14
-1.09299e-14
0
0
0
-9.62102e-15
-9.2477e-15
-8.88082e-15
0
0
0
-7.70151e-15
0
-7.44566e-15
-7.44847e-15
-7.56704e-15
-4.13624e-14
-1.0729e-14
4.87259e-30
6.32493e-30
1.18143e-14
-2.20794e-14
-2.15961e-14
0
1.08478e-14
1.25712e-15
2.63478e-29
-1.94169e-14
-1.065e-14
-8.23985e-15
1.09505e-14
-7.82078e-15
5.5446e-29
1.19518e-14
5.37697e-29
-4.29033e-29
1.23114e-14
5.747e-29
-1.22782e-14
0
1.1922e-14
1.17053e-14
-1.14906e-14
-1.12933e-14
1.11259e-14
-2.77492e-28
-1.24251e-28
1.3788e-29
5.82006e-29
3.43528e-28
-2.13572e-29
5.09148e-29
-1.16126e-14
-5.37741e-29
-1.38847e-28
-5.54179e-29
-3.89187e-14
-1.43319e-28
-6.95067e-29
8.62229e-29
1.19976e-14
-1.18343e-14
-1.16634e-14
0
1.13561e-14
1.12416e-14
-5.99432e-29
-1.11261e-14
-1.11329e-14
7.68413e-29
1.12857e-14
-2.53956e-30
2.58521e-30
1.18942e-14
-1.39003e-28
-5.66016e-29
-9.78272e-16
-9.41264e-15
-1.21631e-14
0
1.20472e-14
2.13884e-14
-2.11549e-14
-3.01121e-14
1.15426e-14
8.89043e-15
1.17338e-28
8.52285e-15
-1.66976e-14
-8.19516e-15
-1.6148e-14
7.99819e-15
-1.16404e-14
0
-8.26352e-29
0
1.25047e-14
9.05252e-15
-1.21002e-14
1.76514e-29
2.70746e-29
9.14103e-15
3.28657e-14
-1.17915e-14
-2.33788e-14
2.03138e-14
-1.76766e-28
1.99043e-14
1.14606e-14
8.15565e-15
-1.14827e-14
-1.50547e-14
1.16114e-14
1.17209e-14
4.07184e-29
-4.13269e-29
-4.00956e-29
8.72816e-15
1.22251e-28
0
-1.21119e-28
-8.85235e-15
8.8079e-15
1.748e-14
0
-8.55159e-15
-1.02093e-28
-8.32677e-15
1.64314e-14
8.11599e-15
1.60778e-14
-7.99974e-15
0
1.12537e-28
2.75128e-28
3.77142e-29
-1.1556e-14
4.06516e-29
-5.0329e-29
2.14453e-29
1.20788e-14
-1.20587e-14
-1.20103e-14
0
1.18778e-14
1.18125e-14
-1.78492e-28
-1.17092e-14
-1.16714e-14
0
1.15989e-14
1.2632e-29
-1.07344e-28
1.1452e-14
2.04328e-29
1.8885e-29
8.08102e-15
0
7.9144e-29
0
-2.2563e-29
-2.51728e-29
0
0
0
-9.78772e-29
1.4328e-29
-5.63832e-29
0
0
0
-5.49054e-29
0
2.51186e-28
5.68827e-29
5.95994e-29
-2.20696e-14
3.67369e-15
1.48761e-29
-2.65375e-29
1.20209e-14
-2.02375e-14
-2.02443e-14
0
1.19461e-14
3.69152e-15
-1.47066e-29
-1.99804e-14
-1.17898e-14
-8.0835e-15
1.16952e-14
-7.99797e-15
-2.27431e-29
1.11586e-14
-1.15207e-28
-1.93289e-30
3.56719e-15
-7.78706e-15
-3.87952e-15
0
1.99924e-14
1.20002e-14
-2.01107e-14
-1.19768e-14
1.19444e-14
-2.43277e-28
8.15403e-15
-2.62993e-30
-5.58576e-29
-8.11417e-15
-5.55972e-29
5.24832e-29
-1.14699e-14
7.97635e-15
8.07006e-15
8.69711e-15
-6.0711e-15
-3.95409e-15
-4.03377e-15
0
4.12365e-15
4.143e-15
-4.1513e-15
-4.15252e-15
4.15007e-15
-4.73645e-29
2.85241e-29
8.35631e-30
1.85548e-29
4.70858e-29
1.85574e-29
4.70461e-29
-4.10722e-15
0
0
0
1.3445e-14
1.00624e-14
-6.06838e-15
2.06888e-15
-1.26072e-14
-4.15624e-15
4.10769e-14
-1.19939e-14
-1.67248e-14
0
6.3193e-15
2.89228e-14
2.93981e-14
4.06734e-14
-1.35372e-14
-2.43594e-14
-4.72564e-14
4.90925e-14
-1.87312e-14
1.79675e-14
-1.35279e-14
-2.19587e-14
-1.99519e-14
2.52376e-14
3.13547e-14
2.47429e-14
-5.3765e-15
-9.38368e-15
-1.83571e-15
1.88867e-14
-1.36332e-48
-4.37765e-15
-2.67631e-14
-3.79973e-14
2.17483e-14
-2.47364e-14
2.13931e-14
3.11342e-14
-2.74432e-15
3.67042e-14
7.75389e-16
1.89529e-14
0
-1.74756e-14
-8.71156e-15
1.27971e-14
-2.79097e-14
-2.96712e-14
-1.68151e-14
-6.20861e-14
-1.46936e-15
1.18854e-14
2.29472e-14
-6.88671e-15
-1.93448e-14
2.43946e-14
1.23849e-14
-1.07131e-15
4.2638e-14
-1.62174e-14
-1.12107e-48
-2.60871e-14
1.39542e-14
6.08352e-15
-2.49893e-14
-7.78441e-15
2.10669e-14
-1.4858e-14
2.95027e-14
5.85373e-14
-8.05516e-15
-9.20846e-15
2.98235e-16
9.65649e-15
-2.88114e-14
-1.34441e-14
-9.32167e-16
-3.73908e-14
-6.06573e-14
1.60505e-14
1.79782e-14
2.50751e-14
-3.89742e-15
1.75899e-14
1.96003e-14
-3.66479e-14
4.55581e-14
2.52936e-16
-6.27369e-14
-7.78753e-14
2.7853e-14
3.2999e-14
1.72009e-15
-1.15433e-14
5.4196e-14
1.99799e-14
2.28999e-14
6.57287e-14
3.42252e-14
-1.69296e-14
-4.72931e-14
-2.19436e-14
-2.98106e-15
-5.50841e-15
-3.36554e-14
4.89581e-14
1.81954e-14
3.31617e-14
3.30249e-14
2.81261e-16
-2.05065e-14
-3.31648e-14
-3.64239e-15
-4.79892e-15
-4.41941e-14
-1.50057e-14
8.39893e-15
9.6163e-15
2.64078e-14
1.11946e-15
2.98549e-14
1.1704e-14
6.43793e-15
2.77668e-16
-2.3246e-14
-1.93131e-14
-5.7554e-15
-5.1382e-17
-5.35652e-17
1.68635e-14
-5.96579e-49
9.8972e-15
9.9911e-15
4.713e-15
9.82619e-15
3.39064e-16
9.64323e-15
-9.40799e-15
-1.96173e-14
2.19497e-14
-5.23452e-49
0
-2.9817e-14
0
-3.17463e-14
2.09024e-14
3.43491e-14
1.87357e-14
-1.24204e-14
-4.35797e-14
-9.8063e-15
5.49657e-15
1.92302e-14
5.75077e-16
-1.21228e-14
-3.87783e-14
4.31003e-14
9.08574e-15
2.85776e-14
1.10863e-14
-4.46171e-16
-5.19428e-15
2.97127e-14
-2.12419e-14
2.94145e-14
-3.27512e-14
7.40892e-16
2.65495e-14
-9.10149e-15
-8.7446e-15
3.45468e-17
1.9138e-14
-3.93603e-14
-1.00818e-14
-1.52076e-14
0
-1.8796e-14
8.66821e-15
1.91273e-14
-1.218e-14
1.74692e-14
-5.89099e-15
7.9648e-15
1.65075e-14
-1.42648e-14
-9.28863e-15
0
-8.99214e-15
8.71964e-15
-6.65313e-17
9.28374e-15
-7.88541e-15
8.04778e-15
4.30179e-15
-1.35635e-15
-5.02501e-15
6.21162e-17
-2.97724e-15
3.16816e-15
-2.55798e-15
)
;

boundaryField
{
    left
    {
        type            symmetryPlane;
    }
    right
    {
        type            calculated;
        value           nonuniform List<scalar> 
30
(
1.6372e-15
1.25327e-14
-1.37622e-17
-1.97815e-14
2.91703e-14
-1.23308e-15
-1.12857e-17
2.05993e-15
-2.81561e-14
-4.49396e-15
-1.28568e-16
-7.63185e-29
-4.73811e-15
-5.3544e-15
1.18322e-14
-2.64661e-30
-1.40235e-28
7.24408e-15
-7.56704e-15
-4.29033e-29
-5.54179e-29
-5.66016e-29
0
-4.13269e-29
3.77142e-29
1.8885e-29
5.95994e-29
-1.93289e-30
8.69711e-15
0
)
;
    }
    down
    {
        type            symmetryPlane;
    }
    up
    {
        type            calculated;
        value           nonuniform List<scalar> 
30
(
-2.16468e-16
2.75787e-16
-2.61523e-16
-9.22923e-18
1.41131e-16
-3.80606e-17
2.77226e-18
4.52968e-17
1.57923e-16
2.29503e-16
-1.48556e-16
-2.09152e-16
-2.17592e-16
0
2.33344e-16
2.40509e-16
-2.47398e-16
-2.54327e-16
2.61694e-16
-3.77162e-30
1.9246e-30
-1.48956e-31
-1.68247e-31
2.05256e-30
-1.66342e-31
2.37282e-30
-4.00746e-16
0
0
0
)
;
    }
    hole
    {
        type            calculated;
        value           nonuniform List<scalar> 
20
(
6.0933e-14
6.21525e-14
0
2.62651e-14
1.65093e-14
3.75091e-14
-4.35291e-14
-5.57995e-14
-2.02625e-14
-7.62098e-15
-6.31702e-14
-5.67661e-14
-3.21461e-14
3.16323e-14
8.51633e-15
-9.14028e-14
-4.75513e-14
-7.67885e-14
2.53758e-14
8.31183e-15
)
;
    }
    frontAndBack
    {
        type            empty;
    }
}


// ************************************************************************* //
