/*--------------------------------*- C++ -*----------------------------------*\
  =========                 |
  \\      /  F ield         | OpenFOAM: The Open Source CFD Toolbox
   \\    /   O peration     | Website:  https://openfoam.org
    \\  /    A nd           | Version:  9
     \\/     M anipulation  |
\*---------------------------------------------------------------------------*/
FoamFile
{
    format      ascii;
    class       volSymmTensorField;
    location    "40";
    object      sigma;
}
// * * * * * * * * * * * * * * * * * * * * * * * * * * * * * * * * * * * * * //

dimensions      [1 -1 -2 0 0 0 0];

internalField   nonuniform List<symmTensor> 
1000
(
(7757.08 -5550.69 -6.89026e-14 4507.61 5.77355e-14 2830.31)
(10825.7 -4233.01 -1.08502e-13 1211.76 7.71205e-14 2777.87)
(12388.8 -3350.89 1.35392e-13 -577.99 -2.19159e-14 2725.57)
(13186.9 -2724.47 2.11214e-14 -1561.15 -1.78463e-14 2682.87)
(13565.6 -2263.29 -1.25304e-13 -2091.1 -1.86449e-14 2647.96)
(13704.7 -1914.06 1.61895e-17 -2356.56 6.12526e-15 2618.79)
(13704 -1643.42 -1.49027e-13 -2463.75 -8.12399e-14 2593.91)
(13621.2 -1429.09 8.86892e-14 -2477.21 5.64952e-14 2571.68)
(13498.2 -1252.41 -9.19574e-14 -2439.08 -2.781e-14 2552.11)
(13338.1 -1024.07 0 -2367.11 0 2531.76)
(10675.9 -6783.86 -1.1572e-13 5045.21 1.81352e-14 3627.96)
(13000.8 -4573.17 0 1872.05 0 3432.19)
(14080.6 -3200.19 1.29242e-13 123.176 6.33823e-14 3277.79)
(14537.7 -2305.63 -2.22729e-13 -869.634 -1.16355e-13 3154.16)
(14664.5 -1701.58 -9.63314e-14 -1433.99 -5.30542e-14 3053.2)
(14612.5 -1281.58 8.38118e-14 -1743.95 5.17126e-14 2969.67)
(14462.8 -981.874 7.58018e-14 -1899.67 4.22446e-14 2899.19)
(14263.3 -761.376 1.5756e-13 -1960.58 9.6578e-14 2839.08)
(14049.4 -589.449 0 -1962.86 0 2789.21)
(13816.5 -392.773 0 -1903.33 0 2749.18)
(13896.4 -7697.89 0 5146.56 0 4394.53)
(15232 -4753.07 0 2368.62 0 4061.69)
(15694.7 -2979.71 1.25794e-13 815.112 6.34768e-14 3809.95)
(15737.4 -1870.49 -2.37585e-14 -102.641 1.0887e-14 3608.01)
(15576.3 -1154.88 -1.71574e-16 -653.776 9.30701e-17 3443.65)
(15317.5 -682.311 -8.0889e-14 -983.721 -4.97478e-14 3307.8)
(15016.3 -363.96 6.90878e-14 -1176.07 4.21314e-14 3193.9)
(14703.5 -144.873 -6.67959e-14 -1281.37 -3.7651e-14 3097.43)
(14402.9 11.8869 1.6335e-14 -1329.84 -4.7143e-15 3016.85)
(14106.4 173.646 -1.02058e-14 -1313.88 -1.47415e-14 2952.12)
(17280.9 -8186.3 -7.11717e-14 4874.7 6.87165e-15 5112.84)
(17443.6 -4738.9 5.83434e-14 2711.97 -1.44519e-14 4651.29)
(17191 -2697.87 -6.11506e-14 1476.29 -3.02503e-14 4307.84)
(16771.1 -1449.89 -2.23129e-14 704.951 6.49906e-15 4032.93)
(16299.7 -666.98 8.0517e-14 206.751 5.36779e-14 3809.17)
(15827.3 -167.278 -8.09002e-14 -121.353 -4.49855e-14 3624.44)
(15375.5 154.922 -7.1761e-14 -340.206 -4.03743e-14 3469.69)
(14954.6 364.045 -1.61034e-13 -486.881 -9.06119e-14 3338.7)
(14572.9 502.306 -4.3534e-14 -583.814 -1.09573e-14 3228.25)
(14216.2 631.959 4.5181e-14 -621.263 1.63297e-14 3137.3)
(20662.2 -8177.5 -4.40761e-14 4319.65 1.02418e-15 5765.03)
(19553.1 -4511.07 -1.52867e-15 2921.04 1.49693e-16 5186.34)
(18537.6 -2363.23 -1.86895e-13 2089.3 -8.13626e-14 4760.04)
(17634.1 -1069.31 1.04985e-14 1513.02 -1.30823e-15 4418.58)
(16847.1 -272.122 -1.17441e-14 1096.71 1.04482e-15 4140.88)
(16163.3 224.609 7.43887e-14 786.879 4.06929e-14 3911.58)
(15567.4 534.561 1.5205e-15 550.917 -1.41932e-15 3719.61)
(15046 726.387 5.8063e-14 367.652 3.55948e-14 3556.99)
(14591.2 844.632 -5.89567e-14 223.629 1.22715e-16 3418.81)
(14182.4 944.788 -4.33207e-14 130.093 -2.28044e-14 3302.89)
(23860.7 -7639.49 -1.36655e-13 3596.21 1.10812e-14 6336.2)
(21475.7 -4065.2 -1.35397e-15 3026.02 -9.14333e-17 5654.25)
(19703.6 -1986.69 8.19627e-16 2634.64 3.89693e-17 5154.99)
(18329.4 -746.466 9.35837e-15 2277.86 5.26894e-16 4755.52)
(17240 8.13979 -8.5819e-14 1959.23 -4.0279e-14 4430.59)
(16358 470.49 1.87905e-16 1678.77 1.30929e-16 4162.33)
(15629.9 751.968 6.62586e-14 1433.24 3.28036e-14 3937.64)
(15018.8 919.76 1.51705e-13 1218.7 7.10131e-14 3747.12)
(14501 1017.18 2.68083e-14 1031.62 1.33424e-14 3584.45)
(14049.6 1091.34 -5.55579e-14 883.656 -2.02029e-14 3446.14)
(26694.2 -6586.41 1.64944e-13 2824.84 -1.37836e-14 6812.09)
(23130.1 -3413.79 3.65365e-14 3057.73 9.90685e-15 6043.35)
(20665.9 -1578.44 5.96215e-14 3095.85 1.93825e-14 5483.48)
(18865.3 -490.387 -8.57136e-15 2955.66 -2.36483e-15 5035.62)
(17505.8 166.281 7.37938e-14 2737.09 2.90871e-14 4671.43)
(16449.1 563.853 -6.89871e-14 2490.4 -2.5922e-14 4370.65)
(15606.6 801.642 -2.59658e-15 2240.91 9.59877e-15 4118.66)
(14919.9 939.446 -5.71646e-14 2001.01 -2.40894e-14 3904.83)
(14350.4 1015.6 7.64435e-15 1776.51 -7.0846e-15 3721.6)
(13865.9 1067.84 -2.67202e-14 1579.49 -1.78402e-14 3564.33)
(28990 -5075.67 2.91144e-13 2122.64 -2.26719e-14 7179.83)
(24441 -2587.31 -1.47369e-13 3046.86 -2.7761e-14 6343.34)
(21404.5 -1151.57 7.78336e-16 3456.59 4.22109e-16 5737.17)
(19253.1 -303.139 1.2286e-14 3506.46 7.26879e-15 5252.2)
(17672.5 206.275 1.54548e-13 3377.5 4.34786e-14 4857.7)
(16474.6 512.27 -2.31437e-15 3163.08 -4.91098e-15 4531.77)
(15541.1 693.063 3.29403e-17 2912.8 -2.28629e-16 4258.59)
(14795.4 795.897 -5.32084e-14 2653.28 -2.15218e-14 4026.61)
(14186.8 850.887 -2.68844e-15 2398.68 3.71536e-15 3827.42)
(13678.4 885.576 2.04307e-15 2161.27 6.46573e-15 3655.32)
(30592.9 -3206.96 1.71901e-13 1588.25 -2.0621e-14 7426.41)
(25346 -1637.52 -1.57018e-13 3019.85 -2.75038e-14 6545.96)
(21903.1 -728.263 1.13693e-14 3706.86 1.26313e-14 5909.99)
(19502.1 -190.259 1.12635e-14 3899.67 1.35784e-14 5400.4)
(17765.1 132.421 -4.4189e-15 3838.07 -7.34241e-15 4985.34)
(16468.1 325.779 6.64812e-14 3648.1 7.44829e-15 4642.2)
(15471.7 439.8 -4.3757e-16 3397.76 6.15428e-15 4354.49)
(14686 504.569 1.07269e-13 3124.22 2.16403e-14 4110.05)
(14051.9 539.37 2.42823e-14 2847.56 4.96598e-15 3899.87)
(13528.8 560.959 1.91313e-14 2580.41 -1.2406e-14 3717.52)
(31422.9 -1116.34 1.85291e-13 1306.44 -2.88662e-14 7552.91)
(25823.8 -666.838 -5.53364e-15 3020.11 -2.07347e-14 6656.29)
(22133.9 -380.107 6.11766e-14 3843.2 1.6399e-14 5994.72)
(19583.3 -202.331 2.6164e-15 4101.57 1.01386e-14 5465.74)
(17756.5 -91.4159 -6.53739e-17 4068.41 -3.43992e-16 5036.51)
(16405 -21.4312 6.63461e-14 3886.99 -3.31535e-15 4682.76)
(15375.7 23.0841 -1.30582e-16 3634.33 6.73723e-15 4386.93)
(14570.7 51.4589 5.27167e-14 3352.13 2.25573e-15 4136.03)
(13926.1 69.9111 1.1275e-15 3062.76 -8.32917e-15 3920.51)
(13400.2 83.4882 -3.146e-16 2777.7 -5.16684e-15 3733.37)
(-451.784 400.692 6.22622e-15 -11258.2 -6.30305e-14 -2702.3)
(-405.586 146.554 7.94372e-15 -7309.56 4.97542e-15 -1780.42)
(10.9121 -49.5554 -6.75246e-15 -4845.53 -1.51672e-14 -1115.68)
(727.162 -167.024 0 -3253.84 0 -583.079)
(1543.56 -230.338 -1.34619e-14 -2197.1 -1.64395e-15 -150.817)
(2363.97 -261.202 -4.17988e-15 -1473.31 -9.58537e-15 205.539)
(3144.74 -273.202 2.30424e-14 -961.536 4.65369e-16 503.815)
(3868.32 -274.323 1.06739e-14 -587.667 -6.73676e-15 757.074)
(4530.25 -269.497 1.95242e-14 -304.953 2.9866e-15 975.069)
(5132 -263.276 5.79383e-15 -83.6056 8.47477e-15 1165.01)
(-533.617 969.541 -3.8795e-15 -10855.8 -5.79954e-14 -2628.34)
(-246.691 -212.883 1.77025e-14 -7046.34 3.00731e-14 -1683.01)
(286.193 -838.267 -1.65925e-14 -4789.06 -1.93888e-14 -1039.12)
(1053.36 -1156.33 -4.09122e-15 -3326.29 -3.55029e-15 -524.523)
(1883.74 -1303.48 0 -2341.4 0 -105.614)
(2699.45 -1353.88 -1.96375e-14 -1656.17 -1.10335e-14 240.755)
(3466.17 -1349.83 2.34652e-14 -1163.76 1.38012e-15 531.325)
(4170.91 -1315.88 1.01926e-16 -797.578 1.15322e-18 778.462)
(4810.77 -1266.58 -7.08609e-14 -515.04 8.42263e-16 991.323)
(5385.09 -1217.76 8.73937e-15 -287.991 4.33708e-15 1176.25)
(-600.579 1392.38 -4.74487e-15 -9720.47 -3.43071e-14 -2381.78)
(113.436 -487.861 2.57172e-14 -6539.48 3.57781e-14 -1482.93)
(861.817 -1459.73 2.29828e-14 -4622.3 1.52262e-14 -867.805)
(1726.31 -1941 -3.13866e-15 -3360.04 -5.70365e-15 -377.014)
(2587.29 -2156.42 0 -2493.95 0 21.5414)
(3396.78 -2223.4 -3.4134e-14 -1877.46 -1.36574e-14 350.612)
(4137.34 -2207.24 -4.61949e-14 -1423.01 -1.72428e-14 626.383)
(4805.53 -2145.5 4.1055e-14 -1075.76 1.02751e-14 860.717)
(5403.48 -2060.34 2.05811e-17 -800.601 -4.04847e-19 1062.2)
(5930.01 -1977.37 -4.1783e-14 -574.263 -7.4618e-15 1235.94)
(-611.959 1551.45 1.95002e-14 -8089.15 3.9454e-14 -2007.95)
(681.601 -791.574 1.70258e-15 -5801.75 -1.69451e-14 -1181.57)
(1712.51 -1995.31 3.15611e-14 -4371.67 1.67425e-14 -613.651)
(2694.73 -2581.88 0 -3390.34 0 -160.525)
(3587.88 -2835.64 -4.23661e-14 -2689.06 -1.06178e-14 207.419)
(4382.69 -2905.52 2.27957e-14 -2168.56 9.04298e-15 510.952)
(5083.45 -2873.31 -2.01951e-14 -1767.99 -2.77142e-15 765.107)
(5698.96 -2785.63 -3.96569e-14 -1448.7 -9.51224e-16 980.828)
(6237.93 -2669.87 1.65493e-14 -1185.94 5.77972e-15 1165.84)
(6697.79 -2560.91 3.14553e-14 -963.232 1.04577e-14 1323.36)
(-487.619 1374.45 -3.89913e-14 -6114.62 -2.55651e-15 -1523.59)
(1463.08 -1161.29 -5.2472e-14 -4879.54 1.35269e-14 -788.414)
(2808.54 -2454.35 -3.91325e-14 -4036.34 -2.0094e-14 -283.337)
(3915.29 -3071.3 3.65572e-16 -3393.13 1.91669e-14 120.498)
(4833.29 -3325.34 9.59504e-17 -2890.44 1.74881e-16 448.351)
(5600.6 -3380.37 4.38753e-14 -2486.16 1.41643e-14 718.718)
(6246.5 -3326.24 2.43708e-14 -2151.87 9.00984e-15 944.914)
(6793.68 -3213.77 0 -1868.2 0 1136.65)
(7258.14 -3072.81 -5.33072e-14 -1622.63 -6.01939e-15 1300.5)
(7635.05 -2946.74 1.68313e-14 -1407.01 6.14868e-15 1437.24)
(-134.144 832.647 -2.05878e-14 -3958.33 -1.1949e-13 -944.417)
(2467.67 -1606.87 1.70832e-14 -3834.63 -4.33727e-14 -315.451)
(4117.04 -2830.66 -4.0625e-14 -3618.87 -3.76526e-14 114.963)
(5331.72 -3394.95 1.66817e-15 -3342.24 -1.02302e-14 459.112)
(6257.47 -3606.8 7.38564e-14 -3056.49 2.98056e-14 738.689)
(6980.35 -3627.54 -5.54203e-14 -2780.7 -1.81821e-14 969.151)
(7555.7 -3545.24 1.11756e-16 -2521.1 2.37346e-17 1161.83)
(8020.26 -3409.52 -6.51118e-14 -2279.08 -2.05069e-14 1324.89)
(8397.18 -3249.45 1.80121e-17 -2055.4 -9.74894e-19 1463.49)
(8678.92 -3115.81 -5.34127e-14 -1851.42 -2.00432e-14 1575.58)
(547.809 -61.1026 2.54126e-14 -1771.92 -4.6464e-14 -282.487)
(3705.22 -2117.49 5.16025e-16 -2727.1 -9.55532e-16 225.721)
(5599.09 -3118.07 4.39837e-16 -3125.55 -8.91786e-16 570.816)
(6882.02 -3546.94 -8.869e-14 -3211.55 -5.31614e-14 847.032)
(7787.02 -3674.61 8.89168e-16 -3144.21 1.45178e-14 1071.42)
(8444.62 -3641.95 -7.37948e-14 -3000.41 -3.10571e-14 1256.36)
(8933.51 -3525.69 1.32551e-13 -2819.77 5.46245e-14 1410.86)
(9303.07 -3368.7 7.76496e-17 -2623.81 1.75808e-18 1541.37)
(9582.64 -3196.06 1.32714e-14 -2426.48 1.18589e-14 1651.42)
(9761.55 -3064.57 -4.02688e-14 -2239.72 -1.6366e-14 1735.81)
(1640.22 -1252.2 1.20378e-13 288.17 -3.2058e-14 445.014)
(5176.78 -2672.27 3.24396e-14 -1618.83 -4.63532e-14 821.065)
(7212.12 -3312.05 -1.13694e-14 -2562.25 1.74074e-14 1073.05)
(8501.73 -3533.3 5.30439e-15 -2978.03 -1.05353e-14 1274.7)
(9347.56 -3540.21 -9.42173e-17 -3114.35 6.5833e-16 1438.43)
(9915.6 -3437.86 7.29814e-14 -3097.71 2.71547e-14 1573.36)
(10302.8 -3282.85 -1.33317e-14 -2996.25 -3.67352e-15 1686.13)
(10567.8 -3106.58 1.89717e-14 -2849.07 2.57398e-16 1781.25)
(10744 -2927.77 1.33728e-14 -2682.29 -1.20652e-15 1860.39)
(10817 -2807.56 4.19585e-14 -2518.58 8.98066e-15 1915.01)
(3197.26 -2646.07 4.70477e-14 2084.06 7.62728e-14 1218.77)
(6870.48 -3237.24 4.26882e-15 -562.482 1.03901e-13 1455.69)
(8910.72 -3412.76 7.27284e-16 -1939.88 -8.71233e-16 1608.66)
(10127.7 -3372.36 1.13561e-13 -2626.78 4.01858e-14 1730.97)
(10868.5 -3231.68 9.35062e-14 -2937.55 4.58074e-14 1830.23)
(11321.1 -3048.38 8.31623e-14 -3035.27 3.98919e-14 1912.11)
(11592.8 -2851.81 1.23282e-14 -3009.65 3.62893e-15 1980.73)
(11747.8 -2657.9 -1.00826e-13 -2912.87 -4.77278e-14 2038.82)
(11821.1 -2476.97 3.69962e-14 -2780.38 3.11957e-14 2086.33)
(11794 -2375.19 2.73137e-14 -2643.39 1.28613e-14 2111.67)
(5243.77 -4125.05 -7.97071e-15 3513.55 8.04516e-15 2020.92)
(8766.47 -3772.86 -2.53599e-14 392.57 2.28366e-14 2113.63)
(10651.3 -3424.46 -6.05032e-14 -1272.58 -3.24025e-14 2164.33)
(11705.1 -3092.06 2.44575e-13 -2152.48 8.16659e-14 2204.45)
(12290.3 -2790.25 1.06779e-16 -2596.83 -1.85815e-16 2236.96)
(12599.9 -2521.89 -8.55645e-14 -2790.2 -4.41434e-14 2263.77)
(12743.3 -2285.23 -6.17771e-14 -2834.59 -3.4659e-14 2286.61)
(12785.4 -2076.96 -3.5655e-14 -2789.83 -1.73636e-14 2306.66)
(12766.7 -1893.16 -3.31135e-14 -2693.04 4.45814e-15 2324.7)
(12681 -1802.24 6.65887e-14 -2591.29 5.22172e-15 2328.4)
(5662.38 -245.028 4.883e-14 90.9899 2.87982e-15 1327.7)
(6145.31 -217.596 3.67571e-15 254.043 5.46309e-15 1476.77)
(6580.31 -195.297 -7.84839e-14 400.165 2.51517e-15 1610.88)
(6974.76 -175.453 -2.80697e-14 535.955 -8.13358e-17 1733.24)
(7333.57 -157.592 -4.57373e-15 666.58 -8.03208e-15 1846.19)
(7660.77 -141.412 0 796.093 0 1951.58)
(7959.78 -126.671 0 927.877 0 2051)
(8233.53 -113.142 3.18265e-14 1064.7 2.06903e-16 2145.74)
(8484.41 -100.6 1.36413e-15 1209.1 2.38576e-15 2236.96)
(8714.41 -88.8207 6.59904e-14 1363.41 5.9514e-16 2325.65)
(8925.08 -77.5834 3.69625e-15 1530.01 6.21738e-15 2412.71)
(9117.56 -66.6475 -1.40385e-15 1711.3 -1.86319e-15 2498.97)
(9292.55 -55.7876 3.28556e-15 1910 4.81374e-15 2585.2)
(9450.4 -44.7448 -1.03371e-13 2128.98 -1.6291e-15 2672.16)
(9590.92 -33.2449 3.35856e-14 2371.6 -3.16063e-16 2760.58)
(9713.41 -20.9764 1.23587e-16 2641.55 2.54513e-18 2851.14)
(9816.48 -7.86701 -3.43772e-14 2942.92 -8.08085e-16 2944.48)
(9898.04 5.23529 3.3995e-14 3279.14 8.9967e-16 3040.89)
(9957.08 13.7746 -6.55629e-14 3650.9 -5.61344e-15 3140.3)
(10019.6 5.10476 -3.35748e-14 4054.53 1.6372e-15 3247.87)
(5875.4 -1128.13 7.88735e-14 -96.1562 3.24743e-15 1333.67)
(6322.83 -1008.04 1.08316e-14 94.5112 6.17888e-15 1480.92)
(6724.55 -909.626 -2.24899e-14 260.678 2.73808e-15 1611.98)
(7092.87 -822.207 9.63785e-14 413.267 6.92593e-15 1732.19)
(7430.42 -744.413 -2.25049e-15 557.897 -2.83403e-15 1843.46)
(7740.1 -675.064 -9.65009e-14 699.147 -4.18495e-15 1947.52)
(8024.5 -613.037 9.10851e-15 840.634 5.6129e-15 2045.8)
(8285.99 -557.255 0 985.478 0 2139.57)
(8526.52 -506.696 3.33907e-15 1136.34 2.54141e-15 2229.89)
(8747.74 -460.376 7.71515e-15 1295.81 4.8698e-15 2317.74)
(8950.92 -417.362 4.98058e-14 1466.29 1.2175e-14 2403.97)
(9137.05 -376.727 7.15644e-16 1650.39 4.63749e-17 2489.41)
(9306.69 -337.577 -2.92712e-14 1850.74 2.0207e-15 2574.79)
(9460.13 -298.941 3.4226e-14 2070.38 1.60074e-15 2660.89)
(9597.25 -259.912 3.48274e-14 2312.51 1.8684e-15 2748.41)
(9717.63 -219.485 -3.4268e-14 2580.89 -2.08795e-15 2838.12)
(9820.27 -176.784 -3.42597e-14 2879.75 -2.38395e-15 2930.77)
(9903.45 -130.917 -6.77928e-14 3214.56 -5.39002e-15 3027.23)
(9963.91 -80.304 -6.05805e-16 3594.59 -2.50342e-17 3128.88)
(10026.8 -19.2369 2.00863e-14 4050.72 1.25327e-14 3248.67)
(6350.63 -1834.59 2.67646e-14 -368.051 9.70472e-16 1380.6)
(6729.02 -1648.93 1.04593e-14 -143.434 3.81392e-15 1519.75)
(7061.7 -1495.28 -8.64017e-14 49.1843 -2.15494e-15 1640.97)
(7373.01 -1357.28 1.83134e-14 225.516 -3.00048e-15 1753.51)
(7663.18 -1233.31 1.06539e-13 390.88 8.93757e-15 1858.63)
(7933.31 -1122 -1.00266e-13 549.917 -5.72663e-15 1957.67)
(8184.57 -1021.88 -3.39398e-14 706.458 -1.12032e-15 2051.78)
(8418.12 -931.455 6.47536e-14 863.861 2.22718e-15 2142)
(8635 -849.24 -5.19526e-14 1025.03 3.28466e-15 2229.24)
(8836.15 -773.753 -6.80828e-14 1192.75 -3.16742e-15 2314.36)
(9022.24 -703.55 6.5444e-14 1369.6 3.30329e-15 2398.12)
(9193.82 -637.187 1.00737e-13 1558.3 5.90806e-15 2481.26)
(9351.14 -573.233 7.34887e-16 1761.55 7.90988e-17 2564.47)
(9494.27 -510.225 -3.41512e-14 1982.42 -2.61522e-15 2648.47)
(9622.93 -446.645 3.35999e-14 2224.15 2.91658e-15 2733.94)
(9736.51 -380.866 1.1827e-16 2490.59 1.1777e-17 2821.64)
(9833.77 -311.114 -3.40075e-14 2786.27 -3.8739e-15 2912.32)
(9912.18 -234.774 2.96698e-14 3117.2 4.61077e-15 3006.78)
(9967.7 -146.99 1.53345e-14 3492.15 9.6723e-15 3106.12)
(10026.2 -35.7247 2.47276e-17 3935.42 -1.37622e-17 3221.92)
(7024.86 -2382.13 0 -740.411 0 1450.26)
(7308.04 -2156.51 1.30533e-14 -474.504 4.69823e-15 1576.97)
(7546.65 -1968.41 3.0658e-14 -248.001 1.44739e-15 1684.3)
(7778.76 -1797.13 3.49039e-14 -40.6097 1.71349e-15 1785.73)
(8002.22 -1641.24 0 152.557 0 1881.87)
(8216.07 -1499.59 -2.0785e-14 335.932 2.62491e-15 1973.54)
(8419.73 -1370.9 -5.12526e-14 513.4 -8.86909e-15 2061.49)
(8612.92 -1253.69 -6.52262e-14 688.485 -3.30138e-15 2146.48)
(8795.46 -1146.35 -1.16835e-14 864.324 -3.7274e-15 2229.18)
(8967.28 -1047.19 5.06625e-14 1043.9 -2.01712e-15 2310.27)
(9128.28 -954.502 1.8219e-14 1229.98 -3.41017e-15 2390.37)
(9278.38 -866.504 1.69132e-14 1425.41 5.66308e-15 2470.1)
(9417.32 -781.388 -1.17946e-14 1633 4.19321e-15 2550.07)
(9544.74 -697.244 2.65528e-14 1855.83 1.39662e-15 2630.9)
(9660.07 -612.069 2.76236e-14 2097.19 2.37553e-15 2713.21)
(9762.37 -523.599 -3.36406e-14 2360.91 -4.56841e-15 2797.68)
(9850.01 -429.086 -1.05399e-16 2651.46 -1.63899e-17 2884.96)
(9920.4 -324.562 9.45854e-14 2974.37 1.78006e-14 2975.72)
(9969.97 -203.226 -2.71355e-14 3336.64 -7.40013e-15 3070.76)
(10024.9 -49.4919 -3.58568e-14 3759.53 -1.97815e-14 3181.02)
(7852.75 -2750.66 3.72525e-14 -1168.55 -4.68568e-15 1542.51)
(8020.43 -2514.45 -1.81912e-14 -863.731 -6.17825e-15 1651.55)
(8148.08 -2315.22 -8.26057e-14 -601.957 -1.07921e-14 1741.41)
(8285.32 -2130.33 4.38791e-14 -361.388 7.002e-15 1828.6)
(8428.02 -1958.81 1.11485e-13 -137.542 1.96122e-14 1913.19)
(8573.04 -1800.32 -3.43904e-14 73.4241 -2.26977e-15 1995.34)
(8717.96 -1654.21 0 275.145 0 2075.33)
(8860.93 -1519.46 3.29653e-14 471.081 2.26742e-15 2153.54)
(9000.44 -1394.72 -3.25563e-14 664.463 -1.18875e-14 2230.36)
(9135.31 -1278.43 -4.476e-14 858.368 -6.65127e-15 2306.23)
(9264.5 -1168.83 -4.46616e-14 1055.73 1.19498e-15 2381.59)
(9387.17 -1064.03 -5.93083e-14 1259.43 -4.01253e-15 2456.91)
(9502.45 -962.001 6.88475e-14 1472.38 2.14703e-15 2532.65)
(9609.52 -860.552 9.16692e-14 1697.62 1.05718e-14 2609.34)
(9707.36 -757.227 8.69465e-15 1938.37 2.24798e-15 2687.48)
(9794.74 -649.182 -2.49141e-14 2198.29 -3.82177e-15 2767.62)
(9869.99 -532.943 1.52836e-14 2481.46 2.43274e-15 2850.33)
(9930.6 -403.487 7.27182e-15 2792.63 6.10823e-16 2936.13)
(9973.42 -252.609 7.74043e-14 3137.56 1.64844e-14 3025.61)
(10023.7 -61.8853 3.00755e-14 3536.48 2.91703e-14 3129.27)
(8781.67 -2921.86 3.22619e-14 -1602.8 2.36852e-15 1656.66)
(8821.88 -2706.98 1.94697e-15 -1272.6 3.71528e-16 1742.14)
(8831.23 -2521.49 -5.36072e-14 -980.996 -1.07727e-14 1811.59)
(8865.21 -2344.18 -1.38594e-13 -710.801 -2.30161e-14 1881.79)
(8918.89 -2174.8 4.65658e-14 -457.93 8.44452e-15 1952.53)
(8987.11 -2014.32 6.96706e-14 -219.665 6.16935e-15 2023.26)
(9065.77 -1863.22 -3.36246e-14 6.84685 -2.89767e-15 2093.68)
(9151.56 -1721.33 1.75628e-14 224.674 -2.37562e-15 2163.75)
(9241.66 -1587.96 7.77947e-14 436.822 1.82033e-14 2233.5)
(9333.77 -1461.94 -9.75706e-14 646.323 -9.78428e-15 2303.1)
(9425.92 -1341.78 -3.58653e-14 856.058 -4.20408e-15 2372.77)
(9516.45 -1225.71 1.41284e-13 1068.94 1.25454e-14 2442.78)
(9603.85 -1111.65 -2.15541e-14 1287.79 -1.2963e-14 2513.45)
(9686.74 -997.248 -9.8146e-14 1515.56 -1.51802e-14 2585.15)
(9763.76 -879.784 -2.27716e-14 1755.27 -3.00262e-15 2658.24)
(9833.47 -756.004 -8.55371e-14 2010.24 -1.77806e-14 2733.17)
(9894.06 -621.829 -1.25734e-15 2283.99 -2.65826e-16 2810.32)
(9943.28 -471.479 1.04614e-13 2580.57 2.62844e-14 2890.12)
(9978.24 -295.577 2.39825e-14 2904.65 9.34897e-15 2972.97)
(10022.5 -73.0535 5.00963e-15 3275.6 -1.23308e-15 3068.8)
(9753.85 -2890.66 -3.4644e-14 -1991.4 -3.86458e-15 1791.33)
(9664.31 -2728.22 3.53838e-14 -1660.8 5.94406e-15 1846.96)
(9558.14 -2580.37 2.45299e-14 -1352.02 8.99728e-15 1893.72)
(9488.37 -2431.53 -3.60194e-14 -1061.65 -4.75649e-15 1944.63)
(9450.92 -2282.21 -3.91993e-14 -786.09 -1.4649e-14 1999.58)
(9439.26 -2135.02 1.85861e-14 -524.498 6.86389e-15 2057.25)
(9448.03 -1991.9 7.28281e-14 -275.566 1.73877e-14 2116.72)
(9472.81 -1853.87 -1.20189e-13 -37.0477 -2.62782e-14 2177.48)
(9509.64 -1721.19 -7.4022e-14 193.345 -1.70643e-14 2239.15)
(9555.29 -1593.41 1.14305e-13 418.402 2.47006e-14 2301.62)
(9606.84 -1469.57 -2.87992e-14 640.638 -1.00066e-14 2364.8)
(9661.92 -1348.18 9.65511e-14 862.909 1.3774e-14 2428.81)
(9718.33 -1227.38 6.08913e-14 1087.71 1.42116e-14 2493.7)
(9774.27 -1104.8 -8.23743e-14 1317.91 -1.27921e-14 2559.74)
(9827.94 -977.638 2.53564e-14 1556.04 1.69693e-15 2627.07)
(9877.7 -842.374 2.63235e-15 1805.1 6.38217e-16 2696.03)
(9921.72 -694.588 -1.15285e-13 2067.84 -2.8908e-14 2766.82)
(9958.01 -527.868 3.12216e-14 2347.66 9.22793e-15 2839.77)
(9983.81 -331.79 4.06373e-14 2647.91 1.17173e-14 2915.01)
(10021.1 -82.8271 3.02069e-15 2986.32 -1.12857e-17 3001.71)
(10711.3 -2666.63 2.89956e-15 -2285.73 8.43027e-16 1944.35)
(10499.7 -2582.56 -3.66285e-14 -1989.86 -7.72807e-15 1963.81)
(10290.2 -2492.36 -1.36607e-14 -1682.69 2.8804e-15 1986.35)
(10123.6 -2390.71 0 -1387.11 0 2016.11)
(9999 -2278.1 0 -1099.16 0 2053.81)
(9909.15 -2159.01 -9.28679e-14 -822.029 -1.85401e-14 2097.03)
(9848.48 -2036.68 9.60364e-14 -555.578 1.25393e-14 2144.52)
(9811.56 -1913.65 1.92902e-13 -300.14 3.10178e-14 2194.94)
(9794.02 -1791.18 -1.52638e-13 -53.4956 -1.95878e-14 2247.81)
(9791.56 -1669.91 -1.20723e-13 185.396 -2.14485e-14 2302.37)
(9800.85 -1549.48 6.38489e-14 419.532 9.52345e-15 2358.55)
(9818.57 -1429.04 1.39101e-14 650.329 -8.9959e-16 2415.9)
(9842.26 -1306.99 4.68793e-14 880.965 1.57802e-14 2474.59)
(9869.35 -1181.26 1.07176e-13 1112.83 2.67839e-14 2534.35)
(9898.03 -1049.04 3.58198e-15 1349.14 9.49992e-16 2595.5)
(9926.15 -906.79 -2.59043e-14 1591.15 -3.9954e-15 2657.84)
(9952.22 -749.865 0 1842.11 0 2721.77)
(9974.03 -571.484 -2.38786e-14 2103.11 -5.13784e-15 2787.03)
(9989.9 -360.339 1.05796e-14 2377.79 1.68245e-15 2854.08)
(10019.1 -90.9314 1.02597e-14 2677.29 2.05993e-15 2929.95)
(11604.9 -2266.88 -3.39042e-15 -2441.2 -1.12583e-15 2114.71)
(11289 -2275.94 2.85075e-14 -2216.8 1.28507e-14 2093.58)
(10993.7 -2258.32 -3.05455e-14 -1935.1 -1.28726e-14 2090.45)
(10742.9 -2219.24 -2.92984e-14 -1652.06 -1.19695e-14 2097.89)
(10539.7 -2158.66 9.18252e-14 -1367.03 2.89248e-14 2116.78)
(10377.8 -2081.71 5.69862e-14 -1085.22 2.17021e-14 2144.44)
(10251.4 -1993.06 -7.98999e-14 -810.678 -2.36731e-14 2178.63)
(10155.2 -1896.29 -2.38767e-14 -544.386 6.18933e-15 2217.89)
(10084.4 -1794.07 1.94321e-14 -287.084 1.78449e-15 2260.92)
(10034.5 -1687.91 2.56886e-14 -37.4496 -4.32935e-15 2307)
(10001.3 -1578.5 -6.34979e-14 205.212 -2.28859e-14 2355.34)
(9981.37 -1465.58 2.04845e-15 443.115 5.47917e-16 2405.65)
(9971.53 -1348.18 -7.31743e-14 677.338 -1.14467e-14 2457.43)
(9969.16 -1224.53 -3.18154e-15 910.293 -8.99542e-16 2510.64)
(9971.77 -1092.09 2.97151e-14 1142.91 9.80859e-15 2564.93)
(9977.49 -947.424 -2.25487e-15 1377.51 -6.60832e-16 2620.38)
(9984.4 -785.903 1.02546e-13 1614.65 3.14464e-14 2676.7)
(9991.16 -600.533 -1.21273e-14 1856.38 -3.02761e-15 2734.05)
(9997.12 -379.883 -1.28645e-13 2101.71 -4.94315e-14 2792.04)
(10017.6 -97.6236 -2.33097e-14 2358.18 -2.81561e-14 2855.94)
(12418 -1704.75 -4.71998e-15 -2430.58 -3.51041e-15 2304.79)
(12022.7 -1810.37 -3.18394e-14 -2280.43 -1.71796e-14 2248.21)
(11648.1 -1882.12 3.96603e-14 -2050.83 1.25489e-14 2214.76)
(11320.3 -1921.86 -1.11066e-13 -1808.72 -2.44127e-14 2194.98)
(11044.5 -1929.14 -1.07082e-13 -1551.72 -2.65611e-14 2190.64)
(10815.5 -1909.07 7.01621e-14 -1286.45 9.09414e-15 2199.02)
(10627.9 -1867.15 7.49302e-14 -1019.48 6.69647e-15 2217.32)
(10476.4 -1808.15 9.5009e-14 -754.696 1.8191e-14 2243.46)
(10355.6 -1736 -8.03878e-14 -495.089 -2.1471e-14 2275.51)
(10261.1 -1653.47 1.38252e-16 -241.4 -8.466e-16 2312.24)
(10188 -1562.28 -2.27823e-15 5.70087 1.7253e-15 2352.4)
(10132.7 -1463.12 -8.74198e-14 247.105 -1.75921e-14 2395.34)
(10091.3 -1355.71 0 483.056 0 2440.23)
(10061.1 -1238.88 -2.58416e-14 714.956 -1.35278e-14 2486.77)
(10039.1 -1110.49 -2.13204e-16 943.041 1.54792e-16 2534.35)
(10023.6 -967.382 -4.8774e-14 1168.55 -1.63826e-14 2582.8)
(10012.4 -805.02 2.83256e-14 1391.13 9.09825e-15 2631.59)
(10005.4 -617.077 2.90396e-14 1611.21 8.2292e-15 2680.76)
(10002.1 -392.3 1.01419e-15 1825.5 1.50063e-16 2729.44)
(10014.6 -102.899 -7.78735e-15 2034.86 -4.49396e-15 2780.65)
(12999.6 -1212.87 5.02372e-14 -2372.98 1.76708e-14 2452.31)
(12560.3 -1376.16 -3.36212e-14 -2169 -1.95566e-14 2397.99)
(12123.6 -1522.42 -2.24921e-14 -2008.39 -6.97272e-15 2334.28)
(11756.7 -1618.5 3.04655e-14 -1808.43 1.67283e-14 2295.76)
(11442.8 -1674.4 -4.53937e-14 -1583.41 -3.65336e-14 2275.24)
(11175.1 -1697.36 -3.26064e-14 -1343.63 -2.32638e-14 2268.81)
(10948.8 -1693.17 -5.60674e-14 -1095.74 -1.9523e-14 2273.78)
(10758.9 -1666.96 -4.79933e-15 -845.993 6.14344e-15 2287.6)
(10601.2 -1622.79 9.86242e-14 -597.368 3.92332e-14 2308.58)
(10471.2 -1563.85 -5.55738e-15 -352.922 -9.53897e-16 2334.99)
(10365 -1492.23 4.66328e-14 -113.157 1.97432e-14 2365.81)
(10278.6 -1409.07 -4.16343e-15 120.579 -7.56346e-16 2399.81)
(10208.9 -1314.53 0 348.934 0 2436.41)
(10152.6 -1207.84 -1.78172e-14 571.04 -7.20045e-15 2474.68)
(10107.5 -1087.31 1.69099e-14 787.694 6.50558e-15 2514.29)
(10071.4 -950.078 -1.57503e-15 997.616 -4.27338e-16 2554.4)
(10043.2 -792.215 -1.06139e-14 1201.16 -3.60758e-15 2594.84)
(10021.8 -607.96 3.60211e-16 1395.56 2.05978e-16 2634.77)
(10009.4 -387.494 -2.27062e-16 1577.91 5.74351e-17 2674.01)
(10013.1 -104.528 -2.7786e-16 1741.88 -1.28568e-16 2712.69)
(12924.3 -862.438 4.20545e-14 -2160.02 1.89963e-14 2484.07)
(12628.6 -1046.47 0 -2067.38 0 2437.21)
(12253.9 -1219.76 -3.42669e-14 -1952.95 -1.07839e-14 2377.14)
(11918.2 -1348.42 6.25971e-28 -1785.97 2.10993e-28 2338.2)
(11619.8 -1435.38 7.06925e-29 -1587.13 7.79612e-29 2315.24)
(11357.3 -1487.24 4.6514e-28 -1368.18 2.25464e-28 2305.19)
(11128.3 -1509.91 5.46449e-28 -1137.56 1.82416e-28 2305.55)
(10930 -1508.25 -2.98917e-14 -901.528 -6.80435e-15 2314.25)
(10759.5 -1486.2 0 -664.632 0 2329.59)
(10614 -1446.8 2.86709e-14 -429.955 6.40738e-15 2350.16)
(10490.3 -1392.21 -2.28243e-28 -199.586 -3.1554e-29 2374.79)
(10385.7 -1323.69 -2.76973e-14 25.167 -6.55836e-15 2402.51)
(10297.5 -1241.63 2.72872e-14 243.357 6.82833e-15 2432.51)
(10223.4 -1145.58 2.89574e-28 454.266 9.76629e-29 2464.07)
(10161.3 -1034.21 -2.65925e-14 657.004 -7.76706e-15 2496.53)
(10109.8 -905.086 -1.8231e-28 850.442 -5.87209e-29 2529.28)
(10067.8 -754.789 2.60418e-14 1032.97 9.30599e-15 2561.71)
(10035.9 -578.934 2.58213e-14 1202.29 1.03457e-14 2593.43)
(10015.1 -369.095 -1.24216e-28 1352.94 -6.36816e-29 2623.4)
(10011.2 -101.824 -4.06781e-29 1477.49 -7.63185e-29 2651.23)
(12880.9 -523.755 1.86834e-14 -1864.39 -1.73701e-15 2542.27)
(12648 -716.853 -1.74982e-14 -1839.25 -1.50351e-14 2494.32)
(12330.4 -906.312 -5.19703e-14 -1782.69 -2.59766e-14 2434.09)
(12028.5 -1059.56 0 -1663.98 0 2391.81)
(11748.5 -1174.09 1.5073e-14 -1504.49 -4.08234e-15 2364.01)
(11494 -1253.67 -2.83688e-15 -1318.31 -1.6857e-14 2348.22)
(11265.4 -1302.98 -4.79938e-14 -1115.23 -1.99904e-14 2342.36)
(11062.3 -1326.29 -6.3771e-14 -902.496 -3.00907e-14 2344.57)
(10883.1 -1327.19 2.95938e-14 -685.432 7.27129e-15 2353.32)
(10726.1 -1308.52 -3.24023e-14 -468.03 -1.96737e-14 2367.25)
(10589.2 -1272.37 -1.59329e-14 -253.158 -9.1538e-15 2385.25)
(10470.4 -1220.1 -3.13628e-14 -43.0336 -1.69957e-14 2406.31)
(10367.6 -1152.28 -3.08989e-14 160.649 -1.5744e-14 2429.6)
(10279.2 -1068.76 -1.52376e-14 356.292 -7.27907e-15 2454.34)
(10203.6 -968.565 -3.00891e-14 542.288 -1.34443e-14 2479.82)
(10139.8 -849.76 -2.97339e-14 716.626 -1.24116e-14 2505.32)
(10087.2 -709.553 -2.62187e-14 876.902 -9.77619e-15 2530.18)
(10046.1 -544.439 -1.4536e-14 1019.57 -5.32232e-15 2553.62)
(10019.4 -347.866 -1.43675e-14 1139.42 -4.98109e-15 2575.12)
(10009.9 -98.5105 -4.88744e-15 1227.59 -4.73811e-15 2593.26)
(12767.3 -242.394 1.57298e-13 -1601.84 7.20701e-14 2576.64)
(12581 -430.519 1.5721e-14 -1617.11 1.43886e-14 2530.13)
(12315.6 -622.561 -8.43666e-14 -1600.65 -3.76275e-14 2472.68)
(12053.2 -787.984 1.29444e-27 -1522.58 5.05786e-28 2430.14)
(11800.4 -920.612 4.88799e-14 -1399.69 6.73519e-15 2400.16)
(11562.9 -1021.07 0 -1245.46 0 2380.95)
(11343.7 -1092.11 1.62646e-14 -1070.19 1.19384e-14 2370.82)
(11143.9 -1136.88 -6.08938e-14 -881.673 -1.6515e-14 2368.21)
(10963.5 -1158.28 1.45093e-27 -685.887 4.74593e-28 2371.77)
(10801.9 -1158.75 5.8437e-14 -487.419 1.55927e-14 2380.27)
(10658 -1140.18 -1.5668e-14 -289.873 -9.30685e-15 2392.64)
(10530.5 -1103.87 -1.88432e-28 -96.1027 -5.09659e-29 2407.94)
(10418.2 -1050.51 -1.14302e-27 91.4428 -3.31688e-28 2425.31)
(10319.9 -980.157 1.51802e-14 270.537 7.54056e-15 2443.96)
(10234.7 -892.183 -5.55687e-28 438.831 -1.82192e-28 2463.13)
(10162 -785.079 -5.329e-14 593.686 -1.88798e-14 2482.07)
(10101.5 -656.665 4.52657e-28 731.925 1.77891e-28 2500.01)
(10054.6 -504.589 3.77052e-14 849.678 1.64185e-14 2516.37)
(10022.8 -323.463 -1.44494e-14 940.784 -5.51394e-15 2530.07)
(10008 -94.2442 -4.92461e-15 996.118 -5.3544e-15 2539.42)
(12603.3 -13.3375 2.71153e-14 -1363.06 2.74569e-14 2593.9)
(12456 -192.01 4.85311e-14 -1405.3 2.65543e-14 2550.15)
(12235.9 -378.494 2.92959e-14 -1416.18 2.71521e-14 2496.85)
(12011.8 -546.458 1.69314e-28 -1369.97 2.90962e-29 2455.82)
(11789.3 -688.159 6.29801e-14 -1278.88 3.61755e-14 2425.49)
(11574.1 -801.945 -1.64191e-14 -1154.37 2.51786e-15 2404.56)
(11370.2 -888.677 -1.56831e-14 -1006.12 2.48778e-15 2391.71)
(11179.8 -950.162 3.09655e-14 -841.971 2.23962e-14 2385.66)
(11004.2 -988.412 2.99032e-14 -668.171 8.59731e-15 2385.25)
(10843.8 -1005.3 4.47306e-14 -489.74 1.8412e-14 2389.39)
(10698.2 -1002.37 3.06422e-14 -310.76 1.87896e-14 2397.1)
(10567.1 -980.792 -1.30789e-14 -134.642 3.94901e-16 2407.49)
(10449.9 -941.238 2.40408e-15 35.6213 7.9421e-15 2419.73)
(10345.9 -883.923 1.50291e-14 197.22 7.75701e-15 2433.03)
(10254.8 -808.491 5.69354e-14 347.275 2.38799e-14 2446.63)
(10176.4 -713.853 1.48128e-14 482.625 6.85962e-15 2459.78)
(10111.1 -598.416 5.88515e-30 599.623 2.34154e-30 2471.69)
(10059.5 -460.582 5.54403e-14 693.681 2.3784e-14 2481.5)
(10025.1 -296.552 2.8879e-14 759.004 1.20017e-14 2488.63)
(10006.9 -89.4577 9.86198e-15 785.327 1.18322e-14 2490.53)