/*--------------------------------*- C++ -*----------------------------------*\
  =========                 |
  \\      /  F ield         | OpenFOAM: The Open Source CFD Toolbox
   \\    /   O peration     | Website:  https://openfoam.org
    \\  /    A nd           | Version:  9
     \\/     M anipulation  |
\*---------------------------------------------------------------------------*/
FoamFile
{
    format      ascii;
    class       volScalarField;
    location    "40";
    object      sigmaxz;
}
// * * * * * * * * * * * * * * * * * * * * * * * * * * * * * * * * * * * * * //

dimensions      [1 -1 -2 0 0 0 0];

internalField   nonuniform List<scalar> 
1000
(
-6.89026e-14
-1.08502e-13
1.35392e-13
2.11214e-14
-1.25304e-13
1.61895e-17
-1.49027e-13
8.86892e-14
-9.19574e-14
0
-1.1572e-13
0
1.29242e-13
-2.22729e-13
-9.63314e-14
8.38118e-14
7.58018e-14
1.5756e-13
0
0
0
0
1.25794e-13
-2.37585e-14
-1.71574e-16
-8.0889e-14
6.90878e-14
-6.67959e-14
1.6335e-14
-1.02058e-14
-7.11717e-14
5.83434e-14
-6.11506e-14
-2.23129e-14
8.0517e-14
-8.09002e-14
-7.1761e-14
-1.61034e-13
-4.3534e-14
4.5181e-14
-4.40761e-14
-1.52867e-15
-1.86895e-13
1.04985e-14
-1.17441e-14
7.43887e-14
1.5205e-15
5.8063e-14
-5.89567e-14
-4.33207e-14
-1.36655e-13
-1.35397e-15
8.19627e-16
9.35837e-15
-8.5819e-14
1.87905e-16
6.62586e-14
1.51705e-13
2.68083e-14
-5.55579e-14
1.64944e-13
3.65365e-14
5.96215e-14
-8.57136e-15
7.37938e-14
-6.89871e-14
-2.59658e-15
-5.71646e-14
7.64435e-15
-2.67202e-14
2.91144e-13
-1.47369e-13
7.78336e-16
1.2286e-14
1.54548e-13
-2.31437e-15
3.29403e-17
-5.32084e-14
-2.68844e-15
2.04307e-15
1.71901e-13
-1.57018e-13
1.13693e-14
1.12635e-14
-4.4189e-15
6.64812e-14
-4.3757e-16
1.07269e-13
2.42823e-14
1.91313e-14
1.85291e-13
-5.53364e-15
6.11766e-14
2.6164e-15
-6.53739e-17
6.63461e-14
-1.30582e-16
5.27167e-14
1.1275e-15
-3.146e-16
6.22622e-15
7.94372e-15
-6.75246e-15
0
-1.34619e-14
-4.17988e-15
2.30424e-14
1.06739e-14
1.95242e-14
5.79383e-15
-3.8795e-15
1.77025e-14
-1.65925e-14
-4.09122e-15
0
-1.96375e-14
2.34652e-14
1.01926e-16
-7.08609e-14
8.73937e-15
-4.74487e-15
2.57172e-14
2.29828e-14
-3.13866e-15
0
-3.4134e-14
-4.61949e-14
4.1055e-14
2.05811e-17
-4.1783e-14
1.95002e-14
1.70258e-15
3.15611e-14
0
-4.23661e-14
2.27957e-14
-2.01951e-14
-3.96569e-14
1.65493e-14
3.14553e-14
-3.89913e-14
-5.2472e-14
-3.91325e-14
3.65572e-16
9.59504e-17
4.38753e-14
2.43708e-14
0
-5.33072e-14
1.68313e-14
-2.05878e-14
1.70832e-14
-4.0625e-14
1.66817e-15
7.38564e-14
-5.54203e-14
1.11756e-16
-6.51118e-14
1.80121e-17
-5.34127e-14
2.54126e-14
5.16025e-16
4.39837e-16
-8.869e-14
8.89168e-16
-7.37948e-14
1.32551e-13
7.76496e-17
1.32714e-14
-4.02688e-14
1.20378e-13
3.24396e-14
-1.13694e-14
5.30439e-15
-9.42173e-17
7.29814e-14
-1.33317e-14
1.89717e-14
1.33728e-14
4.19585e-14
4.70477e-14
4.26882e-15
7.27284e-16
1.13561e-13
9.35062e-14
8.31623e-14
1.23282e-14
-1.00826e-13
3.69962e-14
2.73137e-14
-7.97071e-15
-2.53599e-14
-6.05032e-14
2.44575e-13
1.06779e-16
-8.55645e-14
-6.17771e-14
-3.5655e-14
-3.31135e-14
6.65887e-14
4.883e-14
3.67571e-15
-7.84839e-14
-2.80697e-14
-4.57373e-15
0
0
3.18265e-14
1.36413e-15
6.59904e-14
3.69625e-15
-1.40385e-15
3.28556e-15
-1.03371e-13
3.35856e-14
1.23587e-16
-3.43772e-14
3.3995e-14
-6.55629e-14
-3.35748e-14
7.88735e-14
1.08316e-14
-2.24899e-14
9.63785e-14
-2.25049e-15
-9.65009e-14
9.10851e-15
0
3.33907e-15
7.71515e-15
4.98058e-14
7.15644e-16
-2.92712e-14
3.4226e-14
3.48274e-14
-3.4268e-14
-3.42597e-14
-6.77928e-14
-6.05805e-16
2.00863e-14
2.67646e-14
1.04593e-14
-8.64017e-14
1.83134e-14
1.06539e-13
-1.00266e-13
-3.39398e-14
6.47536e-14
-5.19526e-14
-6.80828e-14
6.5444e-14
1.00737e-13
7.34887e-16
-3.41512e-14
3.35999e-14
1.1827e-16
-3.40075e-14
2.96698e-14
1.53345e-14
2.47276e-17
0
1.30533e-14
3.0658e-14
3.49039e-14
0
-2.0785e-14
-5.12526e-14
-6.52262e-14
-1.16835e-14
5.06625e-14
1.8219e-14
1.69132e-14
-1.17946e-14
2.65528e-14
2.76236e-14
-3.36406e-14
-1.05399e-16
9.45854e-14
-2.71355e-14
-3.58568e-14
3.72525e-14
-1.81912e-14
-8.26057e-14
4.38791e-14
1.11485e-13
-3.43904e-14
0
3.29653e-14
-3.25563e-14
-4.476e-14
-4.46616e-14
-5.93083e-14
6.88475e-14
9.16692e-14
8.69465e-15
-2.49141e-14
1.52836e-14
7.27182e-15
7.74043e-14
3.00755e-14
3.22619e-14
1.94697e-15
-5.36072e-14
-1.38594e-13
4.65658e-14
6.96706e-14
-3.36246e-14
1.75628e-14
7.77947e-14
-9.75706e-14
-3.58653e-14
1.41284e-13
-2.15541e-14
-9.8146e-14
-2.27716e-14
-8.55371e-14
-1.25734e-15
1.04614e-13
2.39825e-14
5.00963e-15
-3.4644e-14
3.53838e-14
2.45299e-14
-3.60194e-14
-3.91993e-14
1.85861e-14
7.28281e-14
-1.20189e-13
-7.4022e-14
1.14305e-13
-2.87992e-14
9.65511e-14
6.08913e-14
-8.23743e-14
2.53564e-14
2.63235e-15
-1.15285e-13
3.12216e-14
4.06373e-14
3.02069e-15
2.89956e-15
-3.66285e-14
-1.36607e-14
0
0
-9.28679e-14
9.60364e-14
1.92902e-13
-1.52638e-13
-1.20723e-13
6.38489e-14
1.39101e-14
4.68793e-14
1.07176e-13
3.58198e-15
-2.59043e-14
0
-2.38786e-14
1.05796e-14
1.02597e-14
-3.39042e-15
2.85075e-14
-3.05455e-14
-2.92984e-14
9.18252e-14
5.69862e-14
-7.98999e-14
-2.38767e-14
1.94321e-14
2.56886e-14
-6.34979e-14
2.04845e-15
-7.31743e-14
-3.18154e-15
2.97151e-14
-2.25487e-15
1.02546e-13
-1.21273e-14
-1.28645e-13
-2.33097e-14
-4.71998e-15
-3.18394e-14
3.96603e-14
-1.11066e-13
-1.07082e-13
7.01621e-14
7.49302e-14
9.5009e-14
-8.03878e-14
1.38252e-16
-2.27823e-15
-8.74198e-14
0
-2.58416e-14
-2.13204e-16
-4.8774e-14
2.83256e-14
2.90396e-14
1.01419e-15
-7.78735e-15
5.02372e-14
-3.36212e-14
-2.24921e-14
3.04655e-14
-4.53937e-14
-3.26064e-14
-5.60674e-14
-4.79933e-15
9.86242e-14
-5.55738e-15
4.66328e-14
-4.16343e-15
0
-1.78172e-14
1.69099e-14
-1.57503e-15
-1.06139e-14
3.60211e-16
-2.27062e-16
-2.7786e-16
4.20545e-14
0
-3.42669e-14
6.25971e-28
7.06925e-29
4.6514e-28
5.46449e-28
-2.98917e-14
0
2.86709e-14
-2.28243e-28
-2.76973e-14
2.72872e-14
2.89574e-28
-2.65925e-14
-1.8231e-28
2.60418e-14
2.58213e-14
-1.24216e-28
-4.06781e-29
1.86834e-14
-1.74982e-14
-5.19703e-14
0
1.5073e-14
-2.83688e-15
-4.79938e-14
-6.3771e-14
2.95938e-14
-3.24023e-14
-1.59329e-14
-3.13628e-14
-3.08989e-14
-1.52376e-14
-3.00891e-14
-2.97339e-14
-2.62187e-14
-1.4536e-14
-1.43675e-14
-4.88744e-15
1.57298e-13
1.5721e-14
-8.43666e-14
1.29444e-27
4.88799e-14
0
1.62646e-14
-6.08938e-14
1.45093e-27
5.8437e-14
-1.5668e-14
-1.88432e-28
-1.14302e-27
1.51802e-14
-5.55687e-28
-5.329e-14
4.52657e-28
3.77052e-14
-1.44494e-14
-4.92461e-15
2.71153e-14
4.85311e-14
2.92959e-14
1.69314e-28
6.29801e-14
-1.64191e-14
-1.56831e-14
3.09655e-14
2.99032e-14
4.47306e-14
3.06422e-14
-1.30789e-14
2.40408e-15
1.50291e-14
5.69354e-14
1.48128e-14
5.88515e-30
5.54403e-14
2.8879e-14
9.86198e-15
-1.48012e-14
-1.2826e-14
-3.3309e-14
0
3.22233e-14
4.61291e-14
-4.57264e-14
-3.04583e-14
2.98928e-14
1.49176e-14
3.01558e-28
1.48986e-14
0
-1.48046e-14
0
1.46604e-14
-2.66112e-14
1.90313e-28
9.87893e-29
3.84118e-30
3.5431e-14
1.16949e-14
-3.27502e-14
6.92461e-28
-1.90776e-28
1.36609e-14
1.39407e-14
-3.03109e-14
0
4.37143e-14
-7.93643e-28
-1.38447e-14
2.79541e-14
1.4526e-14
-2.72342e-14
1.44472e-14
2.66962e-14
2.65105e-14
-9.77495e-29
-9.37618e-29
1.00122e-14
1.07537e-14
1.14149e-14
0
1.24918e-14
0
1.32553e-14
0
0
0
1.40452e-14
0
0
1.4211e-14
0
0
0
1.4083e-14
1.40013e-14
4.81438e-15
-4.23535e-14
0
-1.06593e-14
0
-1.1792e-14
-1.22503e-14
0
0
0
-1.34424e-14
-1.36079e-14
-1.37319e-14
0
0
0
-1.39023e-14
0
-1.38329e-14
-1.37673e-14
-4.74682e-15
-9.50725e-14
-9.37908e-15
6.70276e-29
1.31125e-28
3.0435e-14
-4.18367e-14
-4.19375e-14
0
2.91498e-14
1.58015e-14
-6.92248e-30
-4.14501e-14
-2.77891e-14
-1.35317e-14
2.7231e-14
-1.35983e-14
9.93288e-29
2.67042e-14
9.45066e-29
-2.94079e-29
3.02788e-14
-8.22697e-29
-3.02296e-14
0
2.99163e-14
2.96947e-14
-2.94406e-14
-2.91625e-14
2.88684e-14
-5.63067e-28
-1.79671e-28
1.00303e-28
8.99811e-29
7.53664e-28
-9.61017e-29
1.40155e-28
-2.6839e-14
-9.14191e-29
-2.74545e-28
-3.16287e-29
-8.96383e-14
-1.90534e-28
-6.68435e-29
2.0978e-28
2.93987e-14
-2.92345e-14
-2.90381e-14
0
2.8576e-14
2.83241e-14
-8.4333e-29
-2.78126e-14
-2.7567e-14
1.87806e-28
2.71347e-14
-5.9873e-30
5.95858e-30
2.67554e-14
-2.72943e-28
-3.1093e-29
-1.91111e-16
-8.40019e-15
-2.89991e-14
0
2.88922e-14
3.93607e-14
-3.96364e-14
-5.11931e-14
2.82839e-14
1.1934e-14
1.61059e-28
1.23203e-14
-2.49076e-14
-1.25542e-14
-2.5254e-14
1.26765e-14
-2.68205e-14
0
-1.83792e-28
0
2.81874e-14
8.33148e-15
-2.84189e-14
1.24388e-28
1.02436e-28
1.04073e-14
6.73173e-14
-2.81403e-14
-5.60051e-14
3.9541e-14
-2.45246e-28
3.95614e-14
2.73331e-14
1.22668e-14
-2.70124e-14
-4.13909e-14
2.67955e-14
2.67546e-14
9.1937e-29
-3.06496e-29
-9.49231e-29
8.38729e-15
1.24078e-28
0
-1.3542e-28
-1.03337e-14
1.07015e-14
2.20402e-14
0
-1.15138e-14
-2.97474e-28
-1.18315e-14
2.3867e-14
1.20048e-14
2.41062e-14
-1.20873e-14
0
1.68517e-28
5.36515e-28
-1.76626e-30
-2.70469e-14
9.36934e-29
-6.75237e-30
1.17231e-28
2.75235e-14
-2.75614e-14
-2.757e-14
0
2.75088e-14
2.74449e-14
-3.61443e-28
-2.7267e-14
-2.71598e-14
0
2.69299e-14
-1.70536e-29
-1.56273e-28
2.67095e-14
1.00817e-28
-2.12515e-30
8.36694e-15
0
1.12682e-28
0
-4.88758e-29
-1.14914e-28
0
0
0
-1.71819e-28
-1.72782e-29
-7.93954e-29
0
0
0
-7.93485e-29
0
5.39727e-28
7.91241e-29
2.84133e-29
-4.9636e-14
1.68681e-14
3.41681e-29
-3.18768e-29
2.68242e-14
-3.76699e-14
-3.79871e-14
0
2.71632e-14
1.5821e-14
1.59147e-29
-3.8621e-14
-2.7108e-14
-1.14621e-14
2.69885e-14
-1.13121e-14
-1.04609e-28
2.67003e-14
-1.55186e-28
-8.8593e-31
1.58823e-14
-1.00317e-14
-1.57297e-14
0
3.74595e-14
2.67506e-14
-3.80963e-14
-2.69941e-14
2.70663e-14
-5.53824e-28
1.14718e-14
-6.02564e-30
-7.87534e-29
-1.14205e-14
-7.79158e-29
1.4765e-28
-2.69795e-14
1.0725e-14
1.03561e-14
3.70525e-15
-3.38443e-14
-2.5477e-14
-2.58354e-14
0
2.6416e-14
2.66353e-14
-2.68088e-14
-2.69399e-14
2.70337e-14
-3.30217e-28
1.86775e-28
3.35972e-29
7.90076e-29
2.65743e-28
7.81916e-29
2.6488e-28
-2.72885e-14
0
0
0
4.54335e-14
-4.19637e-15
-4.20671e-14
6.98365e-15
-1.16438e-14
2.87678e-14
5.00995e-14
-1.70836e-14
-3.07704e-14
0
1.13623e-15
5.22739e-14
5.42911e-14
4.80661e-14
-1.19639e-14
-6.34243e-14
-4.4945e-14
7.53904e-14
-2.03883e-14
3.78435e-14
-2.00143e-15
-4.71668e-14
-4.67731e-14
6.71513e-14
5.44033e-14
6.5405e-14
-6.51477e-15
-4.90075e-14
-2.33568e-15
6.82975e-15
-5.39887e-47
1.74812e-14
-1.42215e-14
-4.07912e-14
3.16707e-14
-5.06504e-14
-2.59265e-14
5.7367e-14
-3.71996e-15
8.37317e-14
1.94961e-14
2.45795e-14
0
-2.73749e-14
-2.18835e-14
9.2852e-15
-2.17857e-14
-9.08622e-15
-1.55375e-14
-7.32355e-14
-3.84935e-14
2.24553e-14
6.32987e-14
-2.11513e-14
-2.83665e-14
1.66425e-14
2.53978e-14
1.47152e-14
3.56913e-14
-3.43646e-14
-5.11406e-47
-6.53346e-15
2.35993e-14
2.02312e-14
-6.59256e-14
-2.01344e-14
6.34776e-14
-4.52487e-14
9.04513e-15
1.02297e-13
1.80991e-14
-2.34286e-15
4.22535e-16
4.14629e-15
-3.27824e-14
8.61886e-15
-1.31015e-15
-7.73707e-14
-4.4963e-14
4.6529e-14
1.36101e-15
-1.28282e-14
-1.90678e-14
6.08983e-14
8.99247e-15
-7.16528e-14
4.71562e-14
5.09934e-14
-4.8729e-14
-1.15706e-13
2.03091e-15
4.34362e-14
5.36343e-14
-4.06687e-14
3.02506e-14
1.00499e-14
5.1257e-14
1.28168e-13
2.52304e-14
-5.36521e-14
-3.37933e-15
4.93916e-14
3.35179e-14
-5.42763e-14
-5.09643e-14
6.31596e-14
4.446e-14
2.30844e-14
2.42677e-14
2.15944e-16
-3.7211e-14
-4.21042e-14
-1.87506e-14
-1.89406e-14
-5.73878e-14
-4.14778e-14
3.92297e-14
3.92525e-14
7.1863e-14
1.26799e-14
1.97789e-14
1.98255e-14
-1.5114e-14
5.35133e-16
-4.65716e-14
-1.00804e-14
4.37709e-14
-3.70481e-17
-4.06702e-17
-5.68795e-15
-4.51178e-47
2.15507e-15
3.48891e-15
1.88989e-14
5.01265e-15
7.85449e-16
6.09617e-15
-2.25872e-14
-1.5454e-14
3.62857e-14
-4.41111e-47
0
-1.08809e-14
0
-5.06849e-14
1.50748e-14
7.09812e-14
6.11068e-14
-2.76984e-14
-8.3967e-14
-8.03335e-16
5.11288e-14
6.66755e-15
1.33213e-15
-3.9884e-14
-7.08231e-14
7.7671e-14
7.03958e-15
2.59584e-14
2.4785e-14
-1.63854e-14
-4.97989e-14
1.28576e-14
1.83277e-14
1.99009e-14
-5.42869e-14
1.60181e-15
5.1071e-14
-8.72395e-15
-8.68363e-15
3.27902e-18
5.39727e-15
2.79645e-14
-7.01363e-15
-5.27965e-14
0
-1.76546e-14
2.15023e-14
4.50023e-14
-2.84327e-14
-4.45896e-14
2.88978e-14
4.71967e-14
-3.00727e-14
-2.4915e-14
-8.92062e-15
0
-1.01414e-14
1.0296e-14
-8.09961e-17
4.72164e-14
2.03612e-14
5.86245e-16
2.31058e-14
7.71581e-15
-2.74072e-14
4.67512e-16
-1.17508e-14
2.16955e-14
-3.59962e-15
)
;

boundaryField
{
    left
    {
        type            symmetryPlane;
    }
    right
    {
        type            calculated;
        value           nonuniform List<scalar> 
30
(
2.14881e-16
-2.16411e-16
3.6959e-19
8.26382e-17
-2.58868e-16
1.86145e-16
1.13307e-16
3.9425e-16
-7.65708e-17
-3.27721e-16
-1.68914e-17
1.06759e-30
-2.38517e-16
-2.45819e-16
5.03741e-16
1.86312e-30
-1.63837e-30
2.69978e-16
-2.77364e-16
1.44803e-31
-2.03506e-30
-2.11456e-30
0
7.99523e-32
5.16478e-30
2.70764e-30
2.91249e-30
-1.0404e-31
5.41217e-16
0
)
;
    }
    down
    {
        type            symmetryPlane;
    }
    up
    {
        type            calculated;
        value           nonuniform List<scalar> 
30
(
4.72164e-14
2.03612e-14
5.86245e-16
2.31058e-14
7.71581e-15
-2.74072e-14
4.67512e-16
-1.17508e-14
2.16955e-14
-3.59962e-15
-3.38443e-14
-2.5477e-14
-2.58354e-14
0
2.6416e-14
2.66353e-14
-2.68088e-14
-2.69399e-14
2.70337e-14
-3.30217e-28
1.86775e-28
3.35972e-29
7.90076e-29
2.65743e-28
7.81916e-29
2.6488e-28
-2.72885e-14
0
0
0
)
;
    }
    hole
    {
        type            calculated;
        value           nonuniform List<scalar> 
20
(
-6.59468e-14
-8.10192e-14
0
-6.17989e-14
-3.69373e-14
-1.2796e-13
1.56555e-13
2.84554e-13
1.71944e-13
1.86126e-13
2.66967e-15
6.50674e-15
6.11925e-15
-8.23309e-15
-6.06869e-15
4.03378e-14
2.61665e-14
5.34341e-14
-1.75147e-14
-7.68223e-15
)
;
    }
    frontAndBack
    {
        type            empty;
    }
}


// ************************************************************************* //
