/*--------------------------------*- C++ -*----------------------------------*\
  =========                 |
  \\      /  F ield         | OpenFOAM: The Open Source CFD Toolbox
   \\    /   O peration     | Website:  https://openfoam.org
    \\  /    A nd           | Version:  9
     \\/     M anipulation  |
\*---------------------------------------------------------------------------*/
FoamFile
{
    format      ascii;
    class       volScalarField;
    location    "840";
    object      sigmaxz;
}
// * * * * * * * * * * * * * * * * * * * * * * * * * * * * * * * * * * * * * //

dimensions      [1 -1 -2 0 0 0 0];

internalField   nonuniform List<scalar> 
1000
(
-7.19865e-14
-1.13566e-13
1.41187e-13
2.26862e-14
-1.31808e-13
-1.03089e-15
-1.53806e-13
9.22794e-14
-9.27389e-14
0
-1.17672e-13
0
1.32872e-13
-2.28954e-13
-9.89416e-14
8.51165e-14
7.78442e-14
1.62763e-13
0
0
0
0
1.29112e-13
-2.53533e-14
-1.89461e-16
-8.2032e-14
7.18063e-14
-6.84315e-14
1.56552e-14
-1.10684e-14
-7.25435e-14
6.10732e-14
-6.26578e-14
-2.37618e-14
8.1605e-14
-8.2805e-14
-7.34452e-14
-1.64714e-13
-4.349e-14
4.55975e-14
-4.41701e-14
-1.59993e-15
-1.91425e-13
1.11632e-14
-1.28324e-14
7.52143e-14
1.10886e-15
5.96699e-14
-5.78079e-14
-4.41431e-14
-1.38925e-13
-1.41662e-15
8.61546e-16
9.93934e-15
-8.75515e-14
2.28185e-16
6.75191e-14
1.5408e-13
2.72803e-14
-5.60647e-14
1.70427e-13
3.82101e-14
6.08963e-14
-9.09531e-15
7.45205e-14
-6.96228e-14
-1.50018e-15
-5.80406e-14
7.14184e-15
-2.74309e-14
2.9816e-13
-1.50608e-13
8.17281e-16
1.30287e-14
1.56704e-13
-2.75381e-15
1.63254e-17
-5.41531e-14
-2.50285e-15
2.30926e-15
1.75528e-13
-1.60609e-13
1.19349e-14
1.1941e-14
-4.79567e-15
6.71718e-14
-1.87149e-16
1.08528e-13
2.4541e-14
1.8861e-14
1.89466e-13
-5.77537e-15
6.24543e-14
2.77392e-15
-7.09179e-17
6.71461e-14
-4.09493e-17
5.32774e-14
1.04612e-15
-3.66927e-16
6.56398e-15
8.23394e-15
-6.85153e-15
0
-1.32063e-14
-4.33259e-15
2.27776e-14
1.04332e-14
1.94757e-14
5.94189e-15
-3.61797e-15
1.82888e-14
-1.70238e-14
-3.98792e-15
0
-2.03505e-14
2.31689e-14
1.01001e-16
-7.04046e-14
9.05307e-15
-4.56609e-15
2.65403e-14
2.37605e-14
-2.99301e-15
0
-3.53046e-14
-4.7782e-14
4.18742e-14
2.0425e-17
-4.24826e-14
1.92973e-14
1.80695e-15
3.26195e-14
0
-4.45602e-14
2.21467e-14
-1.9817e-14
-3.91403e-14
1.71442e-14
3.25334e-14
-3.94213e-14
-5.43126e-14
-4.04042e-14
-2.22209e-16
8.78958e-17
4.63259e-14
2.5273e-14
0
-5.36467e-14
1.74422e-14
-1.89593e-14
1.78889e-14
-4.16926e-14
2.03339e-15
7.63244e-14
-5.82415e-14
1.08212e-16
-6.66742e-14
1.77445e-17
-5.52513e-14
2.64687e-14
5.39973e-16
4.68477e-16
-9.11443e-14
4.53934e-17
-7.61856e-14
1.3686e-13
7.55979e-17
1.44167e-14
-4.16292e-14
1.22274e-13
3.39434e-14
-1.20593e-14
5.83378e-15
-1.38628e-16
7.63702e-14
-1.26004e-14
1.83451e-14
1.30633e-14
4.25359e-14
4.53557e-14
3.29184e-15
7.69633e-16
1.17447e-13
9.63385e-14
8.57447e-14
1.14576e-14
-1.03883e-13
3.94868e-14
2.81594e-14
-8.32248e-15
-2.65399e-14
-6.22247e-14
2.53097e-13
1.24126e-16
-8.80229e-14
-6.53004e-14
-3.65891e-14
-3.2102e-14
6.64392e-14
4.87645e-14
3.7595e-15
-7.83758e-14
-2.80573e-14
-4.67557e-15
0
0
3.18197e-14
1.39137e-15
6.59377e-14
3.77093e-15
-1.42733e-15
3.35461e-15
-1.03048e-13
3.3427e-14
1.22975e-16
-3.41679e-14
3.37451e-14
-6.49139e-14
-3.33941e-14
7.90181e-14
1.12337e-14
-2.23205e-14
9.67862e-14
-2.4062e-15
-9.6717e-14
9.39718e-15
0
3.46894e-15
7.96744e-15
5.03818e-14
7.15927e-16
-2.89694e-14
3.41275e-14
3.46983e-14
-3.41058e-14
-3.40589e-14
-6.73114e-14
-6.03428e-16
1.99054e-14
2.68697e-14
1.08079e-14
-8.66853e-14
1.80859e-14
1.07322e-13
-1.00729e-13
-3.4009e-14
6.48423e-14
-5.15552e-14
-6.81147e-14
6.54212e-14
1.00645e-13
7.37383e-16
-3.40692e-14
3.34855e-14
1.17759e-16
-3.38217e-14
2.92596e-14
1.41538e-14
2.50315e-17
0
1.35226e-14
3.08583e-14
3.51228e-14
0
-2.05456e-14
-5.20503e-14
-6.54084e-14
-1.20264e-14
5.01508e-14
1.76551e-14
1.75057e-14
-1.09154e-14
2.62146e-14
2.72631e-14
-3.35134e-14
-1.04876e-16
9.36995e-14
-2.66134e-14
-3.57853e-14
3.69056e-14
-1.88057e-14
-8.38189e-14
4.46248e-14
1.13495e-13
-3.46183e-14
0
3.31103e-14
-3.37695e-14
-4.5253e-14
-4.39925e-14
-5.90213e-14
6.77022e-14
9.12137e-14
9.05336e-15
-2.44558e-14
1.59824e-14
7.61729e-15
7.76044e-14
2.98594e-14
3.25406e-14
1.98469e-15
-5.47009e-14
-1.40978e-13
4.74159e-14
7.02697e-14
-3.38658e-14
1.72245e-14
7.95155e-14
-9.79346e-14
-3.60014e-14
1.40679e-13
-2.37572e-14
-9.81243e-14
-2.22958e-14
-8.62661e-14
-1.28089e-15
1.04531e-13
2.33524e-14
5.16174e-15
-3.50145e-14
3.5955e-14
2.5333e-14
-3.64969e-14
-4.0565e-14
1.92402e-14
7.44566e-14
-1.22577e-13
-7.55661e-14
1.1641e-13
-2.99088e-14
9.68252e-14
6.20581e-14
-8.18804e-14
2.37046e-14
2.68812e-15
-1.15988e-13
3.10755e-14
4.09567e-14
3.11309e-15
2.96429e-15
-3.72762e-14
-1.34618e-14
0
0
-9.44797e-14
9.69857e-14
1.95226e-13
-1.53668e-13
-1.22111e-13
6.41684e-14
1.33629e-14
4.87699e-14
1.09141e-13
3.66343e-15
-2.27468e-14
0
-2.50896e-14
1.11588e-14
1.05804e-14
-3.46591e-15
2.94232e-14
-3.1514e-14
-3.02438e-14
9.41839e-14
5.88429e-14
-8.19168e-14
-2.30087e-14
1.94449e-14
2.46901e-14
-6.58571e-14
2.09268e-15
-7.27485e-14
-3.25733e-15
3.10745e-14
-2.3186e-15
1.01558e-13
-1.27801e-14
-1.2873e-13
-2.33678e-14
-4.93128e-15
-3.29442e-14
4.0507e-14
-1.12743e-13
-1.09004e-13
7.06904e-14
7.51297e-14
9.61802e-14
-8.20562e-14
1.65166e-17
-1.94355e-15
-8.79766e-14
0
-2.83156e-14
-1.13444e-16
-5.12666e-14
2.83635e-14
3.07134e-14
1.11389e-15
-8.05088e-15
5.11003e-14
-3.47996e-14
-2.28985e-14
3.16396e-14
-4.8271e-14
-3.45541e-14
-5.75643e-14
-4.03811e-15
1.02111e-13
-5.58124e-15
4.8682e-14
-4.15885e-15
0
-1.87776e-14
1.78542e-14
-1.52745e-15
-9.64404e-15
2.97237e-16
-2.96552e-16
-2.9158e-16
4.3002e-14
0
-3.48138e-14
6.38045e-28
7.69568e-29
4.82058e-28
5.58936e-28
-3.0226e-14
0
2.89158e-14
-2.26238e-28
-2.78556e-14
2.7403e-14
2.97217e-28
-2.66246e-14
-1.82365e-28
2.59944e-14
2.57356e-14
-1.19634e-28
-3.97945e-29
1.83655e-14
-1.84314e-14
-5.34542e-14
0
1.45023e-14
-4.5056e-15
-4.94183e-14
-6.62306e-14
2.98801e-14
-3.45569e-14
-1.70123e-14
-3.3522e-14
-3.30561e-14
-1.63145e-14
-3.22383e-14
-3.18782e-14
-2.61735e-14
-1.5603e-14
-1.54312e-14
-5.08097e-15
1.60563e-13
1.66259e-14
-8.62804e-14
1.31989e-27
4.87195e-14
0
1.73194e-14
-6.15258e-14
1.4773e-27
5.89141e-14
-1.67688e-14
-1.89156e-28
-1.14791e-27
1.62871e-14
-5.56445e-28
-5.32826e-14
4.59665e-28
3.64456e-14
-1.55461e-14
-5.12453e-15
2.87691e-14
4.98762e-14
3.11371e-14
1.68815e-28
6.53659e-14
-1.5754e-14
-1.49596e-14
3.312e-14
3.0167e-14
4.60683e-14
3.28813e-14
-1.21069e-14
4.54963e-15
1.61621e-14
5.92396e-14
1.59452e-14
5.8761e-30
5.76203e-14
3.11286e-14
1.02729e-14
-1.58197e-14
-1.3676e-14
-3.37095e-14
0
3.25797e-14
4.74854e-14
-4.70877e-14
-3.07339e-14
3.01384e-14
1.60425e-14
3.17607e-28
1.60471e-14
0
-1.59631e-14
0
1.58194e-14
-2.65731e-14
1.98006e-28
1.06715e-28
5.3806e-30
3.60036e-14
1.25252e-14
-3.30991e-14
7.07899e-28
-1.8404e-28
1.46872e-14
1.50037e-14
-3.05593e-14
0
4.50541e-14
-8.05682e-28
-1.28103e-14
2.80605e-14
1.57118e-14
-2.72712e-14
1.56342e-14
2.66599e-14
2.64403e-14
-1.05868e-28
-9.50787e-29
1.07655e-14
1.15723e-14
1.22941e-14
0
1.3478e-14
0
1.43288e-14
0
0
0
1.52311e-14
0
0
1.54278e-14
0
0
0
1.52963e-14
1.5212e-14
5.03745e-15
-4.35045e-14
0
-1.1538e-14
0
-1.27854e-14
-1.3294e-14
0
0
0
-1.46355e-14
-1.48244e-14
-1.49662e-14
0
0
0
-1.51573e-14
0
-1.50818e-14
-1.50138e-14
-4.97716e-15
-9.58776e-14
-1.01981e-14
6.47223e-29
1.25727e-28
3.05979e-14
-4.30542e-14
-4.31973e-14
0
2.9283e-14
1.46986e-14
1.32055e-30
-4.28209e-14
-2.78692e-14
-1.48284e-14
2.72655e-14
-1.48967e-14
1.08217e-28
2.66414e-14
1.03512e-28
-2.92658e-29
3.03729e-14
-7.15169e-29
-3.03331e-14
0
3.00213e-14
2.97984e-14
-2.95421e-14
-2.92611e-14
2.89635e-14
-5.81669e-28
-1.97234e-28
9.17607e-29
9.91721e-29
7.73634e-28
-8.7043e-29
1.35571e-28
-2.68157e-14
-1.00639e-28
-2.83084e-28
-3.33365e-29
-8.99649e-14
-1.99388e-28
-7.31612e-29
2.1007e-28
2.94429e-14
-2.92815e-14
-2.90872e-14
0
2.86284e-14
2.83779e-14
-9.34291e-29
-2.7867e-14
-2.76187e-14
1.88116e-28
2.71671e-14
-5.99e-30
5.955e-30
2.67025e-14
-2.81887e-28
-3.28776e-29
-3.11193e-16
-9.27109e-15
-2.89663e-14
0
2.88735e-14
4.04853e-14
-4.08261e-14
-5.36973e-14
2.82889e-14
1.32868e-14
1.80271e-28
1.3753e-14
-2.78317e-14
-1.40367e-14
-2.82392e-14
1.4169e-14
-2.68131e-14
0
-1.83181e-28
0
2.81723e-14
9.23096e-15
-2.83164e-14
1.16631e-28
9.83549e-29
1.15771e-14
6.84165e-14
-2.8083e-14
-5.59095e-14
4.09057e-14
-2.75231e-28
4.1047e-14
2.7335e-14
1.38336e-14
-2.70348e-14
-3.98418e-14
2.68005e-14
2.67237e-14
9.16536e-29
-3.05438e-29
-9.42395e-29
9.32067e-15
1.38015e-28
0
-1.50984e-28
-1.15385e-14
1.19698e-14
2.47014e-14
0
-1.29653e-14
-2.8602e-28
-1.33969e-14
2.71012e-14
1.36671e-14
2.74998e-14
-1.38031e-14
0
1.92066e-28
5.5876e-28
2.83157e-30
-2.67739e-14
9.28073e-29
-1.841e-29
1.08085e-28
2.73082e-14
-2.7358e-14
-2.73779e-14
0
2.73402e-14
2.72899e-14
-3.70782e-28
-2.71477e-14
-2.70649e-14
0
2.68988e-14
-4.20516e-30
-1.82236e-28
2.67201e-14
8.75309e-29
3.68505e-31
9.31088e-15
0
1.19842e-28
0
-4.86635e-29
-1.0429e-28
0
0
0
-1.81637e-28
-5.8343e-30
-9.1002e-29
0
0
0
-9.3355e-29
0
5.55447e-28
9.36951e-29
3.1233e-29
-4.89455e-14
1.54165e-14
3.35431e-29
-3.59757e-29
2.64812e-14
-3.86418e-14
-3.90299e-14
0
2.68604e-14
1.39693e-14
3.8846e-30
-4.00564e-14
-2.68441e-14
-1.33739e-14
2.67777e-14
-1.34878e-14
-8.80711e-29
2.67008e-14
-1.91013e-28
-1.00302e-30
1.4367e-14
-1.11222e-14
-1.41447e-14
0
3.83178e-14
2.63626e-14
-3.90844e-14
-2.66224e-14
2.66986e-14
-5.46348e-28
1.30852e-14
-5.944e-30
-9.10527e-29
-1.33256e-14
-9.19705e-29
1.37653e-28
-2.66915e-14
1.35042e-14
1.35168e-14
4.50718e-15
-3.44249e-14
-2.49617e-14
-2.53453e-14
0
2.59649e-14
2.61978e-14
-2.63805e-14
-2.65162e-14
2.66096e-14
-3.19202e-28
1.8375e-28
3.9306e-29
9.08284e-29
2.74877e-28
9.16853e-29
2.75601e-28
-2.66542e-14
0
0
0
4.58479e-14
-3.95545e-15
-4.22121e-14
7.03311e-15
-1.22144e-14
2.81333e-14
5.20456e-14
-1.76594e-14
-3.15595e-14
0
1.19221e-15
5.30734e-14
5.52277e-14
4.95899e-14
-1.2554e-14
-6.40329e-14
-4.72984e-14
7.76124e-14
-2.14133e-14
3.87068e-14
-2.10508e-15
-4.77064e-14
-4.73234e-14
6.77953e-14
5.54275e-14
6.5987e-14
-6.75205e-15
-4.89467e-14
-2.42939e-15
8.03062e-15
-5.41436e-47
1.74151e-14
-1.49887e-14
-4.2033e-14
3.23932e-14
-5.13672e-14
-2.43314e-14
5.85316e-14
-3.85278e-15
8.52545e-14
1.95309e-14
2.49145e-14
0
-2.78559e-14
-2.20687e-14
9.83727e-15
-2.30921e-14
-1.0809e-14
-1.64315e-14
-7.65492e-14
-3.85104e-14
2.26311e-14
6.36802e-14
-2.12525e-14
-2.89414e-14
1.76912e-14
2.57333e-14
1.44085e-14
3.79968e-14
-3.49733e-14
-5.10822e-47
-6.95784e-15
2.386e-14
2.02867e-14
-6.62942e-14
-2.02535e-14
6.36628e-14
-4.53888e-14
1.09425e-14
1.04714e-13
1.80052e-14
-2.48943e-15
4.28008e-16
4.46835e-15
-3.36898e-14
7.74596e-15
-1.34273e-15
-7.82962e-14
-4.84348e-14
4.67459e-14
1.45846e-15
-1.23259e-14
-1.90223e-14
6.08793e-14
9.80067e-15
-7.24086e-14
4.90858e-14
4.97907e-14
-5.23796e-14
-1.19147e-13
2.18236e-15
4.36999e-14
5.31515e-14
-4.0587e-14
3.24564e-14
1.10336e-14
5.15661e-14
1.29666e-13
2.73455e-14
-5.34965e-14
-3.63971e-15
4.85368e-14
3.30282e-14
-5.36634e-14
-5.17444e-14
6.47533e-14
4.45441e-14
2.50843e-14
2.64224e-14
2.35607e-16
-3.6974e-14
-4.22601e-14
-1.86009e-14
-1.88117e-14
-5.85832e-14
-4.13622e-14
3.8632e-14
3.86784e-14
7.15858e-14
1.22485e-14
1.97392e-14
1.9791e-14
-1.46462e-14
5.37067e-16
-4.67734e-14
-1.11832e-14
4.16626e-14
-4.05247e-17
-4.46236e-17
-3.36755e-15
-4.44656e-47
2.3329e-15
3.78088e-15
1.86839e-14
5.50756e-15
7.84472e-16
6.75051e-15
-2.25076e-14
-1.7004e-14
3.70609e-14
-4.33537e-47
0
-1.18007e-14
0
-5.1241e-14
1.6307e-14
7.1127e-14
5.99229e-14
-2.76346e-14
-8.4674e-14
-8.70125e-16
5.01255e-14
7.32025e-15
1.32457e-15
-3.92843e-14
-7.12984e-14
7.83871e-14
7.83757e-15
2.85288e-14
2.46484e-14
-1.59983e-14
-4.8645e-14
1.38908e-14
1.61811e-14
2.16616e-14
-5.49817e-14
1.59629e-15
5.13392e-14
-9.62749e-15
-9.63154e-15
3.54686e-18
5.83968e-15
2.48303e-14
-7.49999e-15
-5.15506e-14
0
-1.92948e-14
2.11298e-14
4.43126e-14
-2.79581e-14
-4.29515e-14
2.76613e-14
4.57214e-14
-2.70147e-14
-2.50917e-14
-9.69265e-15
0
-1.10897e-14
1.1303e-14
-8.93358e-17
4.57182e-14
1.85052e-14
2.40474e-15
2.31126e-14
6.43889e-15
-2.76842e-14
4.54966e-16
-1.27633e-14
2.11452e-14
-6.29015e-15
)
;

boundaryField
{
    left
    {
        type            symmetryPlane;
    }
    right
    {
        type            calculated;
        value           nonuniform List<scalar> 
30
(
4.23856e-29
-2.82571e-29
0
1.41285e-29
0
7.06427e-30
1.76607e-30
1.41285e-29
0
-3.53213e-30
-1.10379e-31
5.01946e-44
-1.76607e-30
-1.76607e-30
1.05964e-29
0
5.01946e-44
0
0
0
-1.25487e-44
-1.25487e-44
0
1.25487e-44
1.56858e-45
1.96073e-46
0
-3.92146e-46
0
0
)
;
    }
    down
    {
        type            symmetryPlane;
    }
    up
    {
        type            calculated;
        value           nonuniform List<scalar> 
30
(
4.57182e-14
1.85052e-14
2.40474e-15
2.31126e-14
6.43889e-15
-2.76842e-14
4.54966e-16
-1.27633e-14
2.11452e-14
-6.29015e-15
-3.44249e-14
-2.49617e-14
-2.53453e-14
0
2.59649e-14
2.61978e-14
-2.63805e-14
-2.65162e-14
2.66096e-14
-3.19202e-28
1.8375e-28
3.9306e-29
9.08284e-29
2.74877e-28
9.16853e-29
2.75601e-28
-2.66542e-14
0
0
0
)
;
    }
    hole
    {
        type            calculated;
        value           nonuniform List<scalar> 
20
(
-6.90045e-14
-8.13552e-14
0
-6.26854e-14
-3.66497e-14
-1.29751e-13
1.61723e-13
2.91273e-13
1.7555e-13
1.90324e-13
2.64365e-15
7.17188e-15
6.80922e-15
-9.66746e-15
-5.14176e-15
4.48413e-14
2.72975e-14
5.24784e-14
-2.2187e-14
-8.03527e-15
)
;
    }
    frontAndBack
    {
        type            empty;
    }
}


// ************************************************************************* //
