# vtk DataFile Version 2.0
sampleSurface
ASCII
DATASET POLYDATA
POINTS 189 float
-4 0 0 -5 0 0 -5 0 1 -4 0
1 -3 0 0 -3 0 1 -2 0 0
-2 0 1 -1 0 0 -1 0 1 0
0 0 0 0 1 1 0 0 1 0
1 2 0 0 2 0 1 3 0 0
3 0 1 4 0 0 4 0 1 5
0 0 5 0 1 6 0 0 6 0
1 7 0 0 7 0 1 8 0 0
8 0 1 9 0 0 9 0 1 10
0 0 10 0 1 11 0 0 11 0
1 12 0 0 12 0 1 13 0 0
13 0 1 14 0 0 14 0 1 15
0 1 15 0 0 -5 0 2 -4 0
2 -3 0 2 -2 0 2 -1 0 2
0 0 2 1 0 2 2 0 2 3
0 2 4 0 2 5 0 2 6 0
2 7 0 2 8 0 2 9 0 2
10 0 2 11 0 2 12 0 2 13
0 2 14 0 2 15 0 2 -5 0
3 -4 0 3 -3 0 3 -2 0 3
-1 0 3 0 0 3 1 0 3 2
0 3 3 0 3 4 0 3 5 0
3 6 0 3 7 0 3 8 0 3
9 0 3 10 0 3 11 0 3 12
0 3 13 0 3 14 0 3 15 0
3 -5 0 4 -4 0 4 -3 0 4
-2 0 4 -1 0 4 0 0 4 1
0 4 2 0 4 3 0 4 4 0
4 5 0 4 6 0 4 7 0 4
8 0 4 9 0 4 10 0 4 11
0 4 12 0 4 13 0 4 14 0
4 15 0 4 -5 0 5 -4 0 5
-3 0 5 -2 0 5 -1 0 5 0
0 5 1 0 5 2 0 5 3 0
5 4 0 5 5 0 5 6 0 5
7 0 5 8 0 5 9 0 5 10
0 5 11 0 5 12 0 5 13 0
5 14 0 5 15 0 5 -5 0 6
-4 0 6 -3 0 6 -2 0 6 -1
0 6 0 0 6 1 0 6 2 0
6 3 0 6 4 0 6 5 0 6
6 0 6 7 0 6 8 0 6 9
0 6 10 0 6 11 0 6 12 0
6 13 0 6 14 0 6 15 0 6
-5 0 7 -4 0 7 -3 0 7 -2
0 7 -1 0 7 0 0 7 1 0
7 2 0 7 3 0 7 4 0 7
5 0 7 6 0 7 7 0 7 8
0 7 9 0 7 10 0 7 11 0
7 12 0 7 13 0 7 14 0 7
15 0 7 -5 0 8 -4 0 8 -3
0 8 -2 0 8 -1 0 8 0 0
8 1 0 8 2 0 8 3 0 8
4 0 8 5 0 8 6 0 8 7
0 8 8 0 8 9 0 8 10 0
8 11 0 8 12 0 8 13 0 8
14 0 8 15 0 8 
POLYGONS 160 800
4 0 1 2 3 4 4 0 3 5 4
6 4 5 7 4 8 6 7 9 4
10 8 9 11 4 12 10 11 13 4
14 12 13 15 4 16 14 15 17 4
18 16 17 19 4 20 18 19 21 4
22 20 21 23 4 24 22 23 25 4
26 24 25 27 4 28 26 27 29 4
30 28 29 31 4 32 30 31 33 4
34 32 33 35 4 36 34 35 37 4
38 36 37 39 4 40 41 38 39 4
3 2 42 43 4 5 3 43 44 4
7 5 44 45 4 9 7 45 46 4
11 9 46 47 4 13 11 47 48 4
15 13 48 49 4 17 15 49 50 4
19 17 50 51 4 21 19 51 52 4
23 21 52 53 4 25 23 53 54 4
27 25 54 55 4 29 27 55 56 4
31 29 56 57 4 33 31 57 58 4
35 33 58 59 4 37 35 59 60 4
39 37 60 61 4 62 40 39 61 4
43 42 63 64 4 44 43 64 65 4
45 44 65 66 4 46 45 66 67 4
47 46 67 68 4 48 47 68 69 4
49 48 69 70 4 50 49 70 71 4
51 50 71 72 4 52 51 72 73 4
53 52 73 74 4 54 53 74 75 4
55 54 75 76 4 56 55 76 77 4
57 56 77 78 4 58 57 78 79 4
59 58 79 80 4 60 59 80 81 4
61 60 81 82 4 83 62 61 82 4
64 63 84 85 4 65 64 85 86 4
66 65 86 87 4 67 66 87 88 4
68 67 88 89 4 69 68 89 90 4
70 69 90 91 4 71 70 91 92 4
72 71 92 93 4 73 72 93 94 4
74 73 94 95 4 75 74 95 96 4
76 75 96 97 4 77 76 97 98 4
78 77 98 99 4 79 78 99 100 4
80 79 100 101 4 81 80 101 102 4
82 81 102 103 4 104 83 82 103 4
85 84 105 106 4 86 85 106 107 4
87 86 107 108 4 88 87 108 109 4
89 88 109 110 4 90 89 110 111 4
91 90 111 112 4 92 91 112 113 4
93 92 113 114 4 94 93 114 115 4
95 94 115 116 4 96 95 116 117 4
97 96 117 118 4 98 97 118 119 4
99 98 119 120 4 100 99 120 121 4
101 100 121 122 4 102 101 122 123 4
103 102 123 124 4 125 104 103 124 4
106 105 126 127 4 107 106 127 128 4
108 107 128 129 4 109 108 129 130 4
110 109 130 131 4 111 110 131 132 4
112 111 132 133 4 113 112 133 134 4
114 113 134 135 4 115 114 135 136 4
116 115 136 137 4 117 116 137 138 4
118 117 138 139 4 119 118 139 140 4
120 119 140 141 4 121 120 141 142 4
122 121 142 143 4 123 122 143 144 4
124 123 144 145 4 146 125 124 145 4
127 126 147 148 4 128 127 148 149 4
129 128 149 150 4 130 129 150 151 4
131 130 151 152 4 132 131 152 153 4
133 132 153 154 4 134 133 154 155 4
135 134 155 156 4 136 135 156 157 4
137 136 157 158 4 138 137 158 159 4
139 138 159 160 4 140 139 160 161 4
141 140 161 162 4 142 141 162 163 4
143 142 163 164 4 144 143 164 165 4
145 144 165 166 4 167 146 145 166 4
148 147 168 169 4 149 148 169 170 4
150 149 170 171 4 151 150 171 172 4
152 151 172 173 4 153 152 173 174 4
154 153 174 175 4 155 154 175 176 4
156 155 176 177 4 157 156 177 178 4
158 157 178 179 4 159 158 179 180 4
160 159 180 181 4 161 160 181 182 4
162 161 182 183 4 163 162 183 184 4
164 163 184 185 4 165 164 185 186 4
166 165 186 187 4 167 166 187 188 
POINT_DATA 189
FIELD attributes 1
U 3 189 float
20 0 0 20 0 0 20 0 0 20 2.07292e-16
-2.77095e-16 20 0 0 20 -3.56189e-17 -1.10207e-15 20 0 0
20 -3.9238e-16 -1.48449e-15 20 0 0 20 -4.72064e-16 -9.45049e-16 20
0 0 20 -1.79174e-16 -2.10691e-16 20 0 0 20 -3.27053e-17
-2.93538e-16 20 0 0 20 -4.02804e-16 -7.86793e-16 20 0 0
20 -1.12546e-15 -1.22771e-15 20 0 0 20 -1.02276e-15 -1.10159e-15 20
0 0 20 -2.32251e-16 -4.29288e-16 20 0 0 20 2.16216e-16
-4.63406e-16 20 0 0 20 3.86629e-16 -5.27123e-16 20 0 0
20 4.27639e-16 -7.21178e-17 20 0 0 20 2.14386e-16 2.14542e-17 20
0 0 20 -2.3405e-16 7.98808e-17 20 0 0 20 -7.95979e-16
-2.58553e-17 20 0 0 20 -7.80235e-16 -5.74328e-16 20 0 0
20 -3.47603e-16 -7.45582e-16 20 0 0 20 7.85655e-18 -4.77407e-16 20
2.60636e-16 -4.21786e-16 20 3.13128e-16 -2.70901e-16 20 0 0 20 2.2177e-16
-6.62487e-17 20 -3.41304e-16 -4.24893e-16 20 -6.38203e-16 -6.163e-16 20 -3.03126e-16 -3.36329e-16
20 -1.12589e-16 3.41663e-16 20 8.07012e-18 2.52019e-16 20 -3.69846e-16 -4.07435e-16 20
-8.76601e-16 -7.91516e-16 20 -5.53022e-16 -2.97403e-16 20 3.0876e-16 2.3579e-16 20 5.07333e-16
5.19162e-17 20 3.37331e-16 -6.46028e-17 20 1.42132e-16 8.52796e-17 20 -1.6396e-16 3.79742e-16
20 -1.52092e-16 4.31983e-16 20 -4.18899e-16 -2.36855e-16 20 -5.44683e-16 -8.07105e-16 20
-1.88489e-16 -4.32549e-16 20 9.08287e-17 4.2565e-17 20 2.07433e-16 9.47691e-17 20 0
0 20 1.13346e-16 2.34526e-18 20 -4.5056e-16 2.92342e-16 20 -7.95801e-16 3.56671e-16
20 -4.62163e-16 2.10381e-16 20 -2.48449e-16 6.51879e-17 20 -6.01239e-17 -1.24306e-16 20
-1.86304e-16 -5.04492e-16 20 -4.62661e-16 -3.92107e-16 20 -1.04053e-17 1.21412e-16 20 6.57021e-16
5.88945e-17 20 5.60494e-16 1.23542e-17 20 2.65659e-16 5.49085e-17 20 2.97947e-17 -8.15116e-18
20 -1.95262e-16 2.83965e-16 20 3.75529e-17 4.67153e-16 20 1.21043e-17 -4.70897e-17 20
-2.02145e-16 -5.62564e-16 20 2.58118e-16 -1.14655e-16 20 7.131e-16 3.86331e-16 20 6.97045e-16
4.44184e-16 20 0 0 20 1.4394e-16 4.53492e-16 20 -3.21317e-16 1.04027e-15
20 -8.36232e-16 1.05215e-15 20 -6.65565e-16 5.93891e-16 20 -3.00876e-16 -1.5466e-16 20
-1.45203e-16 -4.48361e-16 20 -9.60821e-17 -2.17289e-16 20 -1.90811e-16 5.46758e-16 20 -1.39985e-17
6.88841e-16 20 3.16678e-16 1.21953e-16 20 1.42907e-16 6.72756e-18 20 2.38234e-17 -4.29776e-17
20 -1.6185e-16 -2.21533e-16 20 -1.67764e-16 -3.76543e-16 20 2.0754e-18 -2.28903e-16 20
-3.20773e-16 -2.18992e-17 20 -3.00716e-16 -1.78143e-16 20 2.15146e-16 -1.14166e-16 20 5.97167e-16
5.97192e-17 20 7.24926e-16 7.03381e-18 20 0 0 20 6.88044e-17 5.44513e-16
20 -1.53092e-16 8.90819e-16 20 -5.38723e-16 8.67876e-16 20 -4.02048e-16 6.3613e-16 20
-2.06161e-16 2.08554e-16 20 -3.41056e-16 2.39696e-17 20 -2.50742e-16 4.74274e-16 20 -5.0299e-17
1.35945e-15 20 -3.167e-17 1.44984e-15 20 2.07884e-17 1.07705e-15 20 -3.68298e-16 8.38242e-16
20 -5.41805e-16 2.97236e-16 20 -5.2635e-16 4.56709e-17 20 -4.86834e-16 -4.24541e-16 20
-2.72835e-16 -9.23468e-16 20 -5.67307e-16 -5.92516e-16 20 -4.92987e-16 -1.98396e-16 20 -1.74998e-16
-1.9765e-16 20 1.25463e-16 -4.63175e-16 20 4.58222e-16 -6.67993e-16 20 0 0
20 -1.49759e-16 -2.18539e-16 20 -3.63658e-16 -3.46264e-16 20 -4.77832e-16 -2.0249e-16 20
-4.61295e-16 1.48537e-16 20 -2.64091e-16 2.08668e-16 20 -4.2098e-16 -5.40693e-17 20 -5.78716e-16
-1.2119e-17 20 -2.58366e-16 3.93027e-16 20 7.75402e-18 4.27123e-16 20 7.10715e-17 4.53364e-16
20 -3.16655e-16 7.54839e-16 20 -7.84039e-16 6.51509e-16 20 -1.13676e-15 9.64585e-16 20
-1.10426e-15 7.63011e-16 20 -4.47822e-16 -4.51424e-16 20 -8.27331e-18 -7.68575e-16 20 -6.79979e-17
-6.33867e-16 20 -4.08652e-16 -8.35826e-16 20 -2.95625e-16 -1.02914e-15 20 -2.41872e-17 -1.04119e-15
20 0 0 20 -4.43362e-16 -2.86605e-16 20 -7.38376e-16 -4.37106e-16 20
-6.47226e-16 -3.15895e-16 20 -5.29033e-16 -6.17601e-17 20 -1.73152e-16 -5.5713e-17 20 -1.64087e-16
-4.70524e-16 20 -7.93021e-16 -7.641e-16 20 -8.99419e-16 -6.98118e-16 20 -2.21884e-16 -7.97698e-16
20 2.8164e-16 -8.08006e-16 20 1.13751e-16 -1.97337e-16 20 -4.02367e-16 5.09347e-16 20
-1.01251e-15 1.30387e-15 20 -1.09747e-15 1.39088e-15 20 -4.42303e-16 3.27433e-16 20 3.92294e-16
-3.07618e-16 20 3.25386e-16 -6.07092e-16 20 -5.36221e-16 -1.01532e-15 20 -7.84408e-16 -1.00402e-15
20 -7.15971e-16 -8.53271e-16 20 -1.57567e-16 0 20 -6.83071e-16 0 20
-9.5884e-16 0 20 -7.23432e-16 0 20 -4.91787e-16 0 20 -2.02717e-16
0 20 -9.53396e-17 0 20 -8.40839e-16 0 20 -1.23914e-15 0
20 -4.55111e-16 0 20 2.36973e-16 0 20 2.25068e-16 0 20
-1.47854e-16 0 20 -6.74465e-16 0 20 -8.2606e-16 0 20 -3.7584e-16
0 20 4.09734e-16 0 20 2.72983e-16 0 20 -7.95784e-16 0
20 -1.1296e-15 0 20 -1.04273e-15 -2.8858e-16 
