/*--------------------------------*- C++ -*----------------------------------*\
  =========                 |
  \\      /  F ield         | OpenFOAM: The Open Source CFD Toolbox
   \\    /   O peration     | Website:  https://openfoam.org
    \\  /    A nd           | Version:  9
     \\/     M anipulation  |
\*---------------------------------------------------------------------------*/
FoamFile
{
    format      ascii;
    class       volScalarField;
    location    "44";
    object      ddt0(h);
}
// * * * * * * * * * * * * * * * * * * * * * * * * * * * * * * * * * * * * * //

dimensions      [0 1 -1 0 0 0 0];

internalField   nonuniform List<scalar> 
400
(
3.22818e-07
2.75892e-07
1.92949e-07
9.58368e-08
4.33889e-08
2.31191e-08
8.65962e-09
-1.129e-08
2.55556e-09
3.13897e-08
4.02237e-08
5.4741e-08
3.41545e-08
5.1795e-08
5.03623e-08
3.73502e-08
3.37486e-08
2.92803e-08
3.18687e-08
2.04123e-08
2.89747e-07
2.5182e-07
1.76983e-07
1.06009e-07
5.53502e-08
2.23777e-08
-1.76614e-08
-1.71985e-09
-1.36659e-08
2.15925e-08
2.80574e-08
3.39288e-08
5.74383e-08
4.38008e-08
5.94493e-08
5.39221e-08
3.76613e-08
3.23863e-08
3.1675e-08
1.48262e-08
2.53765e-07
2.17171e-07
1.61061e-07
1.13498e-07
6.3034e-08
-9.10136e-09
-1.35055e-08
-7.13437e-09
4.05413e-09
-1.80169e-08
3.905e-08
8.84812e-09
4.41147e-08
4.89555e-08
3.92664e-08
4.8504e-08
3.7856e-08
1.90375e-08
2.56909e-09
-4.06999e-10
2.08141e-07
1.75195e-07
1.36612e-07
1.05795e-07
3.78668e-08
-1.16075e-08
1.89134e-08
-1.64715e-08
1.95333e-09
-1.43253e-08
-4.82087e-08
4.99603e-08
-1.27415e-08
2.47529e-08
2.29155e-08
1.65236e-08
2.617e-08
2.76805e-08
6.74048e-09
-6.32281e-09
1.58897e-07
1.25063e-07
1.03396e-07
7.56786e-08
1.59823e-08
2.67105e-08
-3.01088e-09
2.84062e-09
-7.64083e-08
5.15449e-08
-2.94446e-08
-3.81991e-08
7.06631e-08
-1.32451e-08
-1.56833e-08
2.3753e-09
1.20593e-08
1.49396e-08
-7.80593e-09
-1.28221e-08
1.06099e-07
7.41354e-08
6.04847e-08
4.33199e-08
1.98073e-08
1.35413e-08
1.01e-08
-9.66459e-08
7.14204e-08
-1.60087e-07
1.55128e-07
-1.29748e-07
-8.50465e-09
7.65461e-08
2.67608e-09
-1.49863e-08
4.19542e-09
3.5283e-09
-1.86292e-08
-1.5865e-08
5.2915e-08
2.4386e-08
2.31466e-08
2.13097e-08
-1.02769e-09
1.33285e-08
-6.52821e-08
-2.44994e-08
-2.85749e-08
-3.80544e-08
-3.06757e-07
2.67669e-07
-7.01059e-08
-1.74138e-09
4.40757e-08
1.40595e-08
1.14476e-08
2.42277e-10
-2.00188e-08
-1.32421e-08
4.08373e-09
-1.21285e-08
-6.64334e-09
-5.77406e-09
-1.69805e-08
-3.69872e-08
-4.18637e-08
-6.59861e-08
-1.02511e-07
3.73682e-07
3.06883e-06
-6.87241e-09
1.3215e-07
1.37399e-08
2.83627e-08
3.76819e-08
2.96292e-08
1.07116e-08
-6.04554e-09
-5.29877e-09
-2.91231e-08
-3.56373e-08
-3.092e-08
-3.18855e-08
-4.84089e-08
-5.08864e-08
-6.5055e-08
-3.02556e-08
2.4064e-08
-4.60215e-07
-3.12485e-06
-2.13128e-08
-1.49251e-07
4.43155e-09
2.62258e-08
6.00576e-08
1.07904e-07
3.95342e-08
1.18366e-08
-6.83995e-09
-4.61515e-08
-4.50587e-08
-5.48651e-08
-5.36904e-08
-5.89849e-08
-7.73423e-08
-2.3524e-08
-4.57324e-08
-6.17233e-08
-1.774e-08
1.11726e-07
-3.71367e-07
6.05753e-08
-2.99445e-09
9.73409e-10
4.54772e-08
1.51868e-08
3.61706e-08
1.6179e-08
1.33437e-08
-4.70324e-08
-4.52122e-08
-6.36454e-08
-6.80349e-08
-5.27424e-08
-7.12919e-08
-4.62668e-08
2.48343e-08
-1.13613e-07
-2.00485e-07
1.37619e-08
-5.85352e-08
-1.07736e-07
-6.00451e-08
2.47923e-08
5.14132e-08
4.1075e-08
2.32049e-08
1.09364e-08
3.17706e-09
-3.50183e-08
-3.28841e-08
-5.38933e-08
-6.22874e-08
-4.50769e-08
-4.60872e-08
-5.53472e-08
-1.15039e-08
-8.97833e-08
5.75156e-08
-1.90252e-06
1.25206e-07
-1.61448e-07
-3.64374e-08
3.46415e-08
5.012e-08
2.74787e-08
1.41274e-08
1.71562e-08
8.90094e-09
-1.1192e-08
-1.34212e-08
-2.23977e-08
-4.13044e-08
-2.4311e-08
-3.00482e-08
-4.74228e-08
-7.85705e-08
5.25863e-08
-2.54329e-07
2.03975e-06
-2.79311e-07
8.20654e-08
6.92564e-08
3.93589e-08
1.66638e-08
1.0088e-08
1.33918e-08
2.70866e-08
1.61437e-08
2.69029e-08
1.43293e-08
1.54278e-08
4.93987e-09
-1.21424e-08
-7.35012e-09
-5.66618e-08
-5.97171e-08
-6.45819e-08
2.55765e-07
-5.01916e-07
1.84285e-07
8.07254e-08
3.86267e-08
3.7049e-08
8.81608e-09
-1.05448e-09
1.17843e-08
2.69601e-08
1.60141e-08
7.84794e-08
5.44748e-08
4.8941e-08
4.43564e-08
1.66538e-08
-1.37631e-08
-2.93045e-08
-7.55502e-08
-2.89888e-08
-5.21208e-08
4.41282e-08
4.08545e-08
2.66581e-08
3.94939e-08
1.58976e-08
-2.64994e-09
-1.39828e-09
1.09889e-08
1.39987e-08
5.79261e-09
1.40065e-07
1.08568e-07
7.36093e-08
6.06129e-08
3.61374e-08
-1.7737e-09
-1.90953e-08
-3.97538e-08
-4.75433e-08
-3.76668e-08
5.1903e-08
-1.02846e-08
1.41899e-08
1.13849e-08
5.02482e-09
1.96803e-09
2.10008e-09
9.3088e-09
2.58776e-09
-3.60539e-09
1.99039e-07
1.69319e-07
1.0197e-07
5.69368e-08
3.81336e-08
1.14827e-08
-4.33241e-09
-1.1825e-08
-2.65928e-08
-3.08958e-08
-3.16666e-08
-1.27362e-08
1.66492e-09
-5.36585e-10
6.74335e-09
1.00031e-08
6.75863e-09
1.26973e-08
6.12392e-09
-2.41998e-09
2.42902e-07
2.16818e-07
1.44165e-07
6.1087e-08
2.8015e-08
1.27808e-08
3.90962e-09
-8.09752e-10
-8.82494e-09
-4.3531e-09
1.38794e-09
9.94499e-09
8.78933e-09
7.47689e-09
1.58035e-08
2.12707e-08
1.49849e-08
1.43329e-08
1.43647e-08
5.74911e-09
2.70218e-07
2.41315e-07
1.86154e-07
9.65478e-08
2.32188e-08
-4.96432e-09
-1.02896e-08
-1.14392e-08
-1.13557e-08
3.54651e-09
2.44632e-08
2.97581e-08
2.49628e-08
2.49194e-08
3.50286e-08
4.55666e-08
3.86935e-08
2.4178e-08
2.2162e-08
1.25969e-08
2.78285e-07
2.43051e-07
2.04815e-07
1.29931e-07
2.87961e-08
-2.20481e-08
-3.1433e-08
-2.81605e-08
-2.54206e-08
-1.44146e-09
2.23698e-08
3.30054e-08
3.15938e-08
3.74322e-08
5.3841e-08
6.61674e-08
5.64122e-08
2.66198e-08
1.62241e-08
1.14745e-08
)
;

boundaryField
{
    sides
    {
        type            calculated;
        value           nonuniform List<scalar> 
40
(
2.78285e-07
2.43051e-07
2.04815e-07
1.29931e-07
2.87961e-08
-2.20481e-08
-3.1433e-08
-2.81605e-08
-2.54206e-08
-1.44146e-09
2.23698e-08
3.30054e-08
3.15938e-08
3.74322e-08
5.3841e-08
6.61674e-08
5.64122e-08
2.66198e-08
1.62241e-08
1.14745e-08
3.22818e-07
2.75892e-07
1.92949e-07
9.58368e-08
4.33889e-08
2.31191e-08
8.65962e-09
-1.129e-08
2.55556e-09
3.13897e-08
4.02237e-08
5.4741e-08
3.41545e-08
5.1795e-08
5.03623e-08
3.73502e-08
3.37486e-08
2.92803e-08
3.18687e-08
2.04123e-08
)
;
    }
    inlet
    {
        type            calculated;
        value           nonuniform List<scalar> 
20
(
3.22818e-07
2.89747e-07
2.53765e-07
2.08141e-07
1.58897e-07
1.06099e-07
5.2915e-08
4.08373e-09
-2.91231e-08
-4.61515e-08
-4.70324e-08
-3.50183e-08
-1.1192e-08
2.69029e-08
7.84794e-08
1.40065e-07
1.99039e-07
2.42902e-07
2.70218e-07
2.78285e-07
)
;
    }
    outlet
    {
        type            calculated;
        value           uniform 0;
    }
    frontAndBack
    {
        type            empty;
    }
}


// ************************************************************************* //
