/*--------------------------------*- C++ -*----------------------------------*\
  =========                 |
  \\      /  F ield         | OpenFOAM: The Open Source CFD Toolbox
   \\    /   O peration     | Website:  https://openfoam.org
    \\  /    A nd           | Version:  9
     \\/     M anipulation  |
\*---------------------------------------------------------------------------*/
FoamFile
{
    format      ascii;
    class       volVectorField;
    location    "44";
    object      ddtCorrDdt0(hU);
}
// * * * * * * * * * * * * * * * * * * * * * * * * * * * * * * * * * * * * * //

dimensions      [0 2 -2 0 0 0 0];

internalField   nonuniform List<vector> 
400
(
(1.65964e-08 8.14371e-09 0)
(7.64147e-09 7.58046e-09 0)
(1.12886e-09 1.2245e-09 0)
(2.41896e-08 -4.13274e-09 0)
(4.3174e-08 -2.92595e-09 0)
(4.16793e-08 2.46351e-09 0)
(2.69736e-08 5.70627e-09 0)
(1.11928e-08 1.91338e-10 0)
(9.87709e-09 -4.38746e-09 0)
(1.63946e-08 -6.04636e-09 0)
(1.78772e-08 3.5293e-09 0)
(1.48585e-08 6.65154e-09 0)
(9.42778e-10 6.97917e-09 0)
(-2.28497e-09 2.9912e-09 0)
(3.83964e-09 -2.59907e-09 0)
(1.28339e-08 -6.14547e-10 0)
(2.17324e-08 5.69956e-09 0)
(1.48733e-08 7.5224e-09 0)
(8.39689e-09 5.28037e-09 0)
(2.27556e-08 5.96234e-10 0)
(1.33385e-08 2.03969e-08 0)
(7.12202e-09 2.17619e-08 0)
(2.59537e-09 6.53466e-09 0)
(2.31045e-08 -8.55424e-09 0)
(3.92871e-08 -7.10863e-09 0)
(4.01839e-08 7.78859e-09 0)
(2.56703e-08 1.63514e-08 0)
(1.40877e-08 2.06799e-09 0)
(8.68063e-09 -9.23823e-09 0)
(1.7765e-08 -1.13838e-08 0)
(1.845e-08 4.82424e-09 0)
(1.11421e-08 1.89652e-08 0)
(5.50883e-09 1.63012e-08 0)
(-2.61038e-09 6.3191e-09 0)
(4.81735e-09 -6.27261e-09 0)
(1.57457e-08 -5.63437e-09 0)
(1.92686e-08 1.21718e-08 0)
(1.49451e-08 2.73761e-08 0)
(1.22917e-08 7.3841e-09 0)
(2.20901e-08 -7.95877e-09 0)
(1.041e-08 2.7046e-08 0)
(7.02789e-09 3.24329e-08 0)
(4.52833e-09 9.78023e-09 0)
(1.93394e-08 -1.25614e-08 0)
(3.36647e-08 -7.65953e-09 0)
(3.61165e-08 1.8276e-08 0)
(2.61465e-08 2.30636e-08 0)
(1.51484e-08 5.20855e-09 0)
(1.4343e-08 -1.71683e-08 0)
(1.35583e-08 -1.14077e-08 0)
(2.06848e-08 1.40899e-09 0)
(7.74716e-09 2.6528e-08 0)
(2.22376e-09 2.64921e-08 0)
(-6.49627e-10 7.55394e-09 0)
(1.75161e-09 -6.55059e-09 0)
(1.66206e-08 -8.52467e-09 0)
(2.47534e-08 1.11175e-08 0)
(1.03628e-08 3.05079e-08 0)
(-1.07024e-09 1.00772e-08 0)
(1.24839e-08 -9.38973e-09 0)
(7.88409e-09 2.9684e-08 0)
(7.45286e-09 3.79526e-08 0)
(6.35354e-09 9.6985e-09 0)
(1.69615e-08 -1.63432e-08 0)
(2.931e-08 -3.86095e-09 0)
(3.02203e-08 2.53554e-08 0)
(2.51513e-08 2.78384e-08 0)
(1.40748e-08 6.54472e-09 0)
(1.95502e-08 -1.70873e-08 0)
(1.6977e-08 -2.16315e-08 0)
(8.91661e-09 1.41594e-08 0)
(1.68508e-08 2.63404e-08 0)
(-2.96099e-09 3.5093e-08 0)
(-2.57577e-09 1.51508e-08 0)
(2.00513e-09 -6.21852e-09 0)
(7.45005e-09 -8.2788e-09 0)
(1.30458e-08 1.39055e-08 0)
(1.41661e-08 3.5336e-08 0)
(1.20892e-08 9.03391e-09 0)
(1.37625e-08 -1.48814e-08 0)
(5.89139e-09 2.90841e-08 0)
(1.01534e-08 3.93412e-08 0)
(1.06205e-08 9.78344e-09 0)
(1.57622e-08 -1.58007e-08 0)
(2.11612e-08 -2.43256e-09 0)
(2.46072e-08 2.58341e-08 0)
(2.04219e-08 3.30435e-08 0)
(2.44186e-08 1.01351e-08 0)
(1.07539e-08 -1.06422e-08 0)
(3.04942e-08 -2.60338e-08 0)
(1.20526e-08 9.04601e-09 0)
(-3.24539e-09 3.88086e-08 0)
(1.66318e-08 2.75896e-08 0)
(-3.70167e-09 1.70674e-08 0)
(-6.18007e-09 -2.65998e-10 0)
(3.50701e-09 -4.96377e-09 0)
(1.06844e-08 1.64596e-08 0)
(6.78451e-09 4.06445e-08 0)
(-4.71987e-10 8.03098e-09 0)
(8.18157e-09 -1.82214e-08 0)
(4.11603e-09 2.75057e-08 0)
(1.36593e-08 3.74643e-08 0)
(1.59768e-08 8.18942e-09 0)
(1.38826e-08 -1.63826e-08 0)
(1.473e-08 -4.65184e-09 0)
(1.66829e-08 2.58628e-08 0)
(2.2399e-08 3.59472e-08 0)
(2.12278e-08 1.86924e-08 0)
(2.66243e-08 -2.52351e-08 0)
(-1.94708e-09 6.24663e-10 0)
(3.87695e-08 -3.10689e-08 0)
(-1.25035e-08 4.12326e-08 0)
(-3.55093e-10 4.17522e-08 0)
(2.42267e-08 1.03129e-08 0)
(1.57075e-09 -2.0974e-09 0)
(-9.8384e-09 -1.46644e-09 0)
(-5.41164e-09 1.86393e-08 0)
(5.63407e-09 3.92764e-08 0)
(1.04608e-08 1.2732e-08 0)
(7.52288e-09 -1.3542e-08 0)
(1.6995e-09 2.51854e-08 0)
(1.62494e-08 3.26788e-08 0)
(2.03086e-08 5.52895e-09 0)
(1.29716e-08 -1.68828e-08 0)
(7.76216e-09 -5.72245e-09 0)
(1.30329e-08 2.46995e-08 0)
(2.12802e-08 3.60876e-08 0)
(1.98655e-08 1.24427e-08 0)
(3.2521e-08 -1.34292e-08 0)
(-6.36297e-09 -1.50668e-08 0)
(-3.40795e-08 1.74732e-08 0)
(7.17444e-08 1.70883e-09 0)
(-5.05859e-09 4.30788e-08 0)
(2.01022e-09 1.88024e-08 0)
(1.19794e-08 -5.5667e-09 0)
(-4.75929e-09 -3.65376e-09 0)
(-9.40059e-09 1.93286e-08 0)
(9.65553e-10 4.31759e-08 0)
(6.78857e-09 1.17196e-08 0)
(3.64828e-09 -1.61245e-08 0)
(-1.47627e-09 2.13175e-08 0)
(1.69585e-08 2.55387e-08 0)
(2.34787e-08 3.5182e-09 0)
(1.18491e-08 -1.35771e-08 0)
(4.75493e-09 -4.02514e-09 0)
(8.54661e-09 2.20923e-08 0)
(1.87001e-08 3.06391e-08 0)
(2.78034e-08 2.98736e-09 0)
(1.25409e-08 -1.43826e-08 0)
(6.21774e-08 -2.90122e-08 0)
(3.02255e-07 1.59214e-08 0)
(-5.931e-09 4.25834e-08 0)
(5.1774e-08 1.97782e-08 0)
(1.26179e-08 1.47457e-08 0)
(3.09607e-09 -1.49646e-09 0)
(-5.74417e-09 -3.02535e-09 0)
(-1.01762e-08 1.37507e-08 0)
(8.46863e-10 3.37219e-08 0)
(8.55948e-09 9.11146e-09 0)
(1.44702e-09 -1.2375e-08 0)
(-4.59832e-09 1.54556e-08 0)
(1.64014e-08 1.6623e-08 0)
(2.56011e-08 2.2694e-09 0)
(1.17238e-08 -7.02384e-09 0)
(1.99435e-09 -5.15591e-10 0)
(7.05959e-09 1.67053e-08 0)
(1.39629e-08 2.03162e-08 0)
(1.66578e-08 -1.05463e-09 0)
(3.26635e-08 -1.43572e-08 0)
(-3.81376e-08 -2.96839e-08 0)
(-2.91316e-07 2.16387e-08 0)
(2.36824e-08 3.27093e-08 0)
(-2.59871e-08 1.23237e-08 0)
(1.6077e-08 8e-09 0)
(9.56077e-09 -2.24728e-09 0)
(-4.57696e-09 -1.96506e-09 0)
(-4.82774e-09 1.38555e-08 0)
(2.48718e-09 2.15373e-08 0)
(1.1774e-08 1.20953e-09 0)
(1.1419e-09 -1.29298e-08 0)
(-6.92161e-09 7.51582e-09 0)
(1.48835e-08 7.2026e-09 0)
(2.66955e-08 1.90844e-09 0)
(1.231e-08 1.34725e-09 0)
(1.8613e-09 3.62962e-09 0)
(4.719e-09 7.74379e-09 0)
(1.28791e-08 8.52194e-09 0)
(2.31025e-08 -3.9162e-09 0)
(2.8641e-09 -6.54377e-09 0)
(4.19838e-08 -2.92708e-09 0)
(3.64931e-08 4.43986e-09 0)
(-6.9471e-08 -2.30236e-09 0)
(2.67503e-08 2.12868e-08 0)
(1.5953e-08 7.85139e-09 0)
(1.3491e-09 -1.70615e-09 0)
(7.83049e-10 5.42436e-10 0)
(-1.19002e-08 6.98719e-09 0)
(-4.99275e-09 6.77844e-09 0)
(7.86044e-09 -6.42884e-09 0)
(4.91063e-09 -1.19015e-08 0)
(-7.62426e-09 -1.54876e-09 0)
(1.34472e-08 -1.81568e-09 0)
(2.67739e-08 3.23376e-09 0)
(1.32719e-08 9.2336e-09 0)
(2.37571e-09 7.77812e-09 0)
(5.25995e-09 -2.13537e-09 0)
(1.17543e-08 -6.0481e-09 0)
(1.74957e-08 1.76796e-09 0)
(2.15026e-08 -1.35106e-08 0)
(-5.59364e-09 3.73385e-08 0)
(1.82055e-08 4.14487e-08 0)
(2.56488e-08 1.01507e-08 0)
(-1.31826e-08 1.03561e-08 0)
(-9.01078e-09 -1.54169e-09 0)
(5.21324e-09 5.49651e-09 0)
(1.9722e-09 6.19518e-09 0)
(-1.03559e-08 -4.36781e-09 0)
(-6.18428e-09 -8.26011e-09 0)
(9.12982e-09 -8.29136e-09 0)
(6.91604e-09 -5.50199e-09 0)
(-6.75359e-09 -1.01451e-08 0)
(1.25418e-08 -1.04782e-08 0)
(2.49662e-08 3.68618e-09 0)
(1.39364e-08 1.48585e-08 0)
(4.81937e-09 8.78944e-09 0)
(8.41159e-09 -1.1626e-08 0)
(1.48562e-08 -2.00181e-08 0)
(1.24857e-08 -2.0097e-09 0)
(3.49774e-08 2.35665e-08 0)
(1.15378e-07 -2.10143e-08 0)
(-1.9499e-07 -6.33811e-08 0)
(-5.73581e-08 -3.02144e-08 0)
(-1.27995e-08 -3.11248e-08 0)
(-3.18969e-10 3.01625e-09 0)
(8.85238e-09 1.62073e-08 0)
(-1.67859e-09 1.33474e-08 0)
(-1.2317e-08 -4.64535e-09 0)
(-5.35566e-09 -1.71e-08 0)
(1.09888e-08 -8.99212e-09 0)
(9.35611e-09 -5.03779e-10 0)
(-4.44771e-09 -1.7832e-08 0)
(1.16707e-08 -1.90762e-08 0)
(2.2005e-08 4.09576e-09 0)
(1.44233e-08 1.93975e-08 0)
(8.04254e-09 7.87554e-09 0)
(1.07943e-08 -2.02963e-08 0)
(1.93688e-08 -3.15876e-08 0)
(2.75881e-08 -8.66067e-09 0)
(4.84829e-09 2.49014e-08 0)
(-9.272e-08 -7.88163e-09 0)
(2.32955e-07 -9.09298e-08 0)
(4.57306e-08 -4.71689e-08 0)
(2.3915e-08 -2.55715e-08 0)
(2.94783e-08 1.51739e-09 0)
(5.45765e-09 1.63678e-08 0)
(-6.54447e-09 1.54256e-08 0)
(-1.23416e-08 -8.81723e-09 0)
(-4.08262e-09 -2.67321e-08 0)
(1.0967e-08 -8.95015e-09 0)
(8.19051e-09 4.83791e-09 0)
(-1.46958e-09 -2.41871e-08 0)
(1.09372e-08 -2.76328e-08 0)
(1.81731e-08 3.03101e-09 0)
(1.44762e-08 2.37392e-08 0)
(1.15138e-08 7.04406e-09 0)
(1.58734e-08 -2.5104e-08 0)
(2.24533e-08 -3.8604e-08 0)
(2.60012e-08 -1.61115e-08 0)
(1.32827e-08 6.90112e-09 0)
(3.11405e-08 4.44659e-08 0)
(-6.20235e-08 6.94598e-08 0)
(3.14449e-08 -1.68453e-08 0)
(3.87599e-08 -1.39546e-08 0)
(1.21594e-08 -5.10964e-09 0)
(4.95497e-09 1.28698e-08 0)
(-5.86322e-09 1.21137e-08 0)
(-8.02975e-09 -1.45607e-08 0)
(2.8004e-09 -3.47108e-08 0)
(1.23348e-08 -1.15068e-08 0)
(5.05911e-09 6.90221e-09 0)
(1.48991e-09 -2.86982e-08 0)
(9.10195e-09 -3.5125e-08 0)
(1.42463e-08 -1.31349e-09 0)
(1.49215e-08 2.55186e-08 0)
(1.72487e-08 9.38636e-09 0)
(1.98539e-08 -2.70692e-08 0)
(2.37793e-08 -3.97743e-08 0)
(2.40725e-08 -2.21098e-08 0)
(2.39612e-08 8.0886e-09 0)
(6.67758e-09 1.74748e-08 0)
(1.45535e-08 -8.0003e-10 0)
(1.29272e-08 -1.03589e-08 0)
(4.58855e-09 -2.87873e-08 0)
(6.80301e-09 -7.28107e-09 0)
(-1.4312e-09 8.91564e-09 0)
(-4.6762e-09 9.48474e-09 0)
(4.01765e-10 -1.60798e-08 0)
(7.08666e-09 -4.03532e-08 0)
(9.06939e-09 -1.83039e-08 0)
(3.74673e-09 5.14603e-09 0)
(3.9264e-09 -3.14362e-08 0)
(6.36211e-09 -3.89652e-08 0)
(1.0604e-08 -5.79426e-09 0)
(1.76102e-08 2.40654e-08 0)
(2.31871e-08 1.21883e-08 0)
(2.51825e-08 -2.47334e-08 0)
(2.3552e-08 -3.75182e-08 0)
(2.03566e-08 -1.91724e-08 0)
(1.80084e-08 5.43903e-09 0)
(1.15432e-08 8.11735e-09 0)
(1.50971e-08 -6.24215e-09 0)
(7.76337e-09 -3.56157e-08 0)
(4.8572e-09 -3.45594e-08 0)
(-3.77048e-09 -1.44914e-08 0)
(-5.54283e-09 6.082e-09 0)
(3.32557e-09 1.03059e-08 0)
(9.42035e-09 -1.79874e-08 0)
(7.679e-09 -4.54635e-08 0)
(6.55799e-09 -2.17119e-08 0)
(8.28316e-09 4.46877e-09 0)
(6.40133e-09 -3.18492e-08 0)
(4.33368e-09 -3.64262e-08 0)
(7.80591e-09 -7.55605e-09 0)
(2.11227e-08 1.82859e-08 0)
(2.99099e-08 1.0615e-08 0)
(3.00743e-08 -1.96194e-08 0)
(2.37768e-08 -3.14006e-08 0)
(1.7658e-08 -1.31164e-08 0)
(1.48737e-08 8.34149e-09 0)
(1.62493e-08 1.02113e-08 0)
(1.32481e-08 -9.49285e-09 0)
(2.63218e-09 -3.29372e-08 0)
(-6.01093e-09 -3.30019e-08 0)
(-7.61814e-09 -1.06835e-08 0)
(-1.25797e-09 1.13095e-08 0)
(7.46811e-09 1.2169e-08 0)
(1.18485e-08 -1.74348e-08 0)
(9.54556e-09 -4.15972e-08 0)
(8.64314e-09 -1.72574e-08 0)
(1.50748e-08 5.91578e-09 0)
(9.80961e-09 -2.89231e-08 0)
(3.96116e-09 -2.77341e-08 0)
(4.40794e-09 -2.72544e-09 0)
(2.41641e-08 1.31981e-08 0)
(3.78178e-08 4.45451e-09 0)
(3.60065e-08 -1.731e-08 0)
(2.47378e-08 -2.39387e-08 0)
(1.37057e-08 -6.3086e-09 0)
(1.22636e-08 1.28151e-08 0)
(1.4573e-08 1.365e-08 0)
(1.20909e-08 -7.73222e-09 0)
(7.77959e-09 -2.58855e-08 0)
(1.45202e-10 -2.34202e-08 0)
(-5.74909e-09 -4.17889e-09 0)
(-2.71402e-09 1.21189e-08 0)
(8.03604e-09 1.11194e-08 0)
(1.64463e-08 -1.14958e-08 0)
(1.3087e-08 -2.73627e-08 0)
(1.0371e-08 -6.21486e-09 0)
(1.79175e-08 8.67434e-09 0)
(1.36784e-08 -2.0433e-08 0)
(6.76206e-09 -1.76369e-08 0)
(2.11306e-09 -3.57952e-10 0)
(2.41457e-08 6.67815e-09 0)
(4.16694e-08 -1.90427e-09 0)
(4.07421e-08 -1.3488e-08 0)
(2.66246e-08 -1.52648e-08 0)
(1.33428e-08 -2.55905e-09 0)
(1.05857e-08 1.08419e-08 0)
(1.45806e-08 1.12077e-08 0)
(1.59706e-08 3.46857e-10 0)
(7.54942e-09 -1.15029e-08 0)
(-4.46215e-09 -1.16716e-08 0)
(-6.70234e-09 -7.77409e-10 0)
(8.48102e-10 9.81742e-09 0)
(1.37967e-08 9.96123e-09 0)
(2.41381e-08 -4.56084e-09 0)
(1.86904e-08 -1.33903e-08 0)
(1.03158e-08 2.18283e-09 0)
(1.3371e-08 8.90708e-09 0)
(1.60061e-08 -7.15739e-09 0)
(8.79821e-09 -6.58261e-09 0)
(6.8672e-10 -1.35576e-09 0)
(2.39564e-08 4.86374e-10 0)
(4.41176e-08 -2.12997e-09 0)
(4.43415e-08 -4.70952e-09 0)
(2.79921e-08 -4.76939e-09 0)
(1.20657e-08 -1.07737e-09 0)
(8.27347e-09 2.61226e-09 0)
(1.33362e-08 3.46053e-09 0)
(1.40367e-08 1.29099e-10 0)
(8.62414e-09 -4.85357e-09 0)
(-1.23153e-10 -3.1392e-09 0)
(-4.00852e-09 1.64853e-09 0)
(1.59705e-09 4.80401e-09 0)
(1.40092e-08 4.31521e-09 0)
(2.66819e-08 -9.40365e-10 0)
(2.29609e-08 -3.91943e-09 0)
(1.04839e-08 1.87269e-09 0)
(7.86345e-09 3.76001e-09 0)
)
;

boundaryField
{
    sides
    {
        type            calculated;
        value           nonuniform List<vector> 
40
(
(1.60061e-08 0 0)
(8.79821e-09 0 0)
(6.8672e-10 0 0)
(2.39564e-08 0 0)
(4.41176e-08 0 0)
(4.43415e-08 0 0)
(2.79921e-08 0 0)
(1.20657e-08 0 0)
(8.27347e-09 0 0)
(1.33362e-08 0 0)
(1.40367e-08 0 0)
(8.62414e-09 0 0)
(-1.23153e-10 0 0)
(-4.00852e-09 0 0)
(1.59705e-09 0 0)
(1.40092e-08 0 0)
(2.66819e-08 0 0)
(2.29609e-08 0 0)
(1.04839e-08 0 0)
(7.86345e-09 0 0)
(1.65964e-08 0 0)
(7.64147e-09 0 0)
(1.12886e-09 0 0)
(2.41896e-08 0 0)
(4.3174e-08 0 0)
(4.16793e-08 0 0)
(2.69736e-08 0 0)
(1.11928e-08 0 0)
(9.87709e-09 0 0)
(1.63946e-08 0 0)
(1.78772e-08 0 0)
(1.48585e-08 0 0)
(9.42778e-10 0 0)
(-2.28497e-09 0 0)
(3.83964e-09 0 0)
(1.28339e-08 0 0)
(2.17324e-08 0 0)
(1.48733e-08 0 0)
(8.39689e-09 0 0)
(2.27556e-08 0 0)
)
;
    }
    inlet
    {
        type            calculated;
        value           uniform (0 0 0);
    }
    outlet
    {
        type            calculated;
        value           nonuniform List<vector> 
20
(
(2.27556e-08 5.96234e-10 0)
(2.20901e-08 -7.95877e-09 0)
(1.24839e-08 -9.38973e-09 0)
(1.37625e-08 -1.48814e-08 0)
(8.18157e-09 -1.82214e-08 0)
(7.52288e-09 -1.3542e-08 0)
(3.64828e-09 -1.61245e-08 0)
(1.44702e-09 -1.2375e-08 0)
(1.1419e-09 -1.29298e-08 0)
(4.91063e-09 -1.19015e-08 0)
(6.91604e-09 -5.50199e-09 0)
(9.35611e-09 -5.03779e-10 0)
(8.19051e-09 4.83791e-09 0)
(5.05911e-09 6.90221e-09 0)
(3.74673e-09 5.14603e-09 0)
(8.28316e-09 4.46877e-09 0)
(1.50748e-08 5.91578e-09 0)
(1.79175e-08 8.67434e-09 0)
(1.3371e-08 8.90708e-09 0)
(7.86345e-09 3.76001e-09 0)
)
;
    }
    frontAndBack
    {
        type            empty;
    }
}


// ************************************************************************* //
