/*--------------------------------*- C++ -*----------------------------------*\
  =========                 |
  \\      /  F ield         | OpenFOAM: The Open Source CFD Toolbox
   \\    /   O peration     | Website:  https://openfoam.org
    \\  /    A nd           | Version:  9
     \\/     M anipulation  |
\*---------------------------------------------------------------------------*/
FoamFile
{
    format      ascii;
    class       volScalarField;
    location    "44";
    object      h;
}
// * * * * * * * * * * * * * * * * * * * * * * * * * * * * * * * * * * * * * //

dimensions      [0 1 0 0 0 0 0];

internalField   nonuniform List<scalar> 
400
(
0.0100005
0.0100005
0.0100004
0.0100003
0.0100001
0.00999983
0.00999957
0.00999932
0.00999909
0.00999891
0.00999882
0.00999883
0.00999894
0.00999916
0.00999942
0.00999969
0.00999991
0.01
0.0100001
0.0100001
0.0100004
0.0100004
0.0100003
0.0100002
0.00999998
0.00999973
0.00999945
0.00999917
0.0099989
0.00999869
0.00999858
0.0099986
0.00999875
0.00999901
0.00999931
0.0099996
0.00999982
0.00999994
0.00999998
0.00999999
0.0100004
0.0100004
0.0100003
0.0100002
0.00999998
0.00999971
0.0099994
0.00999907
0.00999876
0.0099985
0.00999836
0.00999836
0.00999855
0.00999888
0.00999929
0.00999968
0.00999995
0.0100001
0.0100001
0.01
0.0100005
0.0100005
0.0100004
0.0100002
0.01
0.0099997
0.00999935
0.00999893
0.0099985
0.00999812
0.00999789
0.00999791
0.00999821
0.00999874
0.00999932
0.00999976
0.00999997
0.01
0.00999997
0.00999997
0.0100006
0.0100006
0.0100005
0.0100003
0.0100001
0.00999977
0.00999933
0.00999879
0.00999818
0.0099976
0.00999719
0.0099972
0.0099977
0.00999859
0.00999953
0.0100002
0.0100004
0.0100003
0.0100001
0.00999999
0.0100007
0.0100007
0.0100006
0.0100005
0.0100003
0.00999994
0.0099994
0.00999865
0.00999778
0.00999692
0.00999634
0.00999627
0.00999706
0.00999843
0.00999973
0.0100004
0.0100005
0.0100002
0.00999993
0.00999992
0.0100009
0.0100009
0.0100008
0.0100008
0.0100006
0.0100003
0.00999972
0.0099987
0.00999718
0.00999539
0.00999417
0.00999455
0.00999668
0.00999947
0.0100013
0.0100015
0.0100008
0.01
0.00999974
0.00999987
0.010001
0.010001
0.0100011
0.0100011
0.0100011
0.0100009
0.0100004
0.00999931
0.0099974
0.00999434
0.00999047
0.00999023
0.00999448
0.0100002
0.0100033
0.0100031
0.0100013
0.00999985
0.00999949
0.00999983
0.0100011
0.0100012
0.0100014
0.0100016
0.0100019
0.010002
0.0100014
0.00999953
0.00999554
0.00998972
0.00998682
0.00998973
0.00999801
0.0100037
0.0100044
0.0100024
0.0100003
0.00999934
0.00999944
0.00999987
0.0100011
0.0100012
0.0100015
0.0100019
0.0100027
0.0100041
0.0100059
0.0100079
0.0100049
0.00897849
0.00895241
0.00997581
0.0100088
0.0100178
0.0100104
0.0100023
0.00999884
0.0099989
0.00999978
0.0100002
0.010001
0.0100012
0.0100014
0.0100019
0.0100026
0.010004
0.0100058
0.0100078
0.0100049
0.00897844
0.00895239
0.00997578
0.0100087
0.0100177
0.0100104
0.0100023
0.00999884
0.00999888
0.00999975
0.0100001
0.0100009
0.010001
0.0100012
0.0100014
0.0100017
0.0100018
0.0100012
0.00999933
0.00999534
0.00998955
0.00998658
0.00998956
0.00999788
0.0100036
0.0100043
0.0100023
0.0100002
0.00999932
0.00999946
0.00999989
0.0100007
0.0100007
0.0100008
0.0100008
0.0100008
0.0100006
0.0100001
0.00999901
0.00999713
0.00999406
0.00999028
0.00998998
0.00999423
0.00999993
0.0100031
0.0100029
0.0100011
0.00999977
0.00999947
0.00999982
0.0100004
0.0100004
0.0100004
0.0100003
0.0100002
0.00999985
0.00999927
0.00999825
0.00999673
0.00999498
0.00999375
0.00999417
0.00999634
0.00999917
0.0100011
0.0100013
0.0100006
0.0099999
0.00999964
0.00999983
0.0100001
0.0100001
0.01
0.0099999
0.00999969
0.00999934
0.00999881
0.00999808
0.00999722
0.0099964
0.00999584
0.00999583
0.00999664
0.00999804
0.00999939
0.0100001
0.0100002
0.00999999
0.00999982
0.00999988
0.00999983
0.00999981
0.00999972
0.00999958
0.00999936
0.00999904
0.00999861
0.00999809
0.0099975
0.00999693
0.00999655
0.0099966
0.00999713
0.00999806
0.00999906
0.00999976
0.01
0.01
0.00999991
0.00999993
0.0099996
0.00999958
0.00999949
0.00999934
0.00999912
0.00999884
0.00999849
0.0099981
0.00999769
0.00999735
0.00999717
0.00999722
0.00999756
0.00999814
0.0099988
0.00999933
0.00999965
0.00999979
0.00999985
0.00999992
0.00999941
0.00999939
0.0099993
0.00999915
0.00999895
0.0099987
0.00999841
0.00999809
0.00999779
0.00999755
0.00999743
0.00999749
0.00999774
0.00999814
0.00999862
0.00999907
0.00999942
0.00999965
0.0099998
0.00999992
0.00999926
0.00999924
0.00999917
0.00999903
0.00999884
0.00999861
0.00999835
0.0099981
0.00999787
0.0099977
0.00999763
0.00999767
0.00999786
0.00999818
0.00999858
0.00999898
0.00999932
0.00999958
0.00999977
0.00999992
0.00999913
0.00999911
0.00999903
0.00999889
0.0099987
0.00999848
0.00999824
0.009998
0.00999779
0.00999764
0.00999759
0.00999765
0.00999783
0.00999811
0.00999845
0.00999881
0.00999915
0.00999942
0.00999966
0.00999987
)
;

boundaryField
{
    sides
    {
        type            zeroGradient;
    }
    inlet
    {
        type            zeroGradient;
    }
    outlet
    {
        type            fixedValue;
        value           uniform 0.01;
    }
    frontAndBack
    {
        type            empty;
    }
}


// ************************************************************************* //
