/*--------------------------------*- C++ -*----------------------------------*\
  =========                 |
  \\      /  F ield         | OpenFOAM: The Open Source CFD Toolbox
   \\    /   O peration     | Website:  https://openfoam.org
    \\  /    A nd           | Version:  9
     \\/     M anipulation  |
\*---------------------------------------------------------------------------*/
FoamFile
{
    format      ascii;
    class       volVectorField;
    location    "44";
    object      hU;
}
// * * * * * * * * * * * * * * * * * * * * * * * * * * * * * * * * * * * * * //

dimensions      [0 2 -1 0 0 0 0];

internalField   nonuniform List<vector> 
400
(
(0.00100001 -2.51508e-08 0)
(0.00100003 -7.55792e-08 0)
(0.0010001 -1.19367e-07 0)
(0.00100023 -1.55542e-07 0)
(0.00100038 -1.8671e-07 0)
(0.00100056 -2.15899e-07 0)
(0.00100076 -2.38957e-07 0)
(0.00100098 -2.49683e-07 0)
(0.00100117 -2.39633e-07 0)
(0.00100132 -2.11215e-07 0)
(0.00100139 -1.65571e-07 0)
(0.00100138 -1.26944e-07 0)
(0.00100127 -9.98211e-08 0)
(0.0010011 -9.53908e-08 0)
(0.00100086 -1.01319e-07 0)
(0.00100064 -1.34621e-07 0)
(0.00100042 -1.54052e-07 0)
(0.00100032 -1.99163e-07 0)
(0.00100024 -1.87322e-07 0)
(0.00100032 -2.68392e-07 0)
(0.00100001 -2.82783e-08 0)
(0.00100003 -9.02731e-08 0)
(0.00100012 -1.433e-07 0)
(0.00100024 -1.82815e-07 0)
(0.00100041 -2.12936e-07 0)
(0.0010006 -2.3834e-07 0)
(0.00100082 -2.50333e-07 0)
(0.00100106 -2.30803e-07 0)
(0.00100129 -1.62958e-07 0)
(0.00100147 -4.88858e-08 0)
(0.00100155 9.79934e-08 0)
(0.00100153 2.50363e-07 0)
(0.0010014 3.85894e-07 0)
(0.00100118 4.69305e-07 0)
(0.00100091 5.00094e-07 0)
(0.00100066 4.53153e-07 0)
(0.00100047 3.84654e-07 0)
(0.00100035 2.56217e-07 0)
(0.00100031 1.94134e-07 0)
(0.00100027 7.68396e-08 0)
(0.00100001 -5.43748e-08 0)
(0.00100003 -1.75039e-07 0)
(0.00100011 -2.88928e-07 0)
(0.00100024 -3.87167e-07 0)
(0.00100041 -4.73441e-07 0)
(0.00100063 -5.52291e-07 0)
(0.00100088 -6.1009e-07 0)
(0.00100115 -6.12991e-07 0)
(0.00100142 -5.30548e-07 0)
(0.00100164 -3.53022e-07 0)
(0.00100175 -1.03795e-07 0)
(0.00100174 1.66722e-07 0)
(0.00100158 3.96157e-07 0)
(0.00100129 5.08478e-07 0)
(0.00100094 4.91876e-07 0)
(0.00100061 3.5563e-07 0)
(0.00100035 2.11791e-07 0)
(0.00100024 4.63407e-08 0)
(0.0010002 -1.58977e-08 0)
(0.00100029 -1.22579e-07 0)
(0.00100001 -7.62293e-08 0)
(0.00100004 -2.43163e-07 0)
(0.00100011 -4.0355e-07 0)
(0.00100025 -5.48015e-07 0)
(0.00100043 -6.80398e-07 0)
(0.00100068 -8.0605e-07 0)
(0.00100098 -8.98049e-07 0)
(0.00100133 -9.05477e-07 0)
(0.0010017 -7.71402e-07 0)
(0.00100202 -4.76052e-07 0)
(0.00100221 -1.14798e-08 0)
(0.00100218 4.99181e-07 0)
(0.00100191 9.30588e-07 0)
(0.00100145 1.12578e-06 0)
(0.00100096 1.04533e-06 0)
(0.00100057 7.45631e-07 0)
(0.0010004 4.34774e-07 0)
(0.00100034 1.69596e-07 0)
(0.00100039 8.53711e-08 0)
(0.00100033 -6.43046e-09 0)
(0.001 -9.42848e-08 0)
(0.00100003 -3.0122e-07 0)
(0.00100011 -5.09122e-07 0)
(0.00100023 -7.14088e-07 0)
(0.00100043 -9.21344e-07 0)
(0.00100071 -1.13602e-06 0)
(0.00100108 -1.30963e-06 0)
(0.00100154 -1.35945e-06 0)
(0.00100206 -1.19203e-06 0)
(0.00100256 -7.80375e-07 0)
(0.00100289 -1.60582e-07 0)
(0.00100287 5.86077e-07 0)
(0.00100243 1.22444e-06 0)
(0.00100166 1.4978e-06 0)
(0.00100085 1.36645e-06 0)
(0.00100029 9.67947e-07 0)
(0.00100012 5.93595e-07 0)
(0.0010002 3.12428e-07 0)
(0.00100035 2.39796e-07 0)
(0.00100042 1.59297e-07 0)
(0.001 -1.06879e-07 0)
(0.00100002 -3.41923e-07 0)
(0.00100007 -5.94765e-07 0)
(0.00100018 -8.65564e-07 0)
(0.00100036 -1.17464e-06 0)
(0.00100067 -1.52322e-06 0)
(0.00100114 -1.87088e-06 0)
(0.00100177 -2.07673e-06 0)
(0.00100253 -1.92998e-06 0)
(0.00100325 -1.19972e-06 0)
(0.00100376 9.24844e-08 0)
(0.00100377 1.55055e-06 0)
(0.00100309 2.4274e-06 0)
(0.00100191 2.28956e-06 0)
(0.0010008 1.42099e-06 0)
(0.00100017 4.95955e-07 0)
(0.00100016 2.52085e-08 0)
(0.00100036 -8.48198e-08 0)
(0.00100062 4.29276e-08 0)
(0.00100053 4.27e-08 0)
(0.001 -1.05919e-07 0)
(0.001 -3.54732e-07 0)
(0.00100001 -6.31921e-07 0)
(0.00100006 -9.82033e-07 0)
(0.0010002 -1.39589e-06 0)
(0.00100047 -1.94648e-06 0)
(0.00100099 -2.5006e-06 0)
(0.00100187 -3.10467e-06 0)
(0.0010032 -3.24975e-06 0)
(0.00100472 -2.88077e-06 0)
(0.00100572 -6.60556e-07 0)
(0.00100535 2.56129e-06 0)
(0.00100349 4.82322e-06 0)
(0.00100111 4.72339e-06 0)
(0.000999594 3.01936e-06 0)
(0.000999355 1.26664e-06 0)
(0.000999991 4.4164e-07 0)
(0.00100055 3.25113e-07 0)
(0.00100091 5.42308e-07 0)
(0.00100064 5.26639e-07 0)
(0.000999998 -9.51243e-08 0)
(0.000999971 -3.05628e-07 0)
(0.000999899 -6.0132e-07 0)
(0.000999859 -9.74106e-07 0)
(0.000999863 -1.58232e-06 0)
(0.00100008 -2.34716e-06 0)
(0.00100049 -3.41368e-06 0)
(0.00100152 -4.14377e-06 0)
(0.00100307 -4.38744e-06 0)
(0.001006 -2.55471e-06 0)
(0.00100909 7.59442e-07 0)
(0.00100914 4.27046e-06 0)
(0.0010055 4.71401e-06 0)
(0.00100072 2.77277e-06 0)
(0.000998135 7.29065e-07 0)
(0.000998256 -2.72561e-07 0)
(0.000999782 -2.77775e-07 0)
(0.00100086 -1.06721e-08 0)
(0.00100132 1.97095e-07 0)
(0.00100083 9.72831e-08 0)
(0.000999998 -5.08257e-08 0)
(0.00099992 -2.15022e-07 0)
(0.000999748 -4.03085e-07 0)
(0.000999514 -7.47646e-07 0)
(0.000999272 -1.3436e-06 0)
(0.0009992 -2.48454e-06 0)
(0.000999697 -4.69585e-06 0)
(0.00100138 -8.08151e-06 0)
(0.0010049 -1.3296e-05 0)
(0.00100956 -1.49178e-05 0)
(0.00101188 3.84598e-06 0)
(0.00100893 1.87304e-05 0)
(0.00100221 1.57767e-05 0)
(0.000997558 5.73409e-06 0)
(0.000996871 -3.20866e-07 0)
(0.000998443 -1.26319e-06 0)
(0.00100026 -9.04676e-08 0)
(0.00100099 6.32129e-07 0)
(0.00100106 6.39328e-07 0)
(0.00100052 2.39665e-07 0)
(0.000999806 -2.02557e-08 0)
(0.00100018 -7.11456e-08 0)
(0.000999209 -1.58651e-07 0)
(0.000999887 -2.55405e-07 0)
(0.000997507 -5.97207e-07 0)
(0.000998834 -1.13586e-06 0)
(0.000993339 -2.8891e-06 0)
(0.00099752 -5.59829e-06 0)
(0.000991651 -1.15454e-05 0)
(0.00091582 -1.27055e-05 0)
(0.000951455 2.77018e-07 0)
(0.00101021 1.4643e-05 0)
(0.000990948 1.30863e-05 0)
(0.000983967 5.13874e-06 0)
(0.000989573 1.91251e-07 0)
(0.000996265 -7.84271e-07 0)
(0.000999221 -1.14346e-07 0)
(0.0009994 2.4272e-07 0)
(0.000998632 1.64231e-07 0)
(0.000998484 -1.87177e-07 0)
(0.000999806 1.39586e-08 0)
(0.00100018 4.90443e-08 0)
(0.000999208 1.20627e-07 0)
(0.000999886 1.99664e-07 0)
(0.000997504 5.24449e-07 0)
(0.000998829 1.04474e-06 0)
(0.000993331 2.78215e-06 0)
(0.000997508 5.47277e-06 0)
(0.000991636 1.13968e-05 0)
(0.000915796 1.25522e-05 0)
(0.000951419 -4.70446e-07 0)
(0.0010102 -1.49042e-05 0)
(0.000990939 -1.34037e-05 0)
(0.000983956 -5.53174e-06 0)
(0.000989554 -6.47368e-07 0)
(0.000996227 2.43911e-07 0)
(0.00099918 -4.79852e-07 0)
(0.000999356 -1.00785e-06 0)
(0.000998618 -9.92872e-07 0)
(0.000998434 -8.88831e-07 0)
(0.000999997 4.45595e-08 0)
(0.000999919 1.93887e-07 0)
(0.000999748 3.66342e-07 0)
(0.000999515 6.93256e-07 0)
(0.000999271 1.2719e-06 0)
(0.0009992 2.39348e-06 0)
(0.000999693 4.58716e-06 0)
(0.00100138 7.94893e-06 0)
(0.00100489 1.31411e-05 0)
(0.00100957 1.47215e-05 0)
(0.00101188 -4.0664e-06 0)
(0.00100889 -1.90022e-05 0)
(0.00100214 -1.60879e-05 0)
(0.00099747 -6.11354e-06 0)
(0.000996801 -8.05039e-08 0)
(0.000998385 7.69343e-07 0)
(0.00100015 -4.39373e-07 0)
(0.00100084 -1.31212e-06 0)
(0.00100086 -1.37951e-06 0)
(0.00100035 -1.24887e-06 0)
(0.000999998 8.90009e-08 0)
(0.00099997 2.85889e-07 0)
(0.000999898 5.66088e-07 0)
(0.000999856 9.2125e-07 0)
(0.000999856 1.50862e-06 0)
(0.00100007 2.25185e-06 0)
(0.00100047 3.29381e-06 0)
(0.00100148 4.00228e-06 0)
(0.00100302 4.22486e-06 0)
(0.00100593 2.36919e-06 0)
(0.00100901 -9.82702e-07 0)
(0.00100906 -4.53793e-06 0)
(0.00100542 -5.00982e-06 0)
(0.00100065 -3.11786e-06 0)
(0.000998043 -1.12628e-06 0)
(0.000998118 -2.60236e-07 0)
(0.000999607 -3.41092e-07 0)
(0.00100063 -7.50003e-07 0)
(0.00100105 -9.6293e-07 0)
(0.00100053 -1.06993e-06 0)
(0.001 1.00142e-07 0)
(0.001 3.3602e-07 0)
(0.00100001 5.98871e-07 0)
(0.00100006 9.31925e-07 0)
(0.00100018 1.32801e-06 0)
(0.00100045 1.86026e-06 0)
(0.00100096 2.40037e-06 0)
(0.00100184 2.98926e-06 0)
(0.00100316 3.12457e-06 0)
(0.00100467 2.73665e-06 0)
(0.00100567 5.05427e-07 0)
(0.00100527 -2.75476e-06 0)
(0.00100338 -5.06746e-06 0)
(0.00100095 -5.05615e-06 0)
(0.000999396 -3.44276e-06 0)
(0.000999106 -1.80396e-06 0)
(0.00099973 -1.04172e-06 0)
(0.00100024 -1.06738e-06 0)
(0.0010006 -1.29968e-06 0)
(0.00100022 -1.51048e-06 0)
(0.001 1.01798e-07 0)
(0.00100002 3.25351e-07 0)
(0.00100007 5.65335e-07 0)
(0.00100017 8.21644e-07 0)
(0.00100035 1.1159e-06 0)
(0.00100065 1.4483e-06 0)
(0.0010011 1.78132e-06 0)
(0.00100173 1.96761e-06 0)
(0.00100247 1.7974e-06 0)
(0.00100316 1.03694e-06 0)
(0.00100365 -2.8622e-07 0)
(0.00100362 -1.78205e-06 0)
(0.00100291 -2.69823e-06 0)
(0.0010017 -2.61572e-06 0)
(0.00100057 -1.77204e-06 0)
(0.00099989 -9.04526e-07 0)
(0.000999845 -4.47033e-07 0)
(0.000999968 -4.55977e-07 0)
(0.0010002 -6.07755e-07 0)
(0.000999988 -8.42882e-07 0)
(0.001 8.9861e-08 0)
(0.00100003 2.87127e-07 0)
(0.0010001 4.83809e-07 0)
(0.00100023 6.76958e-07 0)
(0.00100041 8.72006e-07 0)
(0.00100068 1.07367e-06 0)
(0.00100104 1.2336e-06 0)
(0.00100149 1.27017e-06 0)
(0.00100199 1.0883e-06 0)
(0.00100247 6.58035e-07 0)
(0.00100279 9.9651e-09 0)
(0.00100274 -7.75009e-07 0)
(0.00100226 -1.44208e-06 0)
(0.00100145 -1.7605e-06 0)
(0.00100061 -1.66056e-06 0)
(0.000999995 -1.35607e-06 0)
(0.000999781 -1.04859e-06 0)
(0.00099975 -9.44047e-07 0)
(0.000999869 -9.35546e-07 0)
(0.000999751 -1.10272e-06 0)
(0.001 7.23792e-08 0)
(0.00100003 2.30573e-07 0)
(0.00100011 3.80738e-07 0)
(0.00100024 5.14983e-07 0)
(0.00100042 6.3881e-07 0)
(0.00100065 7.56122e-07 0)
(0.00100094 8.406e-07 0)
(0.00100127 8.41511e-07 0)
(0.00100162 7.05098e-07 0)
(0.0010019 4.07929e-07 0)
(0.00100205 -5.36766e-08 0)
(0.00100199 -5.79923e-07 0)
(0.0010017 -1.02771e-06 0)
(0.00100119 -1.2677e-06 0)
(0.00100064 -1.22228e-06 0)
(0.00100015 -1.00164e-06 0)
(0.000999902 -7.19337e-07 0)
(0.000999724 -5.62533e-07 0)
(0.000999736 -4.77502e-07 0)
(0.000999546 -5.92769e-07 0)
(0.001 5.27653e-08 0)
(0.00100003 1.67337e-07 0)
(0.00100011 2.68918e-07 0)
(0.00100024 3.49437e-07 0)
(0.0010004 4.16413e-07 0)
(0.0010006 4.74964e-07 0)
(0.00100084 5.10996e-07 0)
(0.0010011 4.86e-07 0)
(0.00100136 3.72848e-07 0)
(0.00100156 1.57425e-07 0)
(0.00100166 -1.22654e-07 0)
(0.00100159 -4.23432e-07 0)
(0.00100138 -6.74091e-07 0)
(0.00100102 -8.30759e-07 0)
(0.00100063 -8.43941e-07 0)
(0.00100021 -7.75515e-07 0)
(0.000999938 -6.504e-07 0)
(0.000999673 -6.00639e-07 0)
(0.000999612 -5.533e-07 0)
(0.000999374 -6.8001e-07 0)
(0.001 3.55658e-08 0)
(0.00100003 1.15278e-07 0)
(0.0010001 1.88511e-07 0)
(0.00100022 2.48538e-07 0)
(0.00100037 2.98572e-07 0)
(0.00100054 3.43875e-07 0)
(0.00100075 3.76147e-07 0)
(0.00100096 3.76407e-07 0)
(0.00100115 3.2681e-07 0)
(0.00100129 2.25047e-07 0)
(0.00100135 8.29692e-08 0)
(0.0010013 -7.24137e-08 0)
(0.00100114 -2.02203e-07 0)
(0.00100085 -2.89828e-07 0)
(0.00100053 -3.07352e-07 0)
(0.00100016 -2.84039e-07 0)
(0.000999889 -2.10526e-07 0)
(0.000999595 -1.71177e-07 0)
(0.000999501 -1.13097e-07 0)
(0.000999236 -1.95337e-07 0)
(0.00100001 -4.1471e-09 0)
(0.00100003 -7.258e-09 0)
(0.00100011 -8.87043e-09 0)
(0.00100023 -1.23797e-08 0)
(0.00100037 -1.79346e-08 0)
(0.00100054 -2.48101e-08 0)
(0.00100073 -3.40029e-08 0)
(0.00100093 -5.1685e-08 0)
(0.00100111 -7.97592e-08 0)
(0.00100123 -1.21613e-07 0)
(0.00100127 -1.71334e-07 0)
(0.0010012 -2.31526e-07 0)
(0.00100106 -2.88061e-07 0)
(0.0010008 -3.38021e-07 0)
(0.00100053 -3.57732e-07 0)
(0.00100018 -3.68624e-07 0)
(0.000999934 -3.44961e-07 0)
(0.000999591 -3.53456e-07 0)
(0.000999505 -3.25583e-07 0)
(0.000999117 -4.09187e-07 0)
)
;

boundaryField
{
    sides
    {
        type            slip;
    }
    inlet
    {
        type            fixedValue;
        value           uniform (0.001 0 0);
    }
    outlet
    {
        type            zeroGradient;
    }
    frontAndBack
    {
        type            empty;
    }
}


// ************************************************************************* //
