/*--------------------------------*- C++ -*----------------------------------*\
  =========                 |
  \\      /  F ield         | OpenFOAM: The Open Source CFD Toolbox
   \\    /   O peration     | Website:  https://openfoam.org
    \\  /    A nd           | Version:  9
     \\/     M anipulation  |
\*---------------------------------------------------------------------------*/
FoamFile
{
    format      ascii;
    class       surfaceScalarField;
    location    "44";
    object      phi;
}
// * * * * * * * * * * * * * * * * * * * * * * * * * * * * * * * * * * * * * //

dimensions      [0 4 -1 0 0 0 0];

internalField   nonuniform List<scalar> 
760
(
5.00002e-06
-9.73637e-11
5.00031e-06
-3.42504e-10
5.00083e-06
-5.60852e-10
5.00155e-06
-7.33003e-10
5.00241e-06
-8.73038e-10
5.0034e-06
-9.97753e-10
5.00447e-06
-1.07482e-09
5.00552e-06
-1.04826e-09
5.00637e-06
-8.59208e-10
5.00689e-06
-5.2725e-10
5.00699e-06
-1.0958e-10
5.00658e-06
4.06368e-10
5.00573e-06
8.41151e-10
5.00464e-06
1.07677e-09
5.00348e-06
1.15395e-09
5.00251e-06
9.59449e-10
5.00176e-06
7.40067e-10
5.00152e-06
2.45353e-10
5.00145e-06
6.65072e-11
-4.03066e-10
5.00006e-06
-2.21691e-10
5.00036e-06
-7.01945e-10
5.00091e-06
-1.13723e-09
5.00165e-06
-1.49777e-09
5.00257e-06
-1.80442e-09
5.00365e-06
-2.0812e-09
5.00485e-06
-2.273e-09
5.00606e-06
-2.25705e-09
5.0071e-06
-1.90638e-09
5.00775e-06
-1.17636e-09
5.00769e-06
-6.06372e-11
5.00718e-06
9.04764e-10
5.00619e-06
1.81837e-09
5.00489e-06
2.36499e-09
5.00363e-06
2.41061e-09
5.00272e-06
1.86099e-09
5.00217e-06
1.27552e-09
5.00183e-06
5.77311e-10
5.00158e-06
3.1713e-10
-1.75386e-10
5.00005e-06
-3.34613e-10
5.00035e-06
-1.04644e-09
5.00088e-06
-1.70434e-09
5.00165e-06
-2.28404e-09
5.00264e-06
-2.80552e-09
5.00386e-06
-3.2961e-09
5.00524e-06
-3.66142e-09
5.00667e-06
-3.67994e-09
5.00789e-06
-3.13254e-09
5.00868e-06
-1.9663e-09
5.00888e-06
-2.68241e-10
5.00819e-06
1.59277e-09
5.0068e-06
3.1951e-09
5.00509e-06
4.06535e-09
5.00345e-06
4.0474e-09
5.00224e-06
3.06717e-09
5.00157e-06
1.94074e-09
5.00138e-06
7.62499e-10
5.00139e-06
3.01936e-10
-2.51168e-10
5.00005e-06
-4.37903e-10
5.00034e-06
-1.37354e-09
5.00087e-06
-2.26577e-09
5.00167e-06
-3.10362e-09
5.00278e-06
-3.91176e-09
5.00421e-06
-4.72868e-09
5.00594e-06
-5.39872e-09
5.0079e-06
-5.63407e-09
5.0098e-06
-5.02921e-09
5.01103e-06
-3.20156e-09
5.01115e-06
-3.73427e-10
5.00993e-06
2.80214e-09
5.00758e-06
5.53621e-09
5.00508e-06
6.56566e-09
5.00341e-06
5.71369e-09
5.00264e-06
3.83941e-09
5.00241e-06
2.16195e-09
5.00224e-06
9.32192e-10
5.00191e-06
6.23497e-10
3.04188e-10
5.00005e-06
-5.21858e-10
5.00028e-06
-1.63952e-09
5.00076e-06
-2.77001e-09
5.00156e-06
-3.91358e-09
5.00278e-06
-5.13948e-09
5.0045e-06
-6.45142e-09
5.00673e-06
-7.62892e-09
5.00936e-06
-8.25712e-09
5.01234e-06
-8.00433e-09
5.01475e-06
-5.59901e-09
5.01476e-06
-4.13464e-10
5.01279e-06
4.79458e-09
5.00861e-06
9.70776e-09
5.00453e-06
1.06356e-08
5.00217e-06
8.07314e-09
5.00167e-06
4.34468e-09
5.00196e-06
1.87198e-09
5.00217e-06
7.1951e-10
5.00195e-06
8.46934e-10
5.87053e-10
5.00002e-06
-5.63446e-10
5.00015e-06
-1.79119e-09
5.00047e-06
-3.10499e-09
5.00113e-06
-4.58634e-09
5.00234e-06
-6.34603e-09
5.00445e-06
-8.57285e-09
5.00754e-06
-1.07096e-08
5.01162e-06
-1.23222e-08
5.01546e-06
-1.18635e-08
5.01896e-06
-9.06146e-09
5.02017e-06
-1.63374e-09
5.01597e-06
8.97308e-09
5.00946e-06
1.62377e-08
5.00415e-06
1.59388e-08
5.00209e-06
1.01162e-08
5.00242e-06
4.01716e-09
5.0032e-06
1.09087e-09
5.00332e-06
5.97155e-10
5.00272e-06
1.45475e-09
1.38721e-09
4.99997e-06
-5.4099e-10
4.9999e-06
-1.73349e-09
4.99997e-06
-3.17729e-09
5.00028e-06
-4.90748e-09
5.00115e-06
-7.21374e-09
5.00286e-06
-1.02807e-08
5.00675e-06
-1.45863e-08
5.01386e-06
-1.94382e-08
5.02371e-06
-2.16729e-08
5.03085e-06
-1.62704e-08
5.0287e-06
6.00114e-10
5.01669e-06
2.09528e-08
5.00413e-06
2.87801e-08
4.99867e-06
2.13997e-08
5.0005e-06
8.2799e-09
5.00277e-06
1.73904e-09
5.00364e-06
2.06473e-10
5.00359e-06
6.52787e-10
5.00297e-06
2.07723e-09
1.65151e-09
4.99986e-06
-4.01678e-10
4.99953e-06
-1.39393e-09
4.99906e-06
-2.7174e-09
4.99878e-06
-4.61953e-09
4.99926e-06
-7.69298e-09
5.00031e-06
-1.13189e-08
5.0036e-06
-1.78696e-08
5.00977e-06
-2.55859e-08
5.02482e-06
-3.67369e-08
5.05607e-06
-4.75085e-08
5.04999e-06
7.37201e-09
5.02316e-06
4.78428e-08
4.99814e-06
5.37881e-08
4.99343e-06
2.60907e-08
4.99939e-06
2.30758e-09
5.00398e-06
-2.8724e-09
5.00483e-06
-6.45393e-10
5.00366e-06
1.82538e-09
5.00342e-06
2.31158e-09
9.47142e-10
4.99977e-06
-1.63326e-10
4.99913e-06
-7.46102e-10
4.99786e-06
-1.44045e-09
4.99603e-06
-2.7821e-09
4.99395e-06
-5.6031e-09
4.99369e-06
-1.10471e-08
4.99941e-06
-2.35716e-08
5.01707e-06
-4.32511e-08
5.05563e-06
-7.52588e-08
5.06675e-06
-5.86344e-08
5.0497e-06
2.37566e-08
4.99646e-06
1.01024e-07
4.98927e-06
6.09957e-08
4.99585e-06
1.95173e-08
5.00011e-06
-1.96864e-09
5.00285e-06
-5.62462e-09
5.00245e-06
-2.54659e-10
5.00177e-06
2.49542e-09
5.00245e-06
1.62754e-09
6.42249e-11
4.99986e-06
-1.53505e-11
4.99918e-06
-5.55063e-11
4.99785e-06
-9.71218e-11
4.99523e-06
-1.45701e-10
4.98984e-06
-1.9388e-10
4.97905e-06
-2.48147e-10
4.95578e-06
-2.94543e-10
4.91289e-06
-3.49558e-10
4.83804e-06
-4.23104e-10
4.77995e-06
-4.32041e-10
4.80422e-06
-6.06404e-10
4.90601e-06
-6.98672e-10
4.96776e-06
-7.22369e-10
4.98817e-06
-8.98677e-10
4.98737e-06
-1.17102e-09
4.98318e-06
-1.44697e-09
4.98449e-06
-1.58807e-09
4.98883e-06
-1.85672e-09
4.99238e-06
-1.93078e-09
-2.59055e-09
4.99986e-06
1.32569e-10
4.99918e-06
6.3508e-10
4.99785e-06
1.25257e-09
4.99522e-06
2.49724e-09
4.98981e-06
5.22562e-09
4.97902e-06
1.05626e-08
4.95573e-06
2.29955e-08
4.91283e-06
4.25592e-08
4.83797e-06
7.44786e-08
4.77968e-06
5.78646e-08
4.80421e-06
-2.50289e-08
4.90596e-06
-1.02449e-07
4.96772e-06
-6.24871e-08
4.98801e-06
-2.11726e-08
4.98728e-06
-4.4113e-10
4.98285e-06
2.969e-09
4.98436e-06
-3.10862e-09
4.98882e-06
-6.32037e-09
4.99226e-06
-5.37156e-09
-4.98084e-09
4.99977e-06
3.70069e-10
4.99912e-06
1.2894e-09
4.99786e-06
2.53095e-09
4.99603e-06
4.33925e-09
4.99396e-06
7.30899e-09
4.99369e-06
1.08429e-08
4.99938e-06
1.73101e-08
5.017e-06
2.49363e-08
5.05555e-06
3.59747e-08
5.06703e-06
4.63834e-08
5.04942e-06
-8.08442e-09
4.99608e-06
-4.90916e-08
4.98881e-06
-5.52241e-08
4.99564e-06
-2.79888e-08
5.00004e-06
-4.83878e-09
5.00223e-06
7.64446e-10
5.00159e-06
-2.47507e-09
5.00084e-06
-5.57369e-09
5.00159e-06
-6.12738e-09
-5.9375e-09
4.99986e-06
5.09797e-10
4.99952e-06
1.6344e-09
4.99906e-06
3.00275e-09
4.99876e-06
4.64375e-09
4.99921e-06
6.86247e-09
5.00022e-06
9.84254e-09
5.00343e-06
1.4107e-08
5.00955e-06
1.88321e-08
5.02452e-06
2.09802e-08
5.0555e-06
1.54437e-08
5.04973e-06
-1.66161e-09
5.02279e-06
-2.21742e-08
4.99784e-06
-3.02468e-08
4.9931e-06
-2.32654e-08
4.99856e-06
-1.03171e-08
5.00337e-06
-4.0625e-09
5.00365e-06
-2.76102e-09
5.00229e-06
-4.20605e-09
5.00207e-06
-5.9178e-09
-6.51445e-09
4.99997e-06
5.35223e-10
4.9999e-06
1.70108e-09
4.99995e-06
2.9476e-09
5.00024e-06
4.35336e-09
5.00107e-06
6.03631e-09
5.00273e-06
8.17858e-09
5.00663e-06
1.023e-08
5.01373e-06
1.174e-08
5.02351e-06
1.1192e-08
5.03064e-06
8.29697e-09
5.02835e-06
6.09163e-10
5.01623e-06
-1.00237e-08
5.00346e-06
-1.75052e-08
4.99772e-06
-1.75361e-08
4.99934e-06
-1.19534e-08
5.00153e-06
-6.26387e-09
5.00234e-06
-3.56623e-09
5.00206e-06
-3.93248e-09
5.00111e-06
-4.96972e-09
-5.95161e-09
5.00002e-06
4.98268e-10
5.00014e-06
1.56222e-09
5.00045e-06
2.63189e-09
5.00108e-06
3.70956e-09
5.00225e-06
4.86736e-09
5.00433e-06
6.10476e-09
5.00736e-06
7.21337e-09
5.01134e-06
7.77044e-09
5.01507e-06
7.45851e-09
5.01848e-06
4.88057e-09
5.01951e-06
-4.33577e-10
5.01518e-06
-5.72304e-09
5.00849e-06
-1.08267e-08
5.00305e-06
-1.21053e-08
5.0008e-06
-9.71879e-09
5.00094e-06
-6.39626e-09
5.00148e-06
-4.11292e-09
5.00124e-06
-3.69236e-09
5.00027e-06
-4.00204e-09
-4.95013e-09
5.00005e-06
4.1781e-10
5.00027e-06
1.31124e-09
5.00074e-06
2.15269e-09
5.0015e-06
2.93106e-09
5.00268e-06
3.68629e-09
5.00433e-06
4.44922e-09
5.00649e-06
5.06745e-09
5.00903e-06
5.23416e-09
5.01198e-06
4.52115e-09
5.01435e-06
2.51537e-09
5.01411e-06
-1.8569e-10
5.01204e-06
-3.66026e-09
5.0077e-06
-6.49624e-09
5.00343e-06
-7.84361e-09
5.00087e-06
-7.15959e-09
5.00007e-06
-5.59189e-09
5.00003e-06
-4.07587e-09
4.99979e-06
-3.45689e-09
4.99909e-06
-3.29704e-09
-4.14577e-09
5.00005e-06
3.1378e-10
5.00033e-06
9.98275e-10
5.00084e-06
1.62257e-09
5.00161e-06
2.15203e-09
5.00266e-06
2.62505e-09
5.00404e-06
3.07012e-09
5.00571e-06
3.39687e-09
5.00757e-06
3.38241e-09
5.00928e-06
2.81756e-09
5.01022e-06
1.57729e-09
5.01037e-06
-3.34667e-10
5.00897e-06
-2.25465e-09
5.00645e-06
-3.97752e-09
5.00363e-06
-5.02188e-09
5.0015e-06
-5.02463e-09
5.00029e-06
-4.38148e-09
4.99963e-06
-3.41822e-09
4.99908e-06
-2.91185e-09
4.99837e-06
-2.58133e-09
-3.19087e-09
5.00005e-06
2.05644e-10
5.00034e-06
6.63756e-10
5.00086e-06
1.07528e-09
5.0016e-06
1.4028e-09
5.00254e-06
1.67443e-09
5.00369e-06
1.91701e-09
5.00501e-06
2.07475e-09
5.00639e-06
2.00571e-09
5.00761e-06
1.60244e-09
5.00835e-06
8.38147e-10
5.00817e-06
-1.54418e-10
5.00728e-06
-1.36629e-09
5.00564e-06
-2.34392e-09
5.00364e-06
-3.01405e-09
5.00175e-06
-3.14028e-09
5.00028e-06
-2.91581e-09
4.99924e-06
-2.37559e-09
4.99844e-06
-2.10569e-09
4.99765e-06
-1.79411e-09
-2.25804e-09
5.00003e-06
1.16311e-10
5.0003e-06
3.40917e-10
5.0008e-06
5.42206e-10
5.00148e-06
6.98503e-10
5.00233e-06
8.208e-10
5.00332e-06
9.28315e-10
5.0044e-06
9.96847e-10
5.00544e-06
9.59434e-10
5.00629e-06
7.59642e-10
5.00676e-06
3.64946e-10
5.00675e-06
-1.50264e-10
5.00601e-06
-6.31895e-10
5.00474e-06
-1.07493e-09
5.00312e-06
-1.40107e-09
5.00146e-06
-1.48166e-09
4.99997e-06
-1.44143e-09
4.9988e-06
-1.20855e-09
4.99783e-06
-1.13905e-09
4.99699e-06
-9.55354e-10
-1.41346e-09
5.00006e-06
5.00034e-06
5.00084e-06
5.00152e-06
5.00234e-06
5.00327e-06
5.00427e-06
5.00523e-06
5.00599e-06
5.00636e-06
5.0062e-06
5.00556e-06
5.00448e-06
5.00307e-06
5.00157e-06
5.00012e-06
4.9989e-06
4.99776e-06
4.99679e-06
)
;

boundaryField
{
    sides
    {
        type            calculated;
        value           uniform 0;
    }
    inlet
    {
        type            calculated;
        value           nonuniform List<scalar> 
20
(
-5e-06
-5e-06
-5e-06
-5e-06
-5e-06
-5e-06
-5e-06
-5e-06
-5e-06
-5e-06
-5e-06
-5e-06
-5e-06
-5e-06
-5e-06
-5e-06
-5e-06
-5e-06
-5e-06
-5e-06
)
;
    }
    outlet
    {
        type            calculated;
        value           nonuniform List<scalar> 
20
(
5.00185e-06
5.00135e-06
5.00147e-06
5.00136e-06
5.00167e-06
5.00192e-06
5.00271e-06
5.00413e-06
5.00333e-06
4.99504e-06
4.99465e-06
5.00255e-06
5.00265e-06
5.00054e-06
4.99926e-06
4.99828e-06
4.99742e-06
4.99672e-06
4.99614e-06
4.99537e-06
)
;
    }
    frontAndBack
    {
        type            empty;
        value           nonuniform List<scalar> 0();
    }
}


// ************************************************************************* //
