/*--------------------------------*- C++ -*----------------------------------*\
  =========                 |
  \\      /  F ield         | OpenFOAM: The Open Source CFD Toolbox
   \\    /   O peration     | Website:  https://openfoam.org
    \\  /    A nd           | Version:  9
     \\/     M anipulation  |
\*---------------------------------------------------------------------------*/
FoamFile
{
    format      ascii;
    class       volScalarField;
    location    "94";
    object      ddt0(h);
}
// * * * * * * * * * * * * * * * * * * * * * * * * * * * * * * * * * * * * * //

dimensions      [0 1 -1 0 0 0 0];

internalField   nonuniform List<scalar> 
400
(
-2.01501e-08
1.75589e-09
1.93907e-08
1.71239e-09
-1.694e-08
8.72604e-09
4.71465e-09
9.19204e-09
-2.61733e-08
-1.3852e-08
-5.75385e-09
-9.17935e-09
-3.21802e-09
-2.45397e-08
-1.26444e-08
-7.09964e-09
-1.61918e-08
-1.02266e-08
1.22721e-08
1.08488e-08
-1.2721e-08
2.92884e-09
4.61154e-09
-3.67139e-09
8.71218e-09
1.19817e-09
5.42109e-09
-6.56932e-09
-3.79165e-09
-1.79554e-08
5.02266e-09
-6.79611e-09
-1.00309e-08
-5.79384e-09
-9.56067e-09
1.54783e-09
-6.61038e-09
-1.89931e-08
-1.25995e-08
4.61688e-10
-6.1943e-09
-3.55124e-09
-1.13874e-08
9.32661e-09
2.26397e-08
-1.36272e-08
3.66636e-10
-7.30973e-09
5.66774e-09
6.86329e-09
-1.5083e-08
2.1458e-08
-1.25269e-08
3.8638e-09
1.14909e-08
1.07184e-08
8.55714e-10
-1.53987e-08
-1.49593e-08
-5.96465e-09
-6.00885e-10
-6.96091e-09
-7.14605e-09
1.54225e-08
-3.50459e-10
-1.42571e-08
-1.01157e-08
1.77173e-08
-1.06545e-08
3.73384e-08
1.95583e-08
-1.37795e-08
3.87808e-08
-4.24673e-09
7.54507e-09
2.20132e-08
1.52714e-08
5.96398e-09
-1.77503e-09
-2.82336e-09
7.30346e-09
-6.56161e-10
6.71144e-10
3.0066e-09
-1.5017e-08
-2.58777e-08
1.85797e-08
-3.30511e-08
7.2991e-08
-6.36294e-08
1.45861e-07
-1.45293e-09
-1.16617e-08
5.34435e-08
8.51885e-09
-2.60135e-11
1.69918e-08
2.6144e-08
1.56537e-08
2.5766e-09
1.66883e-08
6.42535e-09
-9.99887e-10
-4.15004e-09
-3.28772e-08
3.72042e-09
-1.14819e-08
2.03017e-08
-8.1756e-09
9.12832e-08
-8.32192e-08
2.13135e-07
-1.68232e-08
-2.34952e-08
2.03367e-08
1.27218e-10
9.04947e-09
3.28688e-08
2.53369e-08
5.67128e-09
2.16545e-08
5.01963e-09
-3.65291e-09
-1.4754e-08
-1.55232e-08
4.50406e-09
1.42437e-08
4.63144e-09
-3.55886e-08
2.96608e-07
-4.35825e-07
-1.86393e-07
1.43932e-07
7.33081e-09
-2.97466e-08
-1.94805e-08
-1.01883e-09
2.15153e-08
1.69871e-08
2.13628e-09
1.6282e-08
-1.32109e-09
-9.61669e-09
-9.24896e-09
-5.53253e-09
3.29198e-08
3.35944e-09
-2.5038e-08
1.54361e-07
-5.64215e-07
2.02742e-06
-4.50935e-07
-8.05429e-08
4.49961e-08
-8.16563e-09
-3.75892e-08
-1.57812e-08
1.08427e-09
2.48085e-09
-1.13869e-09
3.77557e-09
-8.3343e-09
-1.10141e-08
-4.19998e-09
2.09148e-08
1.83362e-08
1.76938e-08
-2.35181e-08
-2.12417e-07
5.42789e-07
-2.04417e-06
4.71053e-07
1.13103e-07
-3.50694e-08
-2.35301e-08
-3.68575e-08
-8.08241e-08
-1.71981e-08
-9.8474e-09
6.64473e-09
-8.00031e-09
-1.01672e-08
-9.17502e-09
6.81756e-09
2.79679e-08
1.56837e-08
-2.92443e-08
-1.53448e-08
5.94719e-08
-3.08308e-07
5.34203e-07
2.15571e-07
-1.38157e-07
3.21482e-08
2.91984e-08
-7.92481e-09
1.56756e-08
-3.10429e-08
-1.7008e-08
-1.46433e-08
-1.41326e-08
-4.18298e-09
-2.91558e-09
8.82883e-09
3.00106e-08
-9.25393e-09
-2.31784e-08
-6.69144e-10
5.97981e-08
1.24805e-07
-5.48654e-07
-2.2071e-07
7.79773e-08
4.99513e-08
2.72423e-08
1.59824e-08
-1.06393e-08
-2.05842e-08
-9.99445e-09
-1.78007e-10
-1.25267e-08
2.28715e-09
7.10537e-09
-7.42985e-10
1.7934e-08
-2.76876e-09
-2.95077e-08
1.43454e-08
9.21341e-08
-3.38917e-07
5.95475e-06
-5.67533e-07
-4.5384e-10
2.53293e-08
2.44803e-08
1.59486e-08
-4.82833e-09
-8.6567e-09
3.04268e-09
6.6081e-09
-3.53967e-09
5.50003e-09
9.37137e-09
-7.24157e-09
-5.67095e-09
1.78946e-08
3.7375e-10
-8.72573e-09
-1.25486e-07
4.59957e-07
-6.26424e-06
6.71738e-07
5.38054e-09
-4.27336e-08
-1.9974e-08
-1.35e-08
-5.78221e-09
2.81915e-09
1.17825e-08
8.27605e-09
7.05775e-09
1.01265e-09
7.46055e-09
-8.66709e-09
-1.77897e-08
1.77692e-08
3.7947e-08
-3.27113e-08
-3.14702e-08
-2.53809e-07
8.40139e-07
-5.99201e-08
-6.57698e-08
-4.1334e-08
-4.6123e-08
-1.83736e-08
7.4339e-09
1.17896e-08
7.29906e-09
2.66459e-09
9.62318e-09
-1.17154e-09
-1.10866e-09
3.39562e-09
-2.27739e-08
3.01799e-09
3.63678e-08
3.2066e-08
-5.98937e-08
-5.99242e-09
-1.36383e-07
-7.98933e-08
-5.54805e-08
-7.1652e-08
-3.02557e-08
5.83379e-09
2.60459e-08
1.97215e-08
1.25062e-09
-3.98417e-09
1.47262e-09
4.42635e-09
-1.12088e-09
6.00324e-09
-1.04864e-08
-2.54998e-08
1.65497e-08
3.60283e-08
2.84643e-08
-5.0873e-09
-3.61245e-08
-1.70867e-08
-5.09301e-08
-1.9893e-08
1.26638e-08
3.27634e-08
3.75563e-08
2.43034e-08
4.36726e-09
-2.67832e-09
-1.12561e-08
1.28665e-08
9.19819e-09
1.06967e-09
-4.4576e-09
-3.71305e-08
-1.3266e-08
1.74959e-08
4.80806e-08
2.43353e-08
3.46357e-08
1.44463e-08
1.52482e-08
2.91523e-08
3.73628e-08
4.23417e-08
3.01558e-08
1.75626e-08
1.21904e-08
4.98297e-09
-1.48602e-08
9.92704e-09
1.46608e-08
-3.18493e-09
-2.99665e-09
-2.25655e-08
-2.5497e-08
-1.84101e-09
1.61062e-08
1.82809e-08
2.45001e-08
2.18937e-08
3.48222e-08
2.94756e-08
2.69564e-08
2.38082e-08
6.28472e-09
-6.40705e-10
7.44472e-09
6.44537e-09
-2.35661e-09
-4.5399e-09
1.51426e-09
4.10674e-10
4.54913e-10
1.41059e-09
-8.53201e-09
-5.46555e-09
-9.28527e-09
-5.22436e-09
-5.78461e-09
5.29744e-09
1.54834e-08
4.26018e-09
-5.37732e-09
-6.88539e-09
-9.89472e-09
-1.603e-08
-1.47215e-08
-5.44777e-09
1.72594e-08
-1.57661e-08
-1.82278e-08
2.61082e-09
7.27427e-09
1.7288e-08
1.20377e-08
-6.49601e-10
-1.72796e-08
-1.85969e-08
-2.37891e-08
-1.29552e-08
-5.00702e-09
-1.5977e-08
-3.16821e-08
-2.69622e-08
-1.28601e-08
-2.32019e-08
-3.82133e-08
-2.03856e-08
)
;

boundaryField
{
    sides
    {
        type            calculated;
        value           nonuniform List<scalar> 
40
(
1.72594e-08
-1.57661e-08
-1.82278e-08
2.61082e-09
7.27427e-09
1.7288e-08
1.20377e-08
-6.49601e-10
-1.72796e-08
-1.85969e-08
-2.37891e-08
-1.29552e-08
-5.00702e-09
-1.5977e-08
-3.16821e-08
-2.69622e-08
-1.28601e-08
-2.32019e-08
-3.82133e-08
-2.03856e-08
-2.01501e-08
1.75589e-09
1.93907e-08
1.71239e-09
-1.694e-08
8.72604e-09
4.71465e-09
9.19204e-09
-2.61733e-08
-1.3852e-08
-5.75385e-09
-9.17935e-09
-3.21802e-09
-2.45397e-08
-1.26444e-08
-7.09964e-09
-1.61918e-08
-1.02266e-08
1.22721e-08
1.08488e-08
)
;
    }
    inlet
    {
        type            calculated;
        value           nonuniform List<scalar> 
20
(
-2.01501e-08
-1.2721e-08
-6.1943e-09
-6.00885e-10
7.30346e-09
1.66883e-08
2.16545e-08
1.6282e-08
3.77557e-09
-8.00031e-09
-1.41326e-08
-1.25267e-08
-3.53967e-09
7.05775e-09
9.62318e-09
1.47262e-09
-1.12561e-08
-1.48602e-08
-2.35661e-09
1.72594e-08
)
;
    }
    outlet
    {
        type            calculated;
        value           uniform 0;
    }
    frontAndBack
    {
        type            empty;
    }
}


// ************************************************************************* //
