/*--------------------------------*- C++ -*----------------------------------*\
  =========                 |
  \\      /  F ield         | OpenFOAM: The Open Source CFD Toolbox
   \\    /   O peration     | Website:  https://openfoam.org
    \\  /    A nd           | Version:  9
     \\/     M anipulation  |
\*---------------------------------------------------------------------------*/
FoamFile
{
    format      ascii;
    class       volVectorField;
    location    "94";
    object      ddt0(hU);
}
// * * * * * * * * * * * * * * * * * * * * * * * * * * * * * * * * * * * * * //

dimensions      [0 2 -2 0 0 0 0];

internalField   nonuniform List<vector> 
400
(
(-1.38211e-09 -4.96062e-10 0)
(7.92772e-10 -9.26474e-10 0)
(-6.40549e-10 -3.53763e-10 0)
(-9.589e-10 1.87867e-09 0)
(-1.08254e-09 8.29065e-10 0)
(-1.00921e-10 -5.05325e-11 0)
(-1.20263e-09 1.27776e-09 0)
(1.19377e-09 1.38663e-09 0)
(1.476e-10 1.4257e-09 0)
(2.93343e-09 1.10284e-09 0)
(2.16162e-09 -1.544e-09 0)
(-2.45333e-10 4.85858e-10 0)
(-8.64096e-10 -1.54983e-09 0)
(-5.5406e-09 2.07058e-10 0)
(-3.23392e-09 6.11408e-10 0)
(-2.39044e-09 -4.29892e-10 0)
(-2.25048e-09 4.40319e-10 0)
(1.77859e-09 3.45103e-10 0)
(2.87859e-09 -1.11266e-09 0)
(-2.12809e-09 -1.10591e-09 0)
(-1.33888e-09 -8.03763e-10 0)
(4.29104e-10 -1.66256e-09 0)
(6.68159e-10 -5.85647e-11 0)
(-1.03041e-10 3.24971e-09 0)
(-4.32921e-10 1.69258e-10 0)
(-4.70078e-10 1.14034e-09 0)
(2.78049e-10 2.83569e-09 0)
(-2.92982e-10 4.66701e-09 0)
(2.14128e-09 2.04161e-09 0)
(-3.54418e-10 2.27621e-09 0)
(2.5734e-09 -2.44358e-09 0)
(7.25782e-11 -1.86286e-09 0)
(-2.00105e-09 -2.05703e-09 0)
(-1.46267e-09 -1.45267e-09 0)
(-3.51549e-09 -6.61876e-11 0)
(-1.67206e-09 -8.30264e-10 0)
(-4.61992e-10 1.14503e-09 0)
(-7.51006e-10 1.52877e-09 0)
(-1.34896e-09 -1.25582e-09 0)
(-1.53282e-09 -1.50112e-09 0)
(-1.23861e-09 1.78409e-10 0)
(-2.5159e-10 -3.92759e-10 0)
(1.15526e-09 4.6274e-10 0)
(4.66233e-10 -1.28399e-10 0)
(7.80897e-10 -7.93051e-10 0)
(2.91664e-10 2.78768e-09 0)
(1.72406e-09 3.90351e-09 0)
(-1.30364e-09 4.33611e-09 0)
(9.15998e-10 3.72423e-09 0)
(8.0031e-10 -1.75461e-09 0)
(-2.93653e-09 2.33775e-09 0)
(3.22106e-09 -6.22661e-09 0)
(-1.58271e-09 -3.35158e-09 0)
(-7.86283e-10 -2.03008e-09 0)
(-6.23973e-11 -2.94523e-09 0)
(7.17468e-10 -1.87253e-09 0)
(1.92204e-09 7.92369e-10 0)
(-1.3758e-09 1.47932e-09 0)
(-3.28164e-09 -7.7247e-11 0)
(-1.24231e-09 -3.3325e-10 0)
(-1.04826e-09 1.35527e-09 0)
(-1.68046e-09 1.01835e-09 0)
(-2.17291e-10 -4.70231e-10 0)
(9.34206e-10 -3.08611e-09 0)
(1.73759e-09 -1.50541e-10 0)
(2.68128e-09 2.74894e-09 0)
(-6.26011e-12 2.4945e-09 0)
(1.80446e-09 1.48109e-09 0)
(-4.51643e-09 3.78564e-09 0)
(3.87559e-09 -1.18187e-09 0)
(3.18729e-11 -9.65608e-09 0)
(-6.7424e-09 9.61401e-10 0)
(7.00458e-09 -8.01313e-09 0)
(-1.00815e-09 -3.09798e-09 0)
(-1.58424e-09 -9.36208e-10 0)
(4.37845e-09 -1.64038e-09 0)
(5.19001e-09 -4.02038e-10 0)
(5.26044e-10 8.95104e-10 0)
(-2.07915e-09 1.42887e-09 0)
(-2.50735e-10 6.84526e-10 0)
(-8.48848e-10 1.1365e-09 0)
(-3.46572e-09 1.10096e-09 0)
(-1.6413e-09 -6.8099e-10 0)
(5.24183e-10 -2.07377e-09 0)
(3.19455e-09 4.58854e-10 0)
(1.65728e-09 1.13618e-09 0)
(1.91097e-09 -2.39379e-09 0)
(-2.8524e-09 2.62502e-09 0)
(5.27139e-09 -7.07882e-09 0)
(-1.94638e-08 7.98111e-09 0)
(1.52813e-08 -1.89085e-08 0)
(2.96639e-09 -6.49753e-09 0)
(-6.32888e-09 3.12521e-09 0)
(1.13237e-08 -3.97257e-09 0)
(1.27725e-09 -4.20965e-10 0)
(4.29368e-10 1.08416e-09 0)
(6.15696e-09 -6.2688e-10 0)
(4.20839e-09 -8.98962e-10 0)
(-1.77796e-10 4.49475e-10 0)
(-7.48787e-10 4.43831e-10 0)
(-2.05936e-10 -3.77972e-10 0)
(-3.86442e-09 6.87437e-10 0)
(-2.68024e-09 5.74875e-10 0)
(5.45295e-10 5.81153e-10 0)
(2.07628e-09 1.28158e-09 0)
(1.5422e-09 -1.9628e-09 0)
(8.17829e-10 -2.7363e-09 0)
(-2.5731e-09 -5.04555e-09 0)
(7.26215e-10 7.42265e-10 0)
(-1.2973e-09 -2.77017e-08 0)
(-2.5612e-08 4.23003e-08 0)
(3.85198e-08 -3.31914e-08 0)
(3.8079e-09 -4.59813e-09 0)
(-7.06149e-09 3.77298e-09 0)
(5.11252e-09 2.13616e-10 0)
(2.37184e-09 1.28402e-09 0)
(2.58826e-09 -7.53891e-10 0)
(3.84157e-09 -2.83872e-09 0)
(2.08599e-09 -2.17327e-09 0)
(1.00593e-09 -6.07844e-10 0)
(9.23471e-10 -1.69393e-09 0)
(-3.05042e-09 1.58529e-10 0)
(-2.19371e-09 1.77774e-09 0)
(-1.1254e-10 2.75912e-09 0)
(9.70476e-10 1.30168e-09 0)
(4.78363e-10 -3.00998e-09 0)
(-1.92256e-09 -4.10789e-09 0)
(4.06134e-09 -4.38968e-09 0)
(-2.77166e-08 1.61831e-09 0)
(5.70697e-08 -4.0751e-08 0)
(-4.52311e-08 -4.93727e-09 0)
(-6.60978e-08 6.35453e-09 0)
(4.75315e-08 -1.78994e-08 0)
(1.13448e-08 2.70981e-09 0)
(-5.13312e-09 5.94679e-09 0)
(-2.02409e-09 2.27994e-09 0)
(2.74404e-10 -9.15987e-10 0)
(1.84143e-09 -3.01042e-09 0)
(1.83325e-09 -2.63023e-09 0)
(1.93191e-09 -9.1995e-10 0)
(1.38077e-09 -1.84822e-09 0)
(-1.17356e-09 -1.79104e-10 0)
(-1.12247e-09 2.08834e-09 0)
(-6.9133e-11 3.3816e-09 0)
(-6.65782e-10 2.02064e-10 0)
(-1.1278e-09 -2.91344e-09 0)
(5.95536e-10 -3.49472e-09 0)
(-1.52187e-09 -1.02203e-09 0)
(-1.87242e-08 7.2293e-10 0)
(-7.54795e-08 6.5022e-08 0)
(2.37037e-07 -9.09844e-09 0)
(-4.13044e-08 3.77275e-08 0)
(-7.90376e-09 3.50436e-08 0)
(2.44243e-08 9.03588e-09 0)
(1.8829e-09 5.69815e-09 0)
(-8.06725e-09 3.96041e-09 0)
(-5.12308e-09 4.30996e-10 0)
(-1.46432e-09 -6.80628e-10 0)
(1.16275e-09 -1.23746e-09 0)
(2.72211e-09 -1.26648e-09 0)
(1.13085e-09 -8.50049e-10 0)
(5.50685e-10 -3.11643e-11 0)
(3.51993e-10 1.58374e-09 0)
(-6.80352e-10 2.24689e-09 0)
(-1.50903e-09 -1.10662e-09 0)
(-1.95782e-09 -3.26216e-09 0)
(4.23114e-11 1.24816e-09 0)
(5.23406e-09 3.35774e-09 0)
(1.98232e-08 8.19416e-10 0)
(7.50312e-08 5.99084e-08 0)
(-2.38907e-07 -1.84565e-08 0)
(4.71908e-08 3.45724e-08 0)
(1.50405e-08 2.57961e-08 0)
(-2.32619e-08 3.45381e-09 0)
(-9.11618e-09 2.22893e-10 0)
(-8.74378e-09 2.42964e-09 0)
(-1.2411e-08 3.57199e-09 0)
(-3.97565e-09 1.40774e-09 0)
(-2.12489e-09 7.12406e-10 0)
(3.39066e-09 9.69278e-10 0)
(3.2153e-10 5.20112e-10 0)
(1.7095e-09 4.23133e-10 0)
(9.71789e-10 3.52995e-10 0)
(-1.02106e-09 3.35752e-10 0)
(-2.76134e-09 -1.56365e-09 0)
(-6.46967e-10 -1.41345e-09 0)
(3.92134e-09 3.62588e-09 0)
(-1.51559e-09 5.62113e-09 0)
(2.90707e-08 -2.78128e-09 0)
(-6.24491e-08 -5.03791e-08 0)
(5.68425e-08 8.07994e-09 0)
(7.1808e-08 -2.36231e-08 0)
(-4.45176e-08 -3.67736e-08 0)
(-3.10389e-09 -1.25043e-08 0)
(4.70569e-09 -5.45471e-09 0)
(-1.49359e-09 -6.66283e-10 0)
(-2.87939e-09 2.55846e-09 0)
(-7.77085e-09 1.43702e-09 0)
(-1.69272e-09 1.18983e-09 0)
(-1.03223e-09 1.2652e-09 0)
(-4.17878e-10 8.13017e-10 0)
(1.69497e-09 5.95829e-10 0)
(9.98771e-10 -1.06143e-09 0)
(-1.28532e-09 -1.32495e-09 0)
(-2.39739e-09 3.45358e-10 0)
(3.63485e-10 8.86828e-10 0)
(3.03565e-09 2.57791e-09 0)
(1.74525e-09 -2.46751e-09 0)
(-1.598e-08 1.26115e-09 0)
(3.88962e-08 -5.3111e-08 0)
(-5.25725e-08 8.90879e-08 0)
(-6.9658e-08 -3.13204e-08 0)
(2.25949e-08 -2.29251e-08 0)
(1.71018e-08 -6.35901e-09 0)
(7.43405e-09 -4.57902e-09 0)
(4.59433e-09 -1.50725e-09 0)
(-3.19494e-09 -1.6204e-09 0)
(-5.86408e-09 -3.56478e-10 0)
(-2.38372e-09 3.08594e-10 0)
(5.49973e-10 -3.31448e-10 0)
(-4.79926e-10 -3.66124e-10 0)
(1.20643e-09 -8.88062e-11 0)
(7.27967e-10 -1.3867e-09 0)
(-4.77714e-10 -1.85617e-09 0)
(-1.63174e-09 2.71536e-09 0)
(-2.95447e-10 4.07215e-09 0)
(6.54392e-10 -3.07103e-09 0)
(4.27492e-12 -4.5036e-09 0)
(-2.59496e-08 -5.40366e-09 0)
(2.59961e-08 4.98301e-08 0)
(6.42669e-07 -1.08277e-07 0)
(-1.35123e-07 9.39077e-09 0)
(-5.38293e-09 2.85812e-08 0)
(1.54049e-08 6.66433e-09 0)
(8.70164e-09 2.25891e-09 0)
(3.79887e-09 -3.08213e-09 0)
(-3.99894e-09 -5.51265e-09 0)
(-3.63755e-09 -3.81494e-09 0)
(7.28964e-10 -5.29928e-10 0)
(2.01483e-09 5.53417e-10 0)
(3.34869e-10 -1.46165e-09 0)
(1.08995e-09 -1.04532e-09 0)
(5.76082e-10 -8.06332e-10 0)
(1.00469e-09 -1.11164e-09 0)
(-1.42573e-10 2.79856e-09 0)
(-2.61099e-09 5.8932e-09 0)
(-3.17216e-09 -1.9081e-09 0)
(-1.29452e-09 -7.56676e-09 0)
(2.17948e-08 8.52784e-10 0)
(-2.35892e-08 4.23499e-08 0)
(-6.80281e-07 -6.87301e-08 0)
(1.62163e-07 2.47108e-08 0)
(1.46188e-08 2.05907e-08 0)
(-1.96707e-08 8.98224e-09 0)
(-6.8419e-09 1.90362e-09 0)
(-6.40938e-09 -5.45304e-09 0)
(-3.62366e-09 -6.18631e-09 0)
(1.53782e-09 -2.61037e-09 0)
(4.64543e-09 9.45415e-10 0)
(2.54335e-09 1.14673e-09 0)
(1.26069e-09 -6.41087e-10 0)
(9.59199e-10 -1.46985e-09 0)
(8.44465e-10 -4.55755e-10 0)
(2.06865e-09 -5.20496e-10 0)
(1.55447e-09 2.7245e-10 0)
(-2.77722e-09 4.55421e-09 0)
(-5.9393e-09 4.02314e-09 0)
(-1.7721e-09 -1.99469e-09 0)
(1.29149e-08 -1.45897e-09 0)
(-3.45938e-08 -3.35017e-08 0)
(9.83771e-08 8.09567e-08 0)
(1.18373e-08 7.75602e-09 0)
(-2.72585e-08 -1.47699e-08 0)
(-1.04548e-08 -5.92231e-09 0)
(-1.28152e-08 -6.22567e-09 0)
(-8.18764e-09 -4.7995e-09 0)
(-5.98359e-11 -1.42937e-09 0)
(5.80563e-09 2.01465e-09 0)
(5.30705e-09 2.85428e-09 0)
(4.07107e-10 1.23237e-09 0)
(7.02362e-10 1.79729e-09 0)
(2.38992e-10 -7.26292e-10 0)
(6.72171e-10 -1.50669e-09 0)
(2.47669e-09 -8.28771e-10 0)
(2.79567e-09 -2.82241e-09 0)
(-2.2342e-10 8.66737e-10 0)
(-5.82423e-09 5.81148e-09 0)
(-2.6693e-09 6.8326e-09 0)
(-4.46861e-09 -4.52275e-09 0)
(9.77464e-09 -1.25925e-08 0)
(-1.14465e-08 5.26053e-09 0)
(-1.33264e-08 -2.79046e-08 0)
(-6.27932e-09 -1.33895e-08 0)
(-1.28681e-08 -1.24068e-08 0)
(-7.13681e-09 -7.5313e-09 0)
(-9.35713e-11 -1.82264e-09 0)
(6.23639e-09 4.02067e-09 0)
(7.84596e-09 5.82274e-09 0)
(3.14485e-09 2.6391e-09 0)
(-2.13625e-09 1.61299e-10 0)
(-1.25833e-09 3.12738e-09 0)
(-1.60039e-09 7.8366e-10 0)
(9.6611e-11 -2.30909e-09 0)
(1.87958e-09 -1.82299e-09 0)
(3.45598e-09 -3.28848e-09 0)
(1.59365e-09 -3.58928e-09 0)
(-1.67794e-09 3.19117e-09 0)
(-4.86765e-09 7.96791e-09 0)
(-8.92124e-10 5.23796e-09 0)
(-2.96e-10 1.52949e-09 0)
(-4.25225e-09 -9.70057e-09 0)
(-3.63117e-09 -3.00025e-09 0)
(-9.15298e-09 -7.97766e-09 0)
(-2.52302e-09 -4.72856e-09 0)
(3.44792e-09 -6.98612e-10 0)
(8.05706e-09 3.29699e-09 0)
(1.05067e-08 7.01726e-09 0)
(6.05235e-09 5.71322e-09 0)
(-2.77839e-10 5.37375e-10 0)
(-2.51464e-09 -1.11181e-09 0)
(-2.86053e-09 1.21589e-09 0)
(-2.70637e-09 1.54206e-09 0)
(-7.3514e-10 -1.95108e-10 0)
(8.82807e-10 -9.66643e-10 0)
(2.42683e-09 -1.45009e-09 0)
(2.17499e-09 -5.17853e-09 0)
(1.22665e-09 -2.59481e-09 0)
(-1.74264e-09 1.95921e-09 0)
(-2.80269e-10 7.05229e-09 0)
(-2.36116e-09 4.7288e-09 0)
(7.94545e-10 6.38751e-09 0)
(-1.5673e-09 3.8357e-09 0)
(-8.84708e-10 4.20203e-09 0)
(4.75246e-09 5.26612e-09 0)
(7.44058e-09 5.12773e-09 0)
(1.08413e-08 6.36885e-09 0)
(8.98788e-09 5.08191e-09 0)
(1.50971e-09 1.21082e-09 0)
(-2.22515e-09 -1.82627e-09 0)
(-7.43575e-10 -1.38261e-09 0)
(-1.95904e-09 -2.67022e-09 0)
(-1.21762e-09 6.4763e-10 0)
(-7.37225e-10 3.67112e-09 0)
(-7.10267e-10 2.49743e-09 0)
(-3.00144e-10 6.40131e-10 0)
(6.41491e-10 -3.97346e-09 0)
(1.60395e-09 -7.15618e-09 0)
(1.24344e-09 -5.17024e-09 0)
(6.59884e-10 -1.04216e-09 0)
(9.48851e-10 2.50175e-09 0)
(8.84887e-10 7.15681e-09 0)
(-1.83426e-09 7.32806e-09 0)
(1.2332e-09 9.03441e-09 0)
(3.50676e-09 7.02283e-09 0)
(5.73064e-09 6.32024e-09 0)
(6.77686e-09 5.45813e-09 0)
(2.10047e-09 2.79563e-10 0)
(-3.04706e-09 -3.41726e-09 0)
(-2.47458e-09 -2.22735e-09 0)
(6.07759e-10 -4.19686e-10 0)
(1.38e-09 -4.71583e-09 0)
(2.61386e-09 -7.16218e-10 0)
(3.7957e-10 5.13165e-09 0)
(-2.57449e-09 4.95035e-09 0)
(-3.79338e-09 1.50671e-09 0)
(-1.7864e-09 -1.9375e-09 0)
(6.97632e-10 -6.7706e-09 0)
(2.28785e-09 -7.44681e-09 0)
(1.60449e-09 -5.97415e-09 0)
(2.62072e-09 -2.78831e-09 0)
(1.51463e-09 -1.59713e-09 0)
(-5.36651e-10 2.16811e-09 0)
(-8.23988e-10 4.55251e-09 0)
(-4.23454e-10 3.24981e-09 0)
(1.44168e-09 3.48602e-09 0)
(-3.77994e-10 2.05773e-09 0)
(-4.06014e-09 -2.92028e-09 0)
(-4.09747e-09 -4.85704e-09 0)
(-2.30229e-09 -1.7395e-09 0)
(-1.04568e-09 2.90134e-10 0)
(4.76475e-09 -2.37191e-09 0)
(5.94368e-09 -6.00659e-10 0)
(1.66971e-09 2.34559e-09 0)
(-3.93703e-09 2.6385e-09 0)
(-6.37596e-09 7.91816e-10 0)
(-3.61277e-09 -5.33786e-10 0)
(-6.83318e-11 -2.63821e-09 0)
(2.29141e-09 -3.37471e-09 0)
(1.93728e-09 -3.15633e-09 0)
(1.53293e-09 -2.23702e-09 0)
(8.5706e-10 -2.89067e-09 0)
(9.67828e-10 -1.00661e-09 0)
(-1.47145e-09 3.79155e-10 0)
(-2.1174e-09 3.3356e-10 0)
(-1.38895e-09 7.12709e-10 0)
(-4.87235e-09 1.41819e-10 0)
(-6.87164e-09 -1.72225e-09 0)
(-3.95429e-09 -2.31801e-09 0)
(-2.54336e-09 -9.05302e-10 0)
(-2.63164e-09 1.23069e-10 0)
)
;

boundaryField
{
    sides
    {
        type            calculated;
        value           nonuniform List<vector> 
40
(
(4.76475e-09 0 0)
(5.94368e-09 0 0)
(1.66971e-09 0 0)
(-3.93703e-09 0 0)
(-6.37596e-09 0 0)
(-3.61277e-09 0 0)
(-6.83318e-11 0 0)
(2.29141e-09 0 0)
(1.93728e-09 0 0)
(1.53293e-09 0 0)
(8.5706e-10 0 0)
(9.67828e-10 0 0)
(-1.47145e-09 0 0)
(-2.1174e-09 0 0)
(-1.38895e-09 0 0)
(-4.87235e-09 0 0)
(-6.87164e-09 0 0)
(-3.95429e-09 0 0)
(-2.54336e-09 0 0)
(-2.63164e-09 0 0)
(-1.38211e-09 0 0)
(7.92772e-10 0 0)
(-6.40549e-10 0 0)
(-9.589e-10 0 0)
(-1.08254e-09 0 0)
(-1.00921e-10 0 0)
(-1.20263e-09 0 0)
(1.19377e-09 0 0)
(1.476e-10 0 0)
(2.93343e-09 0 0)
(2.16162e-09 0 0)
(-2.45333e-10 0 0)
(-8.64096e-10 0 0)
(-5.5406e-09 0 0)
(-3.23392e-09 0 0)
(-2.39044e-09 0 0)
(-2.25048e-09 0 0)
(1.77859e-09 0 0)
(2.87859e-09 0 0)
(-2.12809e-09 0 0)
)
;
    }
    inlet
    {
        type            calculated;
        value           uniform (0 0 0);
    }
    outlet
    {
        type            calculated;
        value           nonuniform List<vector> 
20
(
(-2.12809e-09 -1.10591e-09 0)
(-1.53282e-09 -1.50112e-09 0)
(-1.24231e-09 -3.3325e-10 0)
(-2.50735e-10 6.84526e-10 0)
(-7.48787e-10 4.43831e-10 0)
(1.00593e-09 -6.07844e-10 0)
(1.93191e-09 -9.1995e-10 0)
(2.72211e-09 -1.26648e-09 0)
(3.39066e-09 9.69278e-10 0)
(-1.03223e-09 1.2652e-09 0)
(5.49973e-10 -3.31448e-10 0)
(2.01483e-09 5.53417e-10 0)
(2.54335e-09 1.14673e-09 0)
(4.07107e-10 1.23237e-09 0)
(-2.13625e-09 1.61299e-10 0)
(-2.51464e-09 -1.11181e-09 0)
(-7.43575e-10 -1.38261e-09 0)
(6.07759e-10 -4.19686e-10 0)
(-1.04568e-09 2.90134e-10 0)
(-2.63164e-09 1.23069e-10 0)
)
;
    }
    frontAndBack
    {
        type            empty;
    }
}


// ************************************************************************* //
