/*--------------------------------*- C++ -*----------------------------------*\
  =========                 |
  \\      /  F ield         | OpenFOAM: The Open Source CFD Toolbox
   \\    /   O peration     | Website:  https://openfoam.org
    \\  /    A nd           | Version:  9
     \\/     M anipulation  |
\*---------------------------------------------------------------------------*/
FoamFile
{
    format      ascii;
    class       surfaceScalarField;
    location    "94";
    object      ddtCorrDdt0(phi);
}
// * * * * * * * * * * * * * * * * * * * * * * * * * * * * * * * * * * * * * //

dimensions      [0 4 -2 0 0 0 0];

internalField   nonuniform List<scalar> 
760
(
9.84841e-12
-4.42136e-12
-5.27984e-12
-9.2729e-12
-1.47493e-11
3.43524e-14
6.74523e-12
2.25874e-11
-3.94167e-12
2.65555e-12
-5.05333e-12
-4.97127e-12
-7.40796e-12
1.22578e-11
8.71287e-12
1.37874e-11
7.22651e-12
8.0289e-12
2.30932e-11
1.22636e-11
-5.84983e-12
-1.04288e-11
4.83932e-12
7.92655e-12
-2.16772e-11
-1.5108e-11
-2.3495e-11
2.31504e-12
-1.04704e-11
6.32973e-12
-1.90875e-11
-5.12301e-12
2.79707e-12
5.38559e-12
2.05589e-11
8.71674e-12
-3.56636e-13
-5.19425e-12
-4.24446e-12
1.52683e-12
-2.62445e-12
-2.62199e-12
-6.14253e-12
5.15771e-12
5.185e-12
-9.59114e-14
1.41023e-11
-9.15097e-12
-9.56513e-12
7.66084e-12
1.14544e-11
-9.98574e-12
1.58495e-11
1.06345e-11
3.36245e-11
8.11044e-12
2.96016e-12
-1.24341e-12
1.39045e-11
1.60813e-11
9.19268e-12
-1.42112e-11
-2.62239e-11
-1.8957e-12
-5.48547e-12
-1.49695e-11
-1.74215e-11
-1.65363e-11
-8.07723e-12
-6.49289e-12
-6.56021e-12
8.8254e-13
4.65799e-12
-1.49388e-12
7.26181e-12
-1.03925e-11
-3.01627e-12
-5.18037e-12
-8.13869e-12
4.94911e-12
3.13936e-12
3.67664e-12
1.65396e-11
1.52818e-12
-1.56356e-11
-1.6509e-11
9.95448e-12
-4.05536e-13
7.61455e-12
1.7352e-11
4.92702e-12
2.5116e-11
-1.36113e-11
8.73711e-12
1.96584e-11
3.20291e-11
-1.86299e-11
-3.28462e-11
5.89039e-12
3.27014e-11
7.09253e-12
-4.18388e-11
-1.00596e-11
-2.96779e-11
1.67326e-12
-6.1122e-12
-5.82157e-12
-2.24097e-11
9.89031e-12
-1.60731e-11
7.84699e-12
-5.80716e-13
-1.64111e-11
4.76258e-12
-1.34944e-11
3.9678e-12
-5.77491e-13
-1.50693e-11
8.93486e-12
1.9516e-12
6.38723e-12
1.89971e-12
-7.46933e-12
-4.6696e-12
-1.63194e-11
2.2875e-11
5.56001e-13
1.13346e-11
1.34503e-11
-5.57057e-12
5.01912e-13
8.4585e-12
5.61908e-12
-3.4962e-11
5.49586e-12
5.70213e-11
1.77595e-11
-6.33108e-11
-1.55616e-10
2.23665e-11
4.70339e-11
2.12563e-11
-5.0251e-11
-1.76787e-11
-2.5448e-11
4.31404e-12
1.14278e-11
3.28782e-11
5.61144e-13
1.76993e-11
-7.02722e-12
-1.18795e-11
-5.47366e-12
-6.57239e-12
3.94651e-13
1.7079e-12
-2.11794e-11
2.55039e-12
-8.43178e-12
3.3147e-12
-8.23961e-12
-9.76864e-13
6.98343e-12
-5.07911e-12
2.95836e-11
5.92546e-12
1.41865e-12
-9.2282e-13
-6.69089e-12
-2.51652e-11
1.79531e-11
2.21545e-11
-2.96808e-11
-7.81483e-11
-7.6754e-11
7.54489e-11
1.41603e-10
-3.84267e-11
-8.25782e-11
-1.52475e-10
4.66632e-11
7.30199e-11
3.31947e-11
-9.97487e-12
-1.14353e-11
-2.10011e-11
2.62417e-11
1.05076e-11
3.21808e-11
-9.4591e-13
2.31702e-12
-1.40824e-11
-4.80965e-12
-9.89135e-12
-2.49104e-12
-2.28732e-11
-6.85441e-12
-1.2329e-11
2.40035e-12
-1.3958e-11
6.15048e-12
1.38635e-11
1.13341e-11
2.60793e-11
7.80506e-12
-2.48895e-11
-1.95686e-11
4.45513e-11
-2.31539e-12
-8.59769e-11
-8.01106e-11
1.25371e-10
1.17353e-10
-2.15759e-10
-4.02442e-10
9.52283e-11
5.42762e-10
1.48072e-10
-1.99155e-10
-5.93376e-11
-1.24063e-10
1.11909e-11
6.44658e-11
1.94243e-11
3.15038e-11
1.36501e-11
4.89932e-12
1.73047e-11
-5.05343e-12
9.54499e-12
-1.37377e-11
6.82276e-12
-1.21603e-11
-3.39139e-12
-1.56375e-11
-1.01902e-11
-1.06169e-11
-1.88853e-13
-1.09917e-11
1.24869e-11
1.41248e-11
1.72042e-11
2.0946e-12
4.76771e-12
-1.49196e-12
-1.27658e-11
-2.50635e-11
-4.10319e-11
6.70397e-11
4.14842e-11
-2.65056e-10
-1.38384e-10
5.63156e-10
8.09833e-11
-7.66641e-10
-3.1106e-09
1.73499e-10
5.58087e-10
1.44486e-10
2.18519e-11
-1.23382e-11
-3.62402e-11
-1.56641e-11
2.821e-11
-1.07233e-12
1.65927e-11
4.53411e-12
-6.94614e-12
4.2666e-12
-5.94211e-12
1.04251e-11
-1.07259e-11
-3.74391e-12
-5.63143e-12
-7.13301e-12
-1.95026e-12
9.17664e-13
-4.96522e-12
9.92039e-12
6.7524e-12
1.71104e-11
-5.34374e-12
-4.61669e-12
-2.88155e-11
-1.86725e-11
4.51008e-11
6.45878e-12
-8.87136e-12
-5.65361e-11
-4.3215e-10
2.35585e-10
5.31805e-10
6.97992e-10
5.84125e-10
4.24643e-08
-2.71483e-10
-5.96071e-10
1.14957e-10
3.27223e-10
6.54653e-11
1.23825e-10
-2.84322e-11
4.13063e-11
-3.32485e-11
1.43492e-11
-1.9126e-11
-1.09416e-11
-2.34632e-12
5.62995e-12
1.16421e-11
7.5538e-13
-8.3012e-12
4.30658e-12
9.54582e-13
4.58044e-12
1.27804e-12
4.42317e-12
7.01283e-12
-6.59742e-12
3.89646e-12
-1.82676e-11
-7.32957e-12
-2.51888e-12
-1.42659e-11
-1.70595e-11
1.34508e-11
3.97815e-11
8.39231e-11
4.28818e-10
-1.79853e-10
-5.42073e-10
1.15466e-10
-5.80792e-10
-2.8585e-09
3.18976e-10
4.99224e-10
-1.0158e-10
-5.67183e-11
-7.32988e-11
-6.49643e-11
-3.49986e-11
-2.17838e-11
-5.93339e-11
-1.4117e-12
-3.80872e-11
1.06779e-09
-1.67318e-11
9.69625e-12
-1.77918e-12
7.09274e-12
5.54989e-10
8.72156e-12
6.03172e-12
9.5103e-12
3.85813e-12
6.68553e-12
-3.40927e-12
-1.68776e-11
-2.49467e-12
-2.46891e-11
-8.22261e-12
8.7646e-12
3.90372e-12
5.25782e-11
2.83821e-11
-6.18971e-11
-3.1126e-11
2.41148e-10
7.24743e-11
-5.52869e-10
-5.007e-10
8.34911e-10
7.71954e-10
-1.80701e-10
-4.41175e-10
-9.56165e-11
-1.96953e-10
1.85215e-11
-2.95968e-11
9.63356e-12
-3.46911e-11
-5.58522e-12
-1.24511e-11
-3.70844e-11
-1.00051e-11
-2.43534e-11
5.04235e-12
2.24418e-12
2.2697e-12
-6.22797e-12
9.38587e-12
1.84084e-12
4.74625e-12
1.71088e-12
9.65966e-12
-8.39937e-12
-2.21696e-11
-1.0475e-11
-2.26702e-11
1.29465e-11
3.47161e-11
5.5244e-12
1.27933e-11
6.33072e-12
1.47555e-11
-8.98146e-12
-1.79841e-10
-7.14353e-11
3.80921e-10
1.89828e-11
-6.6464e-10
-1.62113e-09
3.42321e-12
2.45098e-10
1.19438e-10
3.49697e-11
4.41637e-11
1.04561e-12
3.94692e-11
-1.09418e-11
2.9442e-12
-4.45381e-12
-2.86183e-11
-9.75441e-12
-2.21651e-11
-1.32089e-11
-3.00245e-12
-5.50526e-12
5.36073e-13
9.41625e-12
-6.79699e-12
-1.45707e-12
-3.9869e-12
5.75077e-12
-6.46843e-12
-3.76318e-12
-6.66986e-12
-2.65453e-11
1.78406e-11
2.26691e-11
3.07815e-11
1.12388e-11
-3.89731e-11
-1.61261e-11
-3.83509e-12
-3.69189e-10
3.51515e-11
2.36873e-09
5.87782e-10
7.40172e-10
-2.94909e-08
-2.42765e-10
-4.70533e-10
6.5155e-11
2.47072e-10
5.109e-11
7.05434e-11
4.20786e-11
1.61164e-11
-7.83859e-12
-8.59451e-12
-2.51009e-11
-3.08996e-11
-5.40098e-12
-2.25056e-11
8.73586e-12
-2.23596e-12
3.83554e-12
1.03232e-11
-9.43461e-12
-2.60503e-12
-7.61152e-12
2.41077e-12
-1.37644e-12
1.42075e-11
-3.39587e-12
-9.35136e-12
1.26309e-11
-2.95162e-11
2.68332e-11
-7.24257e-12
8.66979e-12
-1.34115e-11
-3.82033e-11
3.99106e-10
9.07385e-12
-2.53297e-09
-9.13453e-11
-7.27673e-10
8.27008e-11
3.68222e-10
4.64874e-10
-8.9739e-11
-5.88647e-11
-4.80785e-11
9.46558e-12
-3.5685e-11
-5.4598e-12
-2.95679e-11
-2.30163e-11
-6.65799e-12
-2.18823e-11
2.23251e-11
-2.48815e-12
1.98593e-11
1.24043e-11
7.93859e-12
8.4595e-12
1.86938e-12
3.21992e-12
-7.4608e-12
-1.40371e-12
-2.10041e-12
2.57881e-11
-1.40635e-12
5.09741e-12
-9.51614e-12
-4.03864e-11
1.92872e-11
-4.93781e-11
3.25281e-11
4.71456e-11
1.18772e-11
4.41656e-11
-5.11109e-11
-5.07569e-11
-1.63906e-10
5.07843e-10
2.17632e-10
-1.80505e-10
-2.1962e-10
-5.37115e-11
-3.79135e-11
-6.21649e-11
-5.93747e-11
-5.8619e-11
-5.35597e-11
-2.56372e-11
-2.65468e-11
1.66319e-11
4.36627e-12
3.88775e-11
2.13911e-11
1.49984e-11
1.67222e-11
4.95227e-12
-1.82049e-12
1.63337e-11
7.08084e-12
2.47418e-13
-3.36009e-14
-1.2347e-11
1.70497e-11
-6.69445e-12
2.88406e-11
-2.00826e-11
-2.89319e-11
-9.13813e-12
-4.63139e-11
3.08867e-11
-3.27799e-12
5.15135e-11
4.83362e-13
-4.06153e-12
5.17018e-11
3.37453e-12
-1.22005e-10
-3.41857e-10
-1.74974e-11
-5.07254e-11
-5.81437e-11
-7.96312e-11
-5.03523e-11
-6.24247e-11
-2.18006e-11
-2.74752e-11
1.33052e-11
6.08052e-13
3.96316e-11
3.12102e-11
3.53767e-11
3.43905e-11
1.51238e-12
8.23825e-12
-3.778e-12
-1.47095e-11
1.61275e-11
-3.39225e-12
8.46629e-12
6.57452e-12
-1.135e-11
5.01019e-12
-1.22876e-11
3.31577e-11
-1.40004e-11
6.88918e-13
-2.60627e-11
-2.6014e-11
5.93713e-12
-3.4526e-11
3.28957e-11
2.12347e-11
5.51989e-11
-2.17426e-11
1.04331e-11
-1.05011e-11
6.24871e-12
-4.0354e-11
-9.8719e-12
-2.91522e-11
-1.45306e-11
5.94759e-12
5.11025e-12
2.28085e-11
1.3199e-11
5.19165e-11
2.58379e-11
4.67416e-11
3.56832e-11
1.19538e-11
2.05554e-11
-9.41759e-12
-6.21688e-12
-8.85401e-12
-1.75369e-11
-3.28052e-12
-1.76652e-11
8.26083e-12
7.24208e-12
8.83154e-12
1.63684e-12
1.45893e-12
1.70635e-11
-6.02185e-13
2.30946e-11
-2.62926e-11
-8.33965e-12
-3.13405e-11
-1.31539e-11
-1.06583e-11
-5.56691e-12
2.2227e-11
-7.84956e-12
3.67268e-11
8.03769e-12
4.46604e-11
-1.91873e-11
4.1378e-11
1.6992e-11
4.98686e-11
2.93665e-11
4.17461e-11
4.30314e-11
3.58694e-11
5.95845e-11
3.55701e-11
2.95958e-11
1.51393e-11
-1.2019e-11
-7.91503e-12
-1.02143e-11
-1.3237e-11
-5.75828e-12
-4.11191e-12
-2.46508e-11
-1.4857e-11
6.11629e-13
-3.12097e-13
3.10898e-11
-1.91049e-12
2.33181e-11
-6.0017e-12
5.60035e-12
1.90837e-11
-1.69119e-11
5.34551e-12
-4.544e-11
3.91867e-12
-4.16764e-11
-3.90523e-12
-2.32277e-11
1.48417e-11
6.39065e-12
-7.05956e-12
1.63011e-11
-6.70914e-12
3.36026e-11
1.35941e-11
4.48156e-11
2.2084e-11
3.31446e-11
3.54048e-11
3.25278e-11
2.77689e-11
2.32631e-11
-3.88084e-12
-9.64773e-12
-2.1703e-11
-2.27367e-11
-5.54035e-12
-4.52338e-12
3.44092e-12
1.69213e-11
-2.43535e-11
1.04991e-11
-4.43075e-12
-8.4377e-12
2.73395e-11
-1.72859e-11
2.64637e-11
-2.09404e-11
4.66157e-12
7.61315e-13
-8.37228e-12
1.02037e-11
-3.02199e-11
1.0434e-11
-3.55417e-11
7.26878e-12
-3.03888e-11
1.89393e-11
-1.75847e-11
-6.33124e-13
-5.88223e-12
-5.40965e-12
6.28008e-12
-1.02732e-11
1.40628e-11
6.62848e-12
1.12452e-11
1.15325e-11
1.52065e-11
-1.61791e-11
7.85798e-12
-2.60668e-11
-1.38128e-11
-1.23154e-11
-1.75579e-11
-7.14418e-12
6.68039e-13
4.30502e-12
3.19541e-11
3.54932e-11
-9.82588e-12
-3.49009e-11
-2.8669e-11
-1.20897e-11
9.19599e-12
1.32125e-11
1.0704e-11
4.3956e-12
9.9457e-12
-2.20475e-12
-2.08658e-11
-1.02522e-12
-4.93242e-12
-4.14322e-11
-3.59484e-11
-4.68427e-12
-8.53508e-12
)
;

boundaryField
{
    sides
    {
        type            calculated;
        value           uniform 0;
    }
    inlet
    {
        type            calculated;
        value           uniform 0;
    }
    outlet
    {
        type            calculated;
        value           nonuniform List<scalar> 
20
(
-1.96662e-11
-9.23205e-12
-2.17538e-12
4.32638e-12
2.49197e-12
1.14253e-11
1.52249e-11
1.79357e-11
3.12322e-11
-1.45618e-11
4.47494e-12
1.0412e-11
7.46455e-12
-9.23777e-12
-2.16751e-11
-1.39829e-11
5.1819e-12
1.20409e-11
-7.72444e-12
-2.6609e-11
)
;
    }
    frontAndBack
    {
        type            empty;
        value           nonuniform List<scalar> 0();
    }
}


// ************************************************************************* //
