/*--------------------------------*- C++ -*----------------------------------*\
  =========                 |
  \\      /  F ield         | OpenFOAM: The Open Source CFD Toolbox
   \\    /   O peration     | Website:  https://openfoam.org
    \\  /    A nd           | Version:  9
     \\/     M anipulation  |
\*---------------------------------------------------------------------------*/
FoamFile
{
    format      ascii;
    class       volVectorField;
    location    "94";
    object      hU_0;
}
// * * * * * * * * * * * * * * * * * * * * * * * * * * * * * * * * * * * * * //

dimensions      [0 2 -1 0 0 0 0];

internalField   nonuniform List<vector> 
400
(
(0.001 -2.40622e-08 0)
(0.00100004 -7.048e-08 0)
(0.00100012 -1.13386e-07 0)
(0.00100024 -1.52479e-07 0)
(0.00100039 -1.87179e-07 0)
(0.00100058 -2.16804e-07 0)
(0.00100078 -2.36984e-07 0)
(0.00100099 -2.45367e-07 0)
(0.00100118 -2.35984e-07 0)
(0.00100133 -2.10805e-07 0)
(0.0010014 -1.67858e-07 0)
(0.0010014 -1.28111e-07 0)
(0.00100129 -9.87048e-08 0)
(0.00100111 -9.26522e-08 0)
(0.00100087 -9.93568e-08 0)
(0.00100065 -1.35292e-07 0)
(0.00100044 -1.56229e-07 0)
(0.00100034 -2.01036e-07 0)
(0.00100026 -1.88803e-07 0)
(0.00100033 -2.68517e-07 0)
(0.001 -2.6352e-08 0)
(0.00100005 -7.87495e-08 0)
(0.00100013 -1.28589e-07 0)
(0.00100026 -1.74172e-07 0)
(0.00100042 -2.13186e-07 0)
(0.00100062 -2.40549e-07 0)
(0.00100084 -2.46023e-07 0)
(0.00100108 -2.20246e-07 0)
(0.0010013 -1.53766e-07 0)
(0.00100147 -4.66314e-08 0)
(0.00100156 9.47125e-08 0)
(0.00100154 2.48625e-07 0)
(0.00100141 3.9047e-07 0)
(0.00100119 4.77741e-07 0)
(0.00100092 5.06012e-07 0)
(0.00100067 4.52743e-07 0)
(0.00100048 3.79271e-07 0)
(0.00100036 2.57689e-07 0)
(0.00100033 2.05391e-07 0)
(0.00100029 8.09614e-08 0)
(0.001 -5.21596e-08 0)
(0.00100004 -1.58994e-07 0)
(0.00100013 -2.67123e-07 0)
(0.00100026 -3.73869e-07 0)
(0.00100043 -4.73859e-07 0)
(0.00100064 -5.55873e-07 0)
(0.0010009 -6.03722e-07 0)
(0.00100117 -5.97237e-07 0)
(0.00100143 -5.17163e-07 0)
(0.00100164 -3.50481e-07 0)
(0.00100176 -1.08744e-07 0)
(0.00100176 1.63684e-07 0)
(0.00100159 4.03229e-07 0)
(0.00100131 5.21264e-07 0)
(0.00100095 5.00623e-07 0)
(0.00100062 3.54955e-07 0)
(0.00100037 2.04384e-07 0)
(0.00100026 4.73554e-08 0)
(0.00100022 -2.46448e-09 0)
(0.0010003 -1.17005e-07 0)
(0.001 -7.29384e-08 0)
(0.00100004 -2.22121e-07 0)
(0.00100013 -3.75048e-07 0)
(0.00100026 -5.30943e-07 0)
(0.00100045 -6.81299e-07 0)
(0.00100069 -8.10294e-07 0)
(0.001001 -8.89037e-07 0)
(0.00100134 -8.85451e-07 0)
(0.00100171 -7.54762e-07 0)
(0.00100203 -4.74536e-07 0)
(0.00100222 -2.17296e-08 0)
(0.00100219 4.93723e-07 0)
(0.00100192 9.37702e-07 0)
(0.00100146 1.14062e-06 0)
(0.00100097 1.05529e-06 0)
(0.00100058 7.43678e-07 0)
(0.00100041 4.24859e-07 0)
(0.00100035 1.71402e-07 0)
(0.0010004 1.02953e-07 0)
(0.00100035 6.24426e-10 0)
(0.001 -9.02188e-08 0)
(0.00100004 -2.77664e-07 0)
(0.00100012 -4.77208e-07 0)
(0.00100025 -6.94561e-07 0)
(0.00100044 -9.21264e-07 0)
(0.00100072 -1.13917e-06 0)
(0.00100109 -1.29877e-06 0)
(0.00100155 -1.33708e-06 0)
(0.00100207 -1.17523e-06 0)
(0.00100257 -7.78468e-07 0)
(0.0010029 -1.7129e-07 0)
(0.00100288 5.79649e-07 0)
(0.00100244 1.23078e-06 0)
(0.00100167 1.51139e-06 0)
(0.00100086 1.37497e-06 0)
(0.00100031 9.64334e-07 0)
(0.00100013 5.8149e-07 0)
(0.00100021 3.14981e-07 0)
(0.00100036 2.62698e-07 0)
(0.00100043 1.68021e-07 0)
(0.001 -1.02749e-07 0)
(0.00100003 -3.18284e-07 0)
(0.00100009 -5.62376e-07 0)
(0.00100019 -8.45065e-07 0)
(0.00100038 -1.17281e-06 0)
(0.00100068 -1.5247e-06 0)
(0.00100115 -1.85907e-06 0)
(0.00100178 -2.05403e-06 0)
(0.00100254 -1.91268e-06 0)
(0.00100326 -1.20036e-06 0)
(0.00100377 7.95852e-08 0)
(0.00100378 1.53894e-06 0)
(0.00100309 2.43305e-06 0)
(0.00100192 2.30384e-06 0)
(0.00100082 1.42911e-06 0)
(0.00100019 4.9152e-07 0)
(0.00100017 1.24569e-08 0)
(0.00100037 -8.58629e-08 0)
(0.00100064 5.99212e-08 0)
(0.00100054 4.98287e-08 0)
(0.001 -1.02507e-07 0)
(0.001 -3.33529e-07 0)
(0.00100002 -6.02114e-07 0)
(0.00100008 -9.62056e-07 0)
(0.00100021 -1.3921e-06 0)
(0.00100048 -1.94599e-06 0)
(0.001001 -2.48935e-06 0)
(0.00100188 -3.08472e-06 0)
(0.00100321 -3.23382e-06 0)
(0.00100473 -2.88353e-06 0)
(0.00100573 -6.74485e-07 0)
(0.00100536 2.55071e-06 0)
(0.0010035 4.82716e-06 0)
(0.00100112 4.73648e-06 0)
(0.000999609 3.02767e-06 0)
(0.000999372 1.26284e-06 0)
(0.00100001 4.29797e-07 0)
(0.00100056 3.25395e-07 0)
(0.00100093 5.6109e-07 0)
(0.00100066 5.3352e-07 0)
(0.000999995 -9.29602e-08 0)
(0.000999968 -2.88993e-07 0)
(0.000999907 -5.77099e-07 0)
(0.000999876 -9.5661e-07 0)
(0.000999879 -1.57713e-06 0)
(0.0010001 -2.34491e-06 0)
(0.0010005 -3.40293e-06 0)
(0.00100152 -4.12559e-06 0)
(0.00100308 -4.37433e-06 0)
(0.00100601 -2.54857e-06 0)
(0.0010091 7.60496e-07 0)
(0.00100915 4.27303e-06 0)
(0.00100551 4.71981e-06 0)
(0.00100074 2.78248e-06 0)
(0.00099815 7.35216e-07 0)
(0.000998274 -2.75256e-07 0)
(0.000999799 -2.86706e-07 0)
(0.00100088 -1.09655e-08 0)
(0.00100133 2.10972e-07 0)
(0.00100085 1.02389e-07 0)
(0.000999995 -4.9773e-08 0)
(0.000999915 -2.04008e-07 0)
(0.000999756 -3.86458e-07 0)
(0.000999531 -7.34715e-07 0)
(0.000999288 -1.33832e-06 0)
(0.00099921 -2.48189e-06 0)
(0.000999706 -4.68823e-06 0)
(0.00100139 -8.06873e-06 0)
(0.00100492 -1.32858e-05 0)
(0.00100958 -1.49109e-05 0)
(0.00101189 3.84934e-06 0)
(0.00100893 1.87354e-05 0)
(0.00100221 1.57824e-05 0)
(0.000997564 5.74278e-06 0)
(0.000996884 -3.15342e-07 0)
(0.00099846 -1.26308e-06 0)
(0.00100027 -9.5e-08 0)
(0.001001 6.3368e-07 0)
(0.00100107 6.51008e-07 0)
(0.00100054 2.43394e-07 0)
(0.000999804 -2.01035e-08 0)
(0.00100017 -6.65956e-08 0)
(0.000999216 -1.51162e-07 0)
(0.000999905 -2.48495e-07 0)
(0.000997521 -5.92337e-07 0)
(0.000998843 -1.13203e-06 0)
(0.000993346 -2.88424e-06 0)
(0.000997531 -5.59218e-06 0)
(0.000991667 -1.15401e-05 0)
(0.000915833 -1.27074e-05 0)
(0.000951474 2.68438e-07 0)
(0.00101022 1.46338e-05 0)
(0.000990948 1.30841e-05 0)
(0.000983974 5.14208e-06 0)
(0.000989584 1.95242e-07 0)
(0.000996279 -7.80534e-07 0)
(0.000999236 -1.1136e-07 0)
(0.000999413 2.4822e-07 0)
(0.000998648 1.74095e-07 0)
(0.000998506 -1.85e-07 0)
(0.000999804 1.31449e-08 0)
(0.00100017 4.62249e-08 0)
(0.000999216 1.17758e-07 0)
(0.000999903 1.99921e-07 0)
(0.000997518 5.29051e-07 0)
(0.000998838 1.05098e-06 0)
(0.000993339 2.78628e-06 0)
(0.00099752 5.47387e-06 0)
(0.00099165 1.13973e-05 0)
(0.00091581 1.25477e-05 0)
(0.000951425 -4.74941e-07 0)
(0.00101021 -1.49131e-05 0)
(0.00099095 -1.34097e-05 0)
(0.000983967 -5.53644e-06 0)
(0.000989566 -6.48339e-07 0)
(0.000996242 2.48717e-07 0)
(0.000999194 -4.71521e-07 0)
(0.000999367 -1.00163e-06 0)
(0.000998634 -9.88112e-07 0)
(0.000998456 -8.88512e-07 0)
(0.000999995 4.30393e-08 0)
(0.000999915 1.84223e-07 0)
(0.000999755 3.53608e-07 0)
(0.000999531 6.87106e-07 0)
(0.000999285 1.27609e-06 0)
(0.00099921 2.40159e-06 0)
(0.000999702 4.58924e-06 0)
(0.00100139 7.94208e-06 0)
(0.0010049 1.313e-05 0)
(0.00100958 1.47192e-05 0)
(0.00101188 -4.06771e-06 0)
(0.0010089 -1.90018e-05 0)
(0.00100214 -1.60966e-05 0)
(0.000997479 -6.12469e-06 0)
(0.000996815 -8.56407e-08 0)
(0.0009984 7.74797e-07 0)
(0.00100017 -4.26924e-07 0)
(0.00100085 -1.3043e-06 0)
(0.00100088 -1.37864e-06 0)
(0.00100037 -1.25056e-06 0)
(0.000999996 8.67119e-08 0)
(0.000999968 2.70185e-07 0)
(0.000999905 5.4485e-07 0)
(0.000999871 9.10077e-07 0)
(0.00099987 1.51326e-06 0)
(0.00100008 2.2616e-06 0)
(0.00100048 3.29428e-06 0)
(0.00100149 3.99052e-06 0)
(0.00100303 4.20967e-06 0)
(0.00100594 2.3647e-06 0)
(0.00100902 -9.78701e-07 0)
(0.00100906 -4.53697e-06 0)
(0.00100542 -5.02063e-06 0)
(0.00100066 -3.13123e-06 0)
(0.000998058 -1.13282e-06 0)
(0.000998135 -2.51908e-07 0)
(0.000999623 -3.22164e-07 0)
(0.00100064 -7.40664e-07 0)
(0.00100106 -9.66649e-07 0)
(0.00100055 -1.07376e-06 0)
(0.001 9.68532e-08 0)
(0.001 3.15533e-07 0)
(0.00100002 5.71504e-07 0)
(0.00100007 9.17587e-07 0)
(0.0010002 1.3333e-06 0)
(0.00100046 1.87059e-06 0)
(0.00100097 2.39921e-06 0)
(0.00100185 2.97595e-06 0)
(0.00100318 3.1123e-06 0)
(0.00100469 2.73064e-06 0)
(0.00100568 5.10689e-07 0)
(0.00100527 -2.75552e-06 0)
(0.00100338 -5.07787e-06 0)
(0.00100096 -5.0707e-06 0)
(0.00099941 -3.44913e-06 0)
(0.000999123 -1.79336e-06 0)
(0.000999746 -1.01992e-06 0)
(0.00100025 -1.05823e-06 0)
(0.00100061 -1.30665e-06 0)
(0.00100024 -1.51546e-06 0)
(0.001 9.77653e-08 0)
(0.00100003 3.02399e-07 0)
(0.00100008 5.35354e-07 0)
(0.00100018 8.05853e-07 0)
(0.00100036 1.12123e-06 0)
(0.00100066 1.45843e-06 0)
(0.00100112 1.77799e-06 0)
(0.00100174 1.95224e-06 0)
(0.00100248 1.78467e-06 0)
(0.00100317 1.0367e-06 0)
(0.00100366 -2.80725e-07 0)
(0.00100363 -1.78145e-06 0)
(0.00100292 -2.7091e-06 0)
(0.00100171 -2.63001e-06 0)
(0.00100058 -1.77715e-06 0)
(0.000999906 -8.93857e-07 0)
(0.00099986 -4.26058e-07 0)
(0.000999982 -4.472e-07 0)
(0.00100022 -6.16019e-07 0)
(0.00100001 -8.48475e-07 0)
(0.001 8.57319e-08 0)
(0.00100004 2.64022e-07 0)
(0.00100011 4.54169e-07 0)
(0.00100024 6.61555e-07 0)
(0.00100043 8.77501e-07 0)
(0.0010007 1.0833e-06 0)
(0.00100106 1.22899e-06 0)
(0.0010015 1.25321e-06 0)
(0.001002 1.07541e-06 0)
(0.00100248 6.58642e-07 0)
(0.0010028 2.02102e-08 0)
(0.00100274 -7.68283e-07 0)
(0.00100228 -1.4478e-06 0)
(0.00100146 -1.77195e-06 0)
(0.00100062 -1.66617e-06 0)
(0.00100001 -1.34699e-06 0)
(0.000999795 -1.02891e-06 0)
(0.000999765 -9.36919e-07 0)
(0.000999884 -9.4531e-07 0)
(0.000999767 -1.1084e-06 0)
(0.001 6.89938e-08 0)
(0.00100004 2.09599e-07 0)
(0.00100012 3.54052e-07 0)
(0.00100025 5.01322e-07 0)
(0.00100043 6.43953e-07 0)
(0.00100066 7.65107e-07 0)
(0.00100096 8.3649e-07 0)
(0.00100129 8.25267e-07 0)
(0.00100163 6.91433e-07 0)
(0.00100191 4.06792e-07 0)
(0.00100206 -4.64403e-08 0)
(0.001002 -5.75026e-07 0)
(0.00100171 -1.03395e-06 0)
(0.0010012 -1.28e-06 0)
(0.00100065 -1.22889e-06 0)
(0.00100016 -9.94318e-07 0)
(0.000999915 -7.02635e-07 0)
(0.00099974 -5.57763e-07 0)
(0.000999752 -4.87919e-07 0)
(0.00099956 -5.98462e-07 0)
(0.001 5.0455e-08 0)
(0.00100004 1.49654e-07 0)
(0.00100012 2.46554e-07 0)
(0.00100025 3.38695e-07 0)
(0.00100041 4.21596e-07 0)
(0.00100062 4.83346e-07 0)
(0.00100086 5.08229e-07 0)
(0.00100112 4.7263e-07 0)
(0.00100137 3.60588e-07 0)
(0.00100157 1.55089e-07 0)
(0.00100167 -1.17608e-07 0)
(0.00100161 -4.21659e-07 0)
(0.00100139 -6.81698e-07 0)
(0.00100103 -8.42665e-07 0)
(0.00100064 -8.51014e-07 0)
(0.00100022 -7.71982e-07 0)
(0.00099995 -6.39436e-07 0)
(0.000999689 -5.98404e-07 0)
(0.000999628 -5.6279e-07 0)
(0.000999387 -6.85149e-07 0)
(0.001 3.49638e-08 0)
(0.00100004 1.04528e-07 0)
(0.00100011 1.74094e-07 0)
(0.00100023 2.41583e-07 0)
(0.00100038 3.02231e-07 0)
(0.00100056 3.50052e-07 0)
(0.00100077 3.75534e-07 0)
(0.00100097 3.68616e-07 0)
(0.00100116 3.19208e-07 0)
(0.0010013 2.23176e-07 0)
(0.00100136 8.49543e-08 0)
(0.00100131 -7.15713e-08 0)
(0.00100115 -2.07101e-07 0)
(0.00100086 -2.9831e-07 0)
(0.00100054 -3.13572e-07 0)
(0.00100017 -2.83177e-07 0)
(0.000999901 -2.04104e-07 0)
(0.000999613 -1.70343e-07 0)
(0.000999518 -1.20007e-07 0)
(0.000999251 -1.98882e-07 0)
(0.001 -3.84746e-09 0)
(0.00100004 -9.97746e-09 0)
(0.00100012 -1.31833e-08 0)
(0.00100024 -1.48673e-08 0)
(0.00100038 -1.71166e-08 0)
(0.00100056 -2.27489e-08 0)
(0.00100075 -3.36186e-08 0)
(0.00100094 -5.34563e-08 0)
(0.00100111 -8.20304e-08 0)
(0.00100123 -1.22599e-07 0)
(0.00100128 -1.70602e-07 0)
(0.00100122 -2.31921e-07 0)
(0.00100107 -2.91008e-07 0)
(0.00100081 -3.417e-07 0)
(0.00100053 -3.60147e-07 0)
(0.00100018 -3.68494e-07 0)
(0.000999946 -3.42916e-07 0)
(0.00099961 -3.53503e-07 0)
(0.000999523 -3.28532e-07 0)
(0.000999133 -4.10844e-07 0)
)
;

boundaryField
{
    sides
    {
        type            slip;
    }
    inlet
    {
        type            fixedValue;
        value           uniform (0.001 0 0);
    }
    outlet
    {
        type            zeroGradient;
    }
    frontAndBack
    {
        type            empty;
    }
}


// ************************************************************************* //
