/*--------------------------------*- C++ -*----------------------------------*\
  =========                 |
  \\      /  F ield         | OpenFOAM: The Open Source CFD Toolbox
   \\    /   O peration     | Website:  https://openfoam.org
    \\  /    A nd           | Version:  9
     \\/     M anipulation  |
\*---------------------------------------------------------------------------*/
FoamFile
{
    format      ascii;
    class       surfaceScalarField;
    location    "94";
    object      phi;
}
// * * * * * * * * * * * * * * * * * * * * * * * * * * * * * * * * * * * * * //

dimensions      [0 4 -1 0 0 0 0];

internalField   nonuniform List<scalar> 
760
(
5.0001e-06
-9.27725e-11
5.0004e-06
-3.06799e-10
5.00091e-06
-5.13576e-10
5.00162e-06
-7.03819e-10
5.00249e-06
-8.73632e-10
5.0035e-06
-1.00375e-09
5.00455e-06
-1.05857e-09
5.00557e-06
-1.01122e-09
5.0064e-06
-8.28144e-10
5.00693e-06
-5.19651e-10
5.00705e-06
-1.22333e-10
5.00665e-06
3.99515e-10
5.00579e-06
8.55267e-10
5.00469e-06
1.10566e-09
5.00352e-06
1.17451e-09
5.00257e-06
9.54186e-10
5.00186e-06
7.16779e-10
5.00162e-06
2.45617e-10
5.00151e-06
1.05266e-10
-3.92996e-10
5.00012e-06
-2.13012e-10
5.00045e-06
-6.3395e-10
5.00098e-06
-1.04616e-09
5.00172e-06
-1.44307e-09
5.00265e-06
-1.80711e-09
5.00374e-06
-2.094e-09
5.00493e-06
-2.2446e-09
5.00611e-06
-2.18695e-09
5.00713e-06
-1.848e-09
5.00778e-06
-1.16364e-09
5.00774e-06
-8.89189e-11
5.00725e-06
8.87959e-10
5.00626e-06
1.84565e-09
5.00495e-06
2.41684e-09
5.00368e-06
2.44749e-09
5.00277e-06
1.86025e-09
5.00225e-06
1.24756e-09
5.00191e-06
5.82031e-10
5.00165e-06
3.67721e-10
-1.48667e-10
5.00011e-06
-3.19623e-10
5.00043e-06
-9.51578e-10
5.00096e-06
-1.57739e-09
5.00172e-06
-2.20879e-09
5.00272e-06
-2.80828e-09
5.00395e-06
-3.31552e-09
5.00532e-06
-3.62101e-09
5.00672e-06
-3.58919e-09
5.00793e-06
-3.05339e-09
5.00872e-06
-1.95864e-09
5.00893e-06
-3.01739e-10
5.00825e-06
1.56797e-09
5.00687e-06
3.22604e-09
5.00515e-06
4.13404e-09
5.00351e-06
4.09192e-09
5.00231e-06
3.05667e-09
5.00166e-06
1.89189e-09
5.00147e-06
7.72391e-10
5.00144e-06
3.98764e-10
-2.21802e-10
5.0001e-06
-4.17587e-10
5.00041e-06
-1.25963e-09
5.00094e-06
-2.11391e-09
5.00175e-06
-3.0127e-09
5.00286e-06
-3.91479e-09
5.00429e-06
-4.74746e-09
5.00602e-06
-5.34976e-09
5.00795e-06
-5.52622e-09
5.00984e-06
-4.94679e-09
5.01108e-06
-3.19283e-09
5.01119e-06
-4.41421e-10
5.00999e-06
2.77438e-09
5.00765e-06
5.56582e-09
5.00514e-06
6.6358e-09
5.00347e-06
5.7618e-09
5.0027e-06
3.82818e-09
5.00248e-06
2.11138e-09
5.00231e-06
9.39518e-10
5.00199e-06
7.12177e-10
3.40208e-10
5.00008e-06
-4.99451e-10
5.00034e-06
-1.51899e-09
5.00083e-06
-2.60753e-09
5.00163e-06
-3.81343e-09
5.00286e-06
-5.1341e-09
5.00458e-06
-6.46363e-09
5.0068e-06
-7.57509e-09
5.00942e-06
-8.14609e-09
5.01239e-06
-7.92551e-09
5.01478e-06
-5.59085e-09
5.01483e-06
-4.84799e-10
5.01284e-06
4.73434e-09
5.00867e-06
9.74554e-09
5.0046e-06
1.07095e-08
5.00224e-06
8.11393e-09
5.00174e-06
4.32256e-09
5.00205e-06
1.80557e-09
5.00225e-06
7.25754e-10
5.00201e-06
9.53116e-10
6.27694e-10
5.00004e-06
-5.43326e-10
5.00019e-06
-1.67662e-09
5.00054e-06
-2.94748e-09
5.00121e-06
-4.48266e-09
5.00241e-06
-6.33082e-09
5.00452e-06
-8.57622e-09
5.0076e-06
-1.06522e-08
5.01167e-06
-1.22247e-08
5.01553e-06
-1.17742e-08
5.019e-06
-9.10766e-09
5.02022e-06
-1.6624e-09
5.01603e-06
8.91714e-09
5.00951e-06
1.62441e-08
5.00421e-06
1.60063e-08
5.00217e-06
1.0158e-08
5.0025e-06
3.9976e-09
5.00327e-06
1.02829e-09
5.00339e-06
5.96642e-10
5.0028e-06
1.54626e-09
1.42234e-09
4.99998e-06
-5.26254e-10
4.99994e-06
-1.63618e-09
5.00003e-06
-3.03891e-09
5.00036e-06
-4.81034e-09
5.00122e-06
-7.18993e-09
5.00292e-06
-1.02768e-08
5.0068e-06
-1.45376e-08
5.01393e-06
-1.93381e-08
5.02373e-06
-2.16169e-08
5.03095e-06
-1.62539e-08
5.02869e-06
4.81492e-10
5.01676e-06
2.09641e-08
5.0042e-06
2.8813e-08
4.99873e-06
2.14575e-08
5.00058e-06
8.31763e-09
5.00285e-06
1.72863e-09
5.00372e-06
1.59613e-10
5.00366e-06
6.49079e-10
5.00305e-06
2.16075e-09
1.68041e-09
4.99986e-06
-3.93283e-10
4.99955e-06
-1.32232e-09
4.99912e-06
-2.61122e-09
4.99886e-06
-4.53987e-09
4.99933e-06
-7.66596e-09
5.00035e-06
-1.13075e-08
5.00365e-06
-1.78269e-08
5.00982e-06
-2.55193e-08
5.02485e-06
-3.66476e-08
5.05612e-06
-4.74064e-08
5.05003e-06
7.23484e-09
5.02318e-06
4.78126e-08
4.99819e-06
5.38548e-08
4.9935e-06
2.61564e-08
4.99946e-06
2.35093e-09
5.00407e-06
-2.87582e-09
5.00491e-06
-6.72096e-10
5.00373e-06
1.83282e-09
5.00351e-06
2.37897e-09
9.68748e-10
4.99977e-06
-1.60354e-10
4.99915e-06
-7.05683e-10
4.99792e-06
-1.37807e-09
4.99611e-06
-2.73056e-09
4.99402e-06
-5.57779e-09
4.99374e-06
-1.10313e-08
4.99945e-06
-2.35347e-08
5.01714e-06
-4.31908e-08
5.05574e-06
-7.52385e-08
5.06683e-06
-5.86064e-08
5.04973e-06
2.36535e-08
4.99649e-06
1.01044e-07
4.98929e-06
6.10009e-08
4.9959e-06
1.95352e-08
5.00018e-06
-1.93259e-09
5.00292e-06
-5.61424e-09
5.00252e-06
-2.74971e-10
5.00184e-06
2.5163e-09
5.00255e-06
1.67764e-09
8.21753e-11
4.99986e-06
-1.6356e-11
4.99921e-06
-5.0552e-11
4.99791e-06
-8.53551e-11
4.99531e-06
-1.27412e-10
4.98989e-06
-1.70142e-10
4.97908e-06
-2.20525e-10
4.95582e-06
-2.67493e-10
4.91296e-06
-3.30882e-10
4.83815e-06
-4.03822e-10
4.77996e-06
-4.96748e-10
4.80433e-06
-5.81765e-10
4.90602e-06
-7.76506e-10
4.96777e-06
-7.68948e-10
4.98822e-06
-9.09911e-10
4.98744e-06
-1.16506e-09
4.98325e-06
-1.42515e-09
4.98455e-06
-1.55578e-09
4.9889e-06
-1.82555e-09
4.99248e-06
-1.89434e-09
-2.585e-09
4.99986e-06
1.27124e-10
4.99921e-06
6.02981e-10
4.99791e-06
1.21168e-09
4.9953e-06
2.48139e-09
4.98987e-06
5.25039e-09
4.97906e-06
1.06016e-08
4.95578e-06
2.3012e-08
4.9129e-06
4.25415e-08
4.83802e-06
7.44493e-08
4.77976e-06
5.78363e-08
4.80422e-06
-2.52186e-08
4.906e-06
-1.02474e-07
4.96778e-06
-6.25219e-08
4.98807e-06
-2.12052e-08
4.98736e-06
-4.56763e-10
4.98293e-06
2.99734e-09
4.98442e-06
-3.05037e-09
4.98889e-06
-6.28469e-09
4.99235e-06
-5.35731e-09
-4.98383e-09
4.99977e-06
3.58989e-10
4.99915e-06
1.22294e-09
4.99792e-06
2.44276e-09
4.9961e-06
4.29525e-09
4.99401e-06
7.33407e-09
4.99373e-06
1.08905e-08
4.99943e-06
1.73134e-08
5.01708e-06
2.48886e-08
5.0556e-06
3.59145e-08
5.06711e-06
4.64168e-08
5.04954e-06
-7.31493e-09
4.99611e-06
-4.90882e-08
4.98886e-06
-5.52433e-08
4.9957e-06
-2.80427e-08
5.00011e-06
-4.86842e-09
5.00231e-06
7.8754e-10
5.00165e-06
-2.39359e-09
5.0009e-06
-5.53537e-09
5.00169e-06
-6.13739e-09
-5.95155e-09
4.99987e-06
4.93431e-10
4.99955e-06
1.54028e-09
4.99911e-06
2.87861e-09
4.99883e-06
4.57804e-09
4.99927e-06
6.88832e-09
5.00026e-06
9.89593e-09
5.00347e-06
1.41074e-08
5.0096e-06
1.87662e-08
5.02462e-06
2.09138e-08
5.05552e-06
1.54024e-08
5.04969e-06
-1.71737e-09
5.02283e-06
-2.21533e-08
4.99786e-06
-3.03145e-08
4.99315e-06
-2.3338e-08
4.99864e-06
-1.03486e-08
5.00345e-06
-4.02245e-09
5.00373e-06
-2.67148e-09
5.00236e-06
-4.16053e-09
5.00216e-06
-5.94403e-09
-6.53572e-09
4.99998e-06
5.1537e-10
4.99993e-06
1.58965e-09
5e-06
2.80205e-09
5.00031e-06
4.27573e-09
5.00114e-06
6.06182e-09
5.00279e-06
8.23179e-09
5.00667e-06
1.02225e-08
5.01378e-06
1.16735e-08
5.02358e-06
1.1127e-08
5.0307e-06
8.26115e-09
5.02841e-06
6.32849e-10
5.01623e-06
-1.00513e-08
5.00349e-06
-1.75652e-08
4.99777e-06
-1.76141e-08
4.99941e-06
-1.19869e-08
5.00161e-06
-6.21602e-09
5.00241e-06
-3.46196e-09
5.00213e-06
-3.88656e-09
5.00119e-06
-5.00711e-09
-5.97758e-09
5.00004e-06
4.77502e-10
5.00018e-06
1.44561e-09
5.0005e-06
2.4808e-09
5.00115e-06
3.62965e-09
5.00232e-06
4.89128e-09
5.00439e-06
6.15348e-09
5.00741e-06
7.19779e-09
5.01139e-06
7.69647e-09
5.01513e-06
7.39624e-09
5.01853e-06
4.88761e-09
5.01955e-06
-4.07924e-10
5.01522e-06
-5.70162e-09
5.00854e-06
-1.08694e-08
5.00311e-06
-1.21755e-08
5.00088e-06
-9.74866e-09
5.00101e-06
-6.34387e-09
5.00156e-06
-4.00481e-09
5.00132e-06
-3.64855e-09
5.00035e-06
-4.04546e-09
-4.97798e-09
5.00008e-06
3.98721e-10
5.00032e-06
1.20023e-09
5.00079e-06
2.01073e-09
5.00157e-06
2.85743e-09
5.00275e-06
3.7105e-09
5.00441e-06
4.49269e-09
5.00656e-06
5.04597e-09
5.00909e-06
5.15371e-09
5.01203e-06
4.46005e-09
5.0144e-06
2.51659e-09
5.01414e-06
-1.34484e-10
5.01208e-06
-3.63268e-09
5.00775e-06
-6.53018e-09
5.00349e-06
-7.90366e-09
5.00093e-06
-7.18511e-09
5.00014e-06
-5.54755e-09
5.00011e-06
-3.9823e-09
4.99987e-06
-3.42251e-09
4.99917e-06
-3.34407e-09
-4.17404e-09
5.0001e-06
2.98807e-10
5.00039e-06
9.01823e-10
5.00091e-06
1.50077e-09
5.00167e-06
2.0922e-09
5.00274e-06
2.65108e-09
5.00413e-06
3.11099e-09
5.00579e-06
3.37646e-09
5.00763e-06
3.30574e-09
5.00933e-06
2.75252e-09
5.01027e-06
1.57308e-09
5.01043e-06
-2.99758e-10
5.00903e-06
-2.23062e-09
5.00651e-06
-4.00316e-09
5.00368e-06
-5.07646e-09
5.00155e-06
-5.05804e-09
5.00035e-06
-4.35366e-09
4.9997e-06
-3.34663e-09
4.99916e-06
-2.89276e-09
4.99845e-06
-2.63075e-09
-3.21809e-09
5.0001e-06
1.95455e-10
5.00041e-06
5.92235e-10
5.00093e-06
9.85505e-10
5.00166e-06
1.36056e-09
5.00261e-06
1.69743e-09
5.00378e-06
1.95202e-09
5.0051e-06
2.06292e-09
5.00645e-06
1.94941e-09
5.00765e-06
1.54959e-09
5.00839e-06
8.25113e-10
5.00821e-06
-1.32278e-10
5.00734e-06
-1.35901e-09
5.0057e-06
-2.37521e-09
5.00369e-06
-3.06492e-09
5.00179e-06
-3.17075e-09
5.00033e-06
-2.90055e-09
4.99931e-06
-2.33097e-09
4.99852e-06
-2.10159e-09
4.99773e-06
-1.83856e-09
-2.2806e-09
5.00008e-06
1.12346e-10
5.00037e-06
3.0255e-10
5.00086e-06
4.93834e-10
5.00155e-06
6.76823e-10
5.00241e-06
8.35566e-10
5.00341e-06
9.50455e-10
5.00449e-06
9.933e-10
5.00551e-06
9.29998e-10
5.00633e-06
7.30015e-10
5.0068e-06
3.55789e-10
5.00681e-06
-1.45525e-10
5.00608e-06
-6.31362e-10
5.00479e-06
-1.09306e-09
5.00315e-06
-1.43002e-09
5.00148e-06
-1.5024e-09
5.00002e-06
-1.43974e-09
4.99888e-06
-1.19068e-09
4.99792e-06
-1.13976e-09
4.99707e-06
-9.80334e-10
-1.42656e-09
5.00011e-06
5.00042e-06
5.00091e-06
5.00158e-06
5.00242e-06
5.00337e-06
5.00436e-06
5.0053e-06
5.00603e-06
5.00639e-06
5.00625e-06
5.00562e-06
5.00453e-06
5.0031e-06
5.0016e-06
5.00017e-06
4.99898e-06
4.99785e-06
4.99688e-06
)
;

boundaryField
{
    sides
    {
        type            calculated;
        value           uniform 0;
    }
    inlet
    {
        type            calculated;
        value           nonuniform List<scalar> 
20
(
-5e-06
-5e-06
-5e-06
-5e-06
-5e-06
-5e-06
-5e-06
-5e-06
-5e-06
-5e-06
-5e-06
-5e-06
-5e-06
-5e-06
-5e-06
-5e-06
-5e-06
-5e-06
-5e-06
-5e-06
)
;
    }
    outlet
    {
        type            calculated;
        value           nonuniform List<scalar> 
20
(
5.0019e-06
5.00141e-06
5.00152e-06
5.00143e-06
5.00172e-06
5.002e-06
5.00279e-06
5.00422e-06
5.00344e-06
4.99514e-06
4.99475e-06
5.00265e-06
5.00275e-06
5.00063e-06
4.99935e-06
4.99836e-06
4.99749e-06
4.99679e-06
4.99622e-06
4.99545e-06
)
;
    }
    frontAndBack
    {
        type            empty;
        value           nonuniform List<scalar> 0();
    }
}


// ************************************************************************* //
