/*--------------------------------*- C++ -*----------------------------------*\
  =========                 |
  \\      /  F ield         | OpenFOAM: The Open Source CFD Toolbox
   \\    /   O peration     | Website:  https://openfoam.org
    \\  /    A nd           | Version:  9
     \\/     M anipulation  |
\*---------------------------------------------------------------------------*/
FoamFile
{
    format      ascii;
    class       surfaceScalarField;
    location    "94";
    object      phi_0;
}
// * * * * * * * * * * * * * * * * * * * * * * * * * * * * * * * * * * * * * //

dimensions      [0 4 -1 0 0 0 0];

internalField   nonuniform List<scalar> 
760
(
5.0001e-06
-9.21706e-11
5.0004e-06
-3.06181e-10
5.00091e-06
-5.14276e-10
5.00162e-06
-7.0546e-10
5.00249e-06
-8.72799e-10
5.0035e-06
-1.0039e-09
5.00455e-06
-1.0596e-09
5.00557e-06
-1.01317e-09
5.0064e-06
-8.28058e-10
5.00692e-06
-5.20552e-10
5.00705e-06
-1.21918e-10
5.00665e-06
3.99783e-10
5.00579e-06
8.56115e-10
5.00469e-06
1.10649e-09
5.00352e-06
1.17452e-09
5.00257e-06
9.54942e-10
5.00186e-06
7.16871e-10
5.00161e-06
2.44844e-10
5.00151e-06
1.04996e-10
-3.93158e-10
5.00012e-06
-2.12506e-10
5.00045e-06
-6.33765e-10
5.00098e-06
-1.04717e-09
5.00172e-06
-1.44359e-09
5.00265e-06
-1.80606e-09
5.00374e-06
-2.09542e-09
5.00493e-06
-2.24647e-09
5.00611e-06
-2.18963e-09
5.00713e-06
-1.84847e-09
5.00778e-06
-1.16346e-09
5.00774e-06
-8.96883e-11
5.00725e-06
8.91018e-10
5.00626e-06
1.84677e-09
5.00495e-06
2.41875e-09
5.00368e-06
2.44915e-09
5.00277e-06
1.8614e-09
5.00225e-06
1.24769e-09
5.00191e-06
5.81786e-10
5.00165e-06
3.67727e-10
-1.48482e-10
5.00011e-06
-3.19743e-10
5.00043e-06
-9.52003e-10
5.00096e-06
-1.57731e-09
5.00172e-06
-2.20744e-09
5.00272e-06
-2.809e-09
5.00394e-06
-3.31715e-09
5.00532e-06
-3.62339e-09
5.00672e-06
-3.58965e-09
5.00793e-06
-3.05594e-09
5.00872e-06
-1.95603e-09
5.00894e-06
-3.00948e-10
5.00825e-06
1.57014e-09
5.00687e-06
3.23036e-09
5.00515e-06
4.1352e-09
5.00351e-06
4.09361e-09
5.00231e-06
3.05832e-09
5.00166e-06
1.89265e-09
5.00147e-06
7.7285e-10
5.00145e-06
3.99021e-10
-2.21637e-10
5.0001e-06
-4.17905e-10
5.00041e-06
-1.25989e-09
5.00095e-06
-2.11307e-09
5.00175e-06
-3.01185e-09
5.00285e-06
-3.91548e-09
5.00429e-06
-4.74891e-09
5.00602e-06
-5.3491e-09
5.00795e-06
-5.52828e-09
5.00984e-06
-4.94457e-09
5.01107e-06
-3.19613e-09
5.0112e-06
-4.28599e-10
5.00999e-06
2.77451e-09
5.00765e-06
5.568e-09
5.00514e-06
6.63957e-09
5.00347e-06
5.76173e-09
5.0027e-06
3.82743e-09
5.00248e-06
2.11177e-09
5.00231e-06
9.40672e-10
5.00199e-06
7.12966e-10
3.40361e-10
5.00008e-06
-4.99225e-10
5.00034e-06
-1.51899e-09
5.00083e-06
-2.60751e-09
5.00163e-06
-3.81342e-09
5.00286e-06
-5.13518e-09
5.00458e-06
-6.46251e-09
5.0068e-06
-7.57426e-09
5.00942e-06
-8.14496e-09
5.01238e-06
-7.92357e-09
5.01479e-06
-5.58642e-09
5.01482e-06
-4.97545e-10
5.01285e-06
4.75066e-09
5.00867e-06
9.7433e-09
5.00459e-06
1.07074e-08
5.00224e-06
8.11496e-09
5.00174e-06
4.32182e-09
5.00205e-06
1.80541e-09
5.00225e-06
7.26998e-10
5.00201e-06
9.54287e-10
6.28042e-10
5.00004e-06
-5.42596e-10
5.0002e-06
-1.6768e-09
5.00054e-06
-2.94819e-09
5.00121e-06
-4.48403e-09
5.00241e-06
-6.33087e-09
5.00452e-06
-8.57456e-09
5.0076e-06
-1.06502e-08
5.01167e-06
-1.22203e-08
5.01553e-06
-1.1779e-08
5.019e-06
-9.08064e-09
5.02023e-06
-1.70074e-09
5.01601e-06
8.90865e-09
5.00951e-06
1.62554e-08
5.00421e-06
1.60042e-08
5.00217e-06
1.0154e-08
5.0025e-06
3.99594e-09
5.00327e-06
1.02803e-09
5.00339e-06
5.9726e-10
5.00279e-06
1.54699e-09
1.42254e-09
4.99998e-06
-5.25693e-10
4.99994e-06
-1.63641e-09
5.00003e-06
-3.04023e-09
5.00036e-06
-4.8117e-09
5.00122e-06
-7.18987e-09
5.00292e-06
-1.02744e-08
5.0068e-06
-1.4535e-08
5.01392e-06
-1.93403e-08
5.02376e-06
-2.16042e-08
5.03089e-06
-1.62906e-08
5.02874e-06
5.62054e-10
5.01677e-06
2.09267e-08
5.00419e-06
2.87994e-08
4.99873e-06
2.14584e-08
5.00058e-06
8.31589e-09
5.00285e-06
1.72681e-09
5.00372e-06
1.5886e-10
5.00366e-06
6.48573e-10
5.00304e-06
2.16096e-09
1.68058e-09
4.99986e-06
-3.9328e-10
4.99955e-06
-1.32266e-09
4.99912e-06
-2.61221e-09
4.99886e-06
-4.54102e-09
4.99933e-06
-7.66467e-09
5.00036e-06
-1.13064e-08
5.00365e-06
-1.7826e-08
5.00983e-06
-2.55186e-08
5.02486e-06
-3.66738e-08
5.05613e-06
-4.74178e-08
5.05005e-06
6.14028e-09
5.02321e-06
4.78742e-08
4.99819e-06
5.38405e-08
4.99349e-06
2.61458e-08
4.99946e-06
2.34728e-09
5.00407e-06
-2.87706e-09
5.00491e-06
-6.72735e-10
5.00373e-06
1.83159e-09
5.00351e-06
2.37834e-09
9.68793e-10
4.99977e-06
-1.6094e-10
4.99915e-06
-7.05932e-10
4.99792e-06
-1.37857e-09
4.99611e-06
-2.7305e-09
4.99402e-06
-5.57686e-09
4.99374e-06
-1.10303e-08
4.99945e-06
-2.35379e-08
5.01713e-06
-4.3194e-08
5.05573e-06
-7.52207e-08
5.06682e-06
-5.86435e-08
5.04972e-06
2.37469e-08
4.99646e-06
1.01013e-07
4.98928e-06
6.09917e-08
4.9959e-06
1.95371e-08
5.00018e-06
-1.92897e-09
5.00293e-06
-5.61272e-09
5.00252e-06
-2.45997e-10
5.00184e-06
2.51474e-09
5.00255e-06
1.67673e-09
7.33217e-11
4.99986e-06
-1.7085e-11
4.99921e-06
-5.06593e-11
4.99791e-06
-8.48423e-11
4.99531e-06
-1.27015e-10
4.98989e-06
-1.69563e-10
4.97908e-06
-2.21771e-10
4.95582e-06
-2.69339e-10
4.91296e-06
-3.29082e-10
4.83813e-06
-4.03663e-10
4.78002e-06
-4.56486e-10
4.80428e-06
-6.44509e-10
4.90601e-06
-7.71215e-10
4.96778e-06
-7.49619e-10
4.98822e-06
-9.05207e-10
4.98744e-06
-1.16164e-09
4.98325e-06
-1.42286e-09
4.98456e-06
-1.55349e-09
4.98891e-06
-1.82528e-09
4.99248e-06
-1.89414e-09
-2.58474e-09
4.99986e-06
1.27087e-10
4.99921e-06
6.03165e-10
4.99791e-06
1.21278e-09
4.9953e-06
2.48183e-09
4.98987e-06
5.24904e-09
4.97905e-06
1.0601e-08
4.95578e-06
2.30113e-08
4.9129e-06
4.25435e-08
4.83803e-06
7.44541e-08
4.77972e-06
5.78197e-08
4.80425e-06
-2.50278e-08
4.90602e-06
-1.02487e-07
4.96777e-06
-6.2527e-08
4.98806e-06
-2.12072e-08
4.98735e-06
-4.56567e-10
4.98293e-06
2.99809e-09
4.98442e-06
-3.0487e-09
4.98889e-06
-6.28292e-09
4.99235e-06
-5.35625e-09
-4.98356e-09
4.99977e-06
3.59909e-10
4.99915e-06
1.22349e-09
4.99792e-06
2.44346e-09
4.9961e-06
4.2955e-09
4.99402e-06
7.33169e-09
4.99373e-06
1.08889e-08
4.99943e-06
1.73167e-08
5.01708e-06
2.48884e-08
5.05561e-06
3.59035e-08
5.06711e-06
4.64071e-08
5.04943e-06
-8.84254e-09
4.99613e-06
-4.90368e-08
4.98886e-06
-5.52585e-08
4.99569e-06
-2.80508e-08
5.0001e-06
-4.87153e-09
5.00231e-06
7.87489e-10
5.00165e-06
-2.39116e-09
5.00091e-06
-5.53294e-09
5.00168e-06
-6.13668e-09
-5.95172e-09
4.99987e-06
4.94579e-10
4.99955e-06
1.54082e-09
4.99911e-06
2.87878e-09
4.99883e-06
4.57825e-09
4.99928e-06
6.8868e-09
5.00027e-06
9.89363e-09
5.00347e-06
1.41081e-08
5.0096e-06
1.87681e-08
5.02461e-06
2.0917e-08
5.05553e-06
1.53786e-08
5.04981e-06
-1.56061e-09
5.0228e-06
-2.21925e-08
4.99786e-06
-3.03179e-08
4.99316e-06
-2.33394e-08
4.99864e-06
-1.03491e-08
5.00345e-06
-4.02079e-09
5.00373e-06
-2.66923e-09
5.00236e-06
-4.15976e-09
5.00216e-06
-5.94505e-09
-6.53656e-09
4.99998e-06
5.15322e-10
4.99993e-06
1.59009e-09
5e-06
2.80205e-09
5.00031e-06
4.2764e-09
5.00114e-06
6.06232e-09
5.0028e-06
8.2296e-09
5.00667e-06
1.02197e-08
5.01378e-06
1.16749e-08
5.02357e-06
1.11304e-08
5.03073e-06
8.27814e-09
5.02837e-06
5.96271e-10
5.01623e-06
-1.00441e-08
5.00349e-06
-1.75613e-08
4.99777e-06
-1.76102e-08
4.99942e-06
-1.1982e-08
5.00162e-06
-6.21266e-09
5.00241e-06
-3.46129e-09
5.00213e-06
-3.88789e-09
5.00119e-06
-5.00878e-09
-5.9783e-09
5.00004e-06
4.75891e-10
5.00018e-06
1.44566e-09
5.0005e-06
2.48179e-09
5.00115e-06
3.63055e-09
5.00232e-06
4.89337e-09
5.0044e-06
6.15308e-09
5.00741e-06
7.19434e-09
5.01139e-06
7.69268e-09
5.01513e-06
7.39925e-09
5.01852e-06
4.89021e-09
5.01956e-06
-4.02572e-10
5.01523e-06
-5.69377e-09
5.00854e-06
-1.0862e-08
5.00312e-06
-1.21681e-08
5.00089e-06
-9.74408e-09
5.00101e-06
-6.34245e-09
5.00155e-06
-4.00668e-09
5.00131e-06
-3.65122e-09
5.00035e-06
-4.04626e-09
-4.97775e-09
5.00008e-06
3.96934e-10
5.00032e-06
1.19977e-09
5.00079e-06
2.01193e-09
5.00156e-06
2.85834e-09
5.00275e-06
3.71204e-09
5.00441e-06
4.49434e-09
5.00656e-06
5.04441e-09
5.00909e-06
5.15005e-09
5.01203e-06
4.4565e-09
5.0144e-06
2.5167e-09
5.01414e-06
-1.31578e-10
5.01208e-06
-3.63008e-09
5.00776e-06
-6.52616e-09
5.0035e-06
-7.90146e-09
5.00093e-06
-7.18485e-09
5.00013e-06
-5.54923e-09
5.0001e-06
-3.98558e-09
4.99987e-06
-3.4247e-09
4.99917e-06
-3.34357e-09
-4.17314e-09
5.0001e-06
2.98892e-10
5.0004e-06
9.01072e-10
5.00091e-06
1.50014e-09
5.00167e-06
2.0918e-09
5.00273e-06
2.65133e-09
5.00412e-06
3.1138e-09
5.00579e-06
3.37878e-09
5.00763e-06
3.30588e-09
5.00933e-06
2.74944e-09
5.01027e-06
1.56977e-09
5.01043e-06
-3.02338e-10
5.00903e-06
-2.23366e-09
5.00651e-06
-4.00628e-09
5.00368e-06
-5.07986e-09
5.00155e-06
-5.06166e-09
5.00034e-06
-4.35763e-09
4.9997e-06
-3.34925e-09
4.99916e-06
-2.89323e-09
4.99845e-06
-2.63003e-09
-3.21759e-09
5.0001e-06
1.97802e-10
5.00041e-06
5.91732e-10
5.00093e-06
9.82554e-10
5.00166e-06
1.35861e-09
5.00261e-06
1.69704e-09
5.00378e-06
1.95454e-09
5.0051e-06
2.06752e-09
5.00645e-06
1.9529e-09
5.00765e-06
1.55041e-09
5.00839e-06
8.23631e-10
5.00821e-06
-1.35057e-10
5.00734e-06
-1.3627e-09
5.0057e-06
-2.3799e-09
5.00368e-06
-3.06916e-09
5.00179e-06
-3.17515e-09
5.00033e-06
-2.90412e-09
4.99931e-06
-2.33141e-09
4.99852e-06
-2.10065e-09
4.99773e-06
-1.83893e-09
-2.28121e-09
5.00008e-06
1.14873e-10
5.00037e-06
3.0252e-10
5.00087e-06
4.91026e-10
5.00155e-06
6.74751e-10
5.00241e-06
8.35284e-10
5.00341e-06
9.51877e-10
5.00449e-06
9.96742e-10
5.00551e-06
9.33289e-10
5.00633e-06
7.32205e-10
5.0068e-06
3.566e-10
5.00681e-06
-1.46001e-10
5.00608e-06
-6.32812e-10
5.00479e-06
-1.09534e-09
5.00315e-06
-1.43217e-09
5.00148e-06
-1.50498e-09
5.00002e-06
-1.44149e-09
4.99888e-06
-1.19006e-09
4.99792e-06
-1.13875e-09
4.99707e-06
-9.81107e-10
-1.42736e-09
5.00011e-06
5.00042e-06
5.00091e-06
5.00159e-06
5.00242e-06
5.00337e-06
5.00436e-06
5.00529e-06
5.00603e-06
5.00639e-06
5.00625e-06
5.00562e-06
5.00453e-06
5.0031e-06
5.0016e-06
5.00017e-06
4.99898e-06
4.99785e-06
4.99688e-06
)
;

boundaryField
{
    sides
    {
        type            calculated;
        value           uniform 0;
    }
    inlet
    {
        type            calculated;
        value           nonuniform List<scalar> 
20
(
-5e-06
-5e-06
-5e-06
-5e-06
-5e-06
-5e-06
-5e-06
-5e-06
-5e-06
-5e-06
-5e-06
-5e-06
-5e-06
-5e-06
-5e-06
-5e-06
-5e-06
-5e-06
-5e-06
-5e-06
)
;
    }
    outlet
    {
        type            calculated;
        value           nonuniform List<scalar> 
20
(
5.0019e-06
5.00141e-06
5.00152e-06
5.00143e-06
5.00172e-06
5.002e-06
5.00279e-06
5.00422e-06
5.00344e-06
4.99514e-06
4.99475e-06
5.00265e-06
5.00275e-06
5.00063e-06
4.99935e-06
4.99836e-06
4.99749e-06
4.99679e-06
4.99622e-06
4.99546e-06
)
;
    }
    frontAndBack
    {
        type            empty;
        value           nonuniform List<scalar> 0();
    }
}


// ************************************************************************* //
