/*--------------------------------*- C++ -*----------------------------------*\
  =========                 |
  \\      /  F ield         | OpenFOAM: The Open Source CFD Toolbox
   \\    /   O peration     | Website:  https://openfoam.org
    \\  /    A nd           | Version:  9
     \\/     M anipulation  |
\*---------------------------------------------------------------------------*/
FoamFile
{
    format      ascii;
    class       volVectorField;
    location    "36";
    object      ddt0(hU);
}
// * * * * * * * * * * * * * * * * * * * * * * * * * * * * * * * * * * * * * //

dimensions      [0 2 -2 0 0 0 0];

internalField   nonuniform List<vector> 
400
(
(-1.16609e-08 -7.65346e-10 0)
(7.69818e-08 1.02662e-08 0)
(9.81565e-08 1.02757e-08 0)
(8.64266e-08 5.89895e-09 0)
(6.74705e-08 -1.23764e-09 0)
(4.29026e-08 -1.20726e-08 0)
(2.72679e-08 -2.25645e-08 0)
(2.12163e-08 -2.14123e-08 0)
(7.51271e-09 -1.21707e-08 0)
(-2.39008e-08 -1.63166e-10 0)
(-5.16663e-08 -6.05598e-09 0)
(-6.06597e-08 -1.37094e-08 0)
(-3.66881e-08 -1.50671e-08 0)
(-1.51134e-08 -9.37381e-09 0)
(-2.1418e-08 2.89883e-09 0)
(-3.71208e-08 6.02293e-09 0)
(-3.84177e-08 -1.86574e-09 0)
(-2.52443e-09 -6.1887e-09 0)
(4.61882e-08 -5.52803e-09 0)
(3.68176e-08 -6.24929e-10 0)
(-9.61478e-09 -7.79172e-09 0)
(6.6771e-08 1.60816e-08 0)
(8.66641e-08 1.96367e-08 0)
(7.8407e-08 1.1132e-08 0)
(6.19477e-08 -5.66732e-09 0)
(3.84444e-08 -3.29311e-08 0)
(2.52743e-08 -5.71851e-08 0)
(1.5966e-08 -5.50957e-08 0)
(4.89004e-09 -2.9459e-08 0)
(-2.47773e-08 -2.37016e-09 0)
(-5.21327e-08 -4.92777e-09 0)
(-5.06455e-08 -3.96897e-08 0)
(-4.09696e-08 -4.81602e-08 0)
(-2.19504e-08 -2.66689e-08 0)
(-2.23763e-08 5.98913e-09 0)
(-3.46901e-08 1.73175e-08 0)
(-3.0012e-08 -1.20587e-08 0)
(-4.66185e-09 -5.4163e-08 0)
(2.97678e-08 -3.16052e-08 0)
(2.7805e-08 7.76e-09 0)
(-6.98434e-09 -1.57618e-08 0)
(5.5133e-08 1.73666e-08 0)
(7.3721e-08 2.79285e-08 0)
(6.91379e-08 1.69425e-08 0)
(5.33026e-08 -9.04223e-09 0)
(3.44074e-08 -4.87975e-08 0)
(2.0824e-08 -7.72483e-08 0)
(1.24154e-08 -7.90641e-08 0)
(-6.06252e-09 -3.39795e-08 0)
(-1.96382e-08 -2.9905e-09 0)
(-5.16088e-08 -3.62321e-09 0)
(-5.40223e-08 -5.8113e-08 0)
(-3.76575e-08 -8.14467e-08 0)
(-2.7413e-08 -4.19053e-08 0)
(-2.32019e-08 5.71777e-09 0)
(-3.64203e-08 2.26542e-08 0)
(-4.43247e-08 -1.32876e-08 0)
(-8.93232e-09 -6.40878e-08 0)
(4.64518e-08 -3.9515e-08 0)
(5.06675e-08 9.0106e-09 0)
(-1.57188e-09 -1.80579e-08 0)
(4.09603e-08 2.65474e-08 0)
(5.65634e-08 4.13975e-08 0)
(5.4004e-08 2.58274e-08 0)
(4.06503e-08 -9.43584e-09 0)
(2.75525e-08 -5.2332e-08 0)
(1.56259e-08 -9.01105e-08 0)
(7.52475e-09 -9.22058e-08 0)
(-1.38598e-08 -4.33744e-08 0)
(-2.98301e-08 1.04662e-08 0)
(-3.73216e-08 -2.31047e-08 0)
(-6.02138e-08 -7.07327e-08 0)
(-3.7272e-08 -1.00691e-07 0)
(-3.014e-08 -5.7262e-08 0)
(-2.77146e-08 6.99632e-09 0)
(-2.05408e-08 2.37811e-08 0)
(-1.35144e-08 -2.49214e-08 0)
(-6.23725e-09 -8.42159e-08 0)
(1.16243e-08 -4.42999e-08 0)
(2.64531e-08 1.92578e-08 0)
(4.28935e-09 -1.69576e-08 0)
(2.53251e-08 3.22992e-08 0)
(3.66374e-08 4.7815e-08 0)
(3.8182e-08 2.93038e-08 0)
(3.10108e-08 -4.27131e-09 0)
(2.02619e-08 -4.80331e-08 0)
(1.23319e-08 -9.52679e-08 0)
(-1.10019e-08 -9.45088e-08 0)
(-1.38348e-08 -4.41793e-08 0)
(-4.69867e-08 1.09169e-08 0)
(-4.91823e-08 -9.7563e-09 0)
(-3.11699e-08 -8.52157e-08 0)
(-5.10227e-08 -1.04426e-07 0)
(-3.4333e-08 -6.47121e-08 0)
(-2.5548e-08 1.28341e-09 0)
(-2.43391e-08 2.13746e-08 0)
(-2.04216e-08 -3.09625e-08 0)
(8.44372e-10 -1.01645e-07 0)
(3.58876e-08 -5.1497e-08 0)
(4.18813e-08 2.37625e-08 0)
(8.95497e-09 -1.24278e-08 0)
(9.12206e-09 3.53073e-08 0)
(1.63194e-08 4.89554e-08 0)
(2.48909e-08 3.21366e-08 0)
(2.08555e-08 3.16543e-09 0)
(1.46388e-08 -4.28081e-08 0)
(2.30216e-09 -8.98734e-08 0)
(-1.24995e-08 -9.08447e-08 0)
(-4.42969e-08 -2.71773e-08 0)
(-2.13335e-08 -1.07632e-08 0)
(-5.93875e-08 1.85906e-08 0)
(-3.2524e-08 -9.24172e-08 0)
(-3.30501e-08 -1.34548e-07 0)
(-5.60742e-08 -6.97252e-08 0)
(-3.30977e-08 6.31954e-10 0)
(-5.68894e-09 1.88007e-08 0)
(9.15916e-09 -2.61215e-08 0)
(6.75247e-09 -8.10111e-08 0)
(7.98109e-09 -4.34727e-08 0)
(2.46729e-08 1.94612e-08 0)
(1.2224e-08 -6.65161e-09 0)
(-6.59749e-09 3.39613e-08 0)
(-2.0595e-09 4.48318e-08 0)
(1.28192e-08 3.19921e-08 0)
(1.40457e-08 7.25217e-09 0)
(8.20317e-09 -3.50765e-08 0)
(-2.71071e-09 -7.38838e-08 0)
(-2.53291e-08 -7.15442e-08 0)
(-5.163e-08 -3.59323e-08 0)
(-4.47654e-08 1.45447e-08 0)
(7.24782e-09 -7.8371e-08 0)
(-1.03286e-07 -2.93908e-08 0)
(-2.97065e-08 -1.17196e-07 0)
(-1.53714e-08 -7.99035e-08 0)
(-2.65066e-08 -6.91974e-09 0)
(-4.44939e-09 1.53033e-08 0)
(2.0859e-08 -3.13999e-08 0)
(1.65958e-08 -9.10154e-08 0)
(1.03104e-08 -4.59145e-08 0)
(2.19962e-08 2.26349e-08 0)
(1.43195e-08 -2.30277e-09 0)
(-2.09287e-08 2.74193e-08 0)
(-1.73343e-08 3.46328e-08 0)
(4.05213e-09 2.54911e-08 0)
(7.55593e-09 7.10973e-09 0)
(6.50707e-09 -2.56801e-08 0)
(-7.01902e-09 -5.59115e-08 0)
(-3.9712e-08 -5.75726e-08 0)
(-5.1204e-08 -2.96155e-08 0)
(-1.68015e-07 6.59597e-09 0)
(3.87228e-07 3.77828e-08 0)
(4.54831e-08 -1.08563e-07 0)
(-1.10314e-07 -8.77714e-08 0)
(-4.58347e-08 -6.61616e-08 0)
(-1.19523e-08 -2.22668e-08 0)
(1.17484e-08 7.81285e-11 0)
(3.14437e-08 -3.10158e-08 0)
(2.50803e-08 -7.45428e-08 0)
(9.0032e-09 -4.00162e-08 0)
(1.88976e-08 1.35292e-08 0)
(1.55416e-08 1.03736e-10 0)
(-3.21164e-08 1.79523e-08 0)
(-2.84415e-08 2.02219e-08 0)
(-1.58442e-09 1.38869e-08 0)
(5.47214e-09 4.27893e-09 0)
(2.20498e-09 -1.54374e-08 0)
(-1.23641e-08 -3.59446e-08 0)
(-4.15456e-08 -4.13393e-08 0)
(-8.13169e-08 -2.33457e-08 0)
(6.12873e-08 6.83467e-09 0)
(-4.66733e-07 2.01678e-08 0)
(-1.25708e-07 -8.96416e-08 0)
(2.44856e-08 -6.30745e-08 0)
(-3.75895e-08 -5.07837e-08 0)
(-1.96745e-08 -2.20669e-08 0)
(2.2529e-08 -1.28075e-08 0)
(4.04171e-08 -3.257e-08 0)
(3.52987e-08 -5.29876e-08 0)
(4.30826e-09 -2.95873e-08 0)
(1.73626e-08 1.15109e-08 0)
(1.60546e-08 -9.64378e-11 0)
(-3.9644e-08 5.34018e-09 0)
(-3.44998e-08 3.33002e-09 0)
(-3.73139e-09 -1.53039e-09 0)
(5.54535e-09 -2.56216e-09 0)
(5.15895e-09 -9.52346e-09 0)
(-1.81757e-08 -2.00509e-08 0)
(-5.64945e-08 -1.75118e-08 0)
(-6.32664e-08 -1.66724e-08 0)
(-8.01495e-08 2.2755e-08 0)
(-6.95061e-08 -6.20206e-08 0)
(3.50441e-08 5.50229e-08 0)
(-6.07351e-08 -1.12737e-08 0)
(-5.81168e-08 -2.53006e-08 0)
(-1.26993e-08 -1.32591e-08 0)
(1.95928e-08 -1.71433e-08 0)
(5.27324e-08 -2.57318e-08 0)
(4.03171e-08 -3.09008e-08 0)
(1.61145e-08 -1.76741e-08 0)
(2.29695e-08 7.76516e-09 0)
(1.6302e-08 -2.03385e-09 0)
(-4.02215e-08 -9.87278e-09 0)
(-3.47351e-08 -1.53358e-08 0)
(-2.69213e-09 -1.75784e-08 0)
(6.2822e-09 -1.56306e-08 0)
(3.71027e-09 -8.15874e-09 0)
(-1.92394e-08 -3.83809e-09 0)
(-5.77014e-08 -2.14242e-09 0)
(-5.51286e-08 1.42743e-08 0)
(-7.12492e-08 -1.48267e-08 0)
(-6.3762e-08 8.1874e-08 0)
(-1.4739e-08 1.4457e-08 0)
(-7.50163e-08 1.84227e-08 0)
(-5.28208e-08 1.78543e-08 0)
(-2.13827e-08 -7.6614e-09 0)
(1.2748e-08 -1.94924e-08 0)
(4.44037e-08 -8.31367e-09 0)
(4.194e-08 4.20453e-09 0)
(1.79879e-08 -7.26066e-10 0)
(2.64744e-08 1.5754e-10 0)
(1.63372e-08 -9.31052e-10 0)
(-3.38434e-08 -2.20031e-08 0)
(-2.84433e-08 -3.07139e-08 0)
(9.22481e-10 -3.12967e-08 0)
(7.69388e-09 -2.68039e-08 0)
(1.88088e-09 -8.06613e-09 0)
(-1.83695e-08 1.62159e-08 0)
(-4.42893e-08 3.16066e-08 0)
(-8.54633e-08 1.67356e-08 0)
(-1.13799e-08 -2.93848e-09 0)
(3.21661e-07 -3.5209e-08 0)
(-1.11757e-07 3.56753e-08 0)
(-2.47836e-08 5.7384e-08 0)
(-4.85577e-08 3.10781e-08 0)
(-2.94194e-08 -1.80194e-09 0)
(1.24129e-08 -1.67815e-08 0)
(4.42965e-08 3.82504e-09 0)
(3.95451e-08 3.51913e-08 0)
(1.28798e-08 1.89678e-08 0)
(2.05583e-08 -1.55986e-09 0)
(1.47663e-08 2.94433e-09 0)
(-2.3477e-08 -3.16633e-08 0)
(-1.76887e-08 -4.48937e-08 0)
(4.93125e-09 -4.14096e-08 0)
(7.90132e-09 -3.22275e-08 0)
(5.04184e-09 -3.90305e-09 0)
(-7.45992e-09 3.44629e-08 0)
(-4.32905e-08 5.4336e-08 0)
(-5.2117e-08 2.9642e-08 0)
(-1.1353e-07 -2.68576e-09 0)
(-3.79232e-07 -1.32354e-08 0)
(5.25422e-08 6.1422e-08 0)
(-5.52187e-08 7.95692e-08 0)
(-3.52895e-08 4.82219e-08 0)
(-1.2925e-08 2.55676e-09 0)
(4.20711e-09 -2.07205e-08 0)
(2.95455e-08 1.60225e-08 0)
(3.29023e-08 6.5604e-08 0)
(1.3385e-08 3.25119e-08 0)
(1.81516e-08 -7.91977e-09 0)
(1.16563e-08 7.25729e-09 0)
(-1.00166e-08 -3.91232e-08 0)
(-2.74219e-09 -5.67406e-08 0)
(1.24646e-08 -4.77795e-08 0)
(1.18754e-08 -2.75472e-08 0)
(7.09767e-09 7.05095e-09 0)
(-7.43806e-10 5.14519e-08 0)
(-2.62117e-08 6.11676e-08 0)
(-6.04178e-08 3.97954e-08 0)
(-4.2243e-08 3.71798e-11 0)
(-1.03771e-08 7.42154e-08 0)
(-7.64759e-08 8.05186e-08 0)
(-1.08129e-08 1.19402e-07 0)
(-8.08872e-09 7.21145e-08 0)
(-1.58802e-08 -5.83181e-09 0)
(-7.2084e-10 -3.17727e-08 0)
(1.92947e-08 1.83492e-08 0)
(1.69202e-08 7.8643e-08 0)
(5.13861e-09 3.55923e-08 0)
(1.673e-08 -1.42199e-08 0)
(7.49109e-09 1.10011e-08 0)
(5.61584e-09 -4.23943e-08 0)
(1.55768e-08 -6.08346e-08 0)
(2.45243e-08 -4.80594e-08 0)
(1.7747e-08 -1.81642e-08 0)
(1.10946e-08 2.5609e-08 0)
(3.51049e-09 6.78875e-08 0)
(-1.51361e-08 7.36621e-08 0)
(-3.7789e-08 3.32184e-08 0)
(-4.32905e-08 1.89173e-08 0)
(-4.69874e-08 2.02311e-08 0)
(-1.62885e-08 1.27856e-07 0)
(-1.7311e-08 1.44637e-07 0)
(-3.11849e-08 6.58565e-08 0)
(-2.72063e-08 -1.43438e-08 0)
(-1.08632e-08 -3.92136e-08 0)
(1.46502e-10 8.36018e-09 0)
(4.77328e-09 7.43398e-08 0)
(1.02006e-08 3.61254e-08 0)
(2.39611e-08 -1.59754e-08 0)
(3.06087e-09 1.27648e-08 0)
(2.32839e-08 -4.19062e-08 0)
(3.58258e-08 -5.76391e-08 0)
(3.90748e-08 -4.28422e-08 0)
(2.85193e-08 -1.0433e-08 0)
(1.61427e-08 4.13686e-08 0)
(6.58603e-09 8.50293e-08 0)
(-5.521e-09 8.3196e-08 0)
(-2.31455e-08 3.49008e-08 0)
(-3.25961e-08 -3.26863e-09 0)
(-2.92326e-08 2.34557e-08 0)
(-3.40508e-08 8.92311e-08 0)
(-4.74182e-08 1.10457e-07 0)
(-3.46083e-08 5.47077e-08 0)
(-2.47253e-08 -1.89364e-08 0)
(-2.67691e-08 -4.60774e-08 0)
(-2.07696e-08 7.71027e-09 0)
(9.81765e-10 7.98287e-08 0)
(2.12036e-08 3.95748e-08 0)
(3.07823e-08 -1.55166e-08 0)
(-1.30174e-09 1.28255e-08 0)
(4.11077e-08 -3.71913e-08 0)
(5.64439e-08 -4.87997e-08 0)
(5.43218e-08 -3.27649e-08 0)
(4.18565e-08 -3.4838e-09 0)
(2.45114e-08 4.39679e-08 0)
(1.1568e-08 9.02682e-08 0)
(-1.80222e-09 8.87472e-08 0)
(-1.30567e-08 4.18048e-08 0)
(-3.57914e-08 -7.88859e-10 0)
(-5.55709e-08 2.41138e-08 0)
(-4.53494e-08 7.55619e-08 0)
(-2.61052e-08 9.38161e-08 0)
(-2.43293e-08 4.15362e-08 0)
(-3.17232e-08 -2.72161e-08 0)
(-3.161e-08 -4.66615e-08 0)
(-2.22511e-08 1.11987e-08 0)
(-1.19374e-09 8.00285e-08 0)
(2.49632e-08 4.18331e-08 0)
(3.26936e-08 -1.2048e-08 0)
(-6.14116e-09 7.42195e-09 0)
(5.79546e-08 -3.41475e-08 0)
(7.61628e-08 -4.18279e-08 0)
(6.90876e-08 -2.52588e-08 0)
(5.30817e-08 3.11045e-10 0)
(3.24749e-08 3.87011e-08 0)
(1.71225e-08 7.74939e-08 0)
(8.88602e-09 8.21232e-08 0)
(-4.92582e-09 4.35112e-08 0)
(-1.77445e-08 6.32892e-09 0)
(-3.0889e-08 1.72984e-08 0)
(-5.76606e-08 6.35592e-08 0)
(-4.86184e-08 7.67261e-08 0)
(-2.73174e-08 3.36321e-08 0)
(-2.07493e-08 -1.67465e-08 0)
(-2.47104e-08 -3.12153e-08 0)
(-2.48965e-08 1.08016e-08 0)
(-1.95947e-09 6.43341e-08 0)
(2.90203e-08 3.63308e-08 0)
(3.04222e-08 -8.01661e-09 0)
(-1.04279e-08 6.92239e-09 0)
(7.39233e-08 -1.74035e-08 0)
(9.45269e-08 -2.28878e-08 0)
(8.38392e-08 -1.23442e-08 0)
(6.44339e-08 4.70227e-09 0)
(3.98756e-08 2.72198e-08 0)
(2.3337e-08 5.00748e-08 0)
(1.2828e-08 5.50475e-08 0)
(-1.33688e-09 3.15438e-08 0)
(-2.9354e-08 9.61505e-09 0)
(-5.92229e-08 8.58269e-09 0)
(-4.65748e-08 3.54792e-08 0)
(-1.96842e-08 5.19004e-08 0)
(-7.88393e-09 3.04756e-08 0)
(-1.62001e-08 -2.40135e-09 0)
(-3.09219e-08 -1.64395e-08 0)
(-3.34235e-08 8.63536e-09 0)
(-4.00209e-09 4.4052e-08 0)
(3.18381e-08 2.49551e-08 0)
(2.81807e-08 -4.91421e-09 0)
(-1.43918e-08 5.74788e-09 0)
(7.90197e-08 -9.92009e-11 0)
(1.00577e-07 -2.66533e-09 0)
(8.93236e-08 -3.18141e-10 0)
(6.83271e-08 4.33544e-09 0)
(4.1175e-08 9.7788e-09 0)
(2.41471e-08 1.58074e-08 0)
(1.62718e-08 1.79555e-08 0)
(3.61157e-09 1.28687e-08 0)
(-1.96626e-08 5.98975e-09 0)
(-4.6143e-08 1.58236e-08 0)
(-5.20624e-08 2.6962e-08 0)
(-3.09949e-08 2.3181e-08 0)
(-9.65733e-09 1.07372e-08 0)
(-1.33489e-08 -1.12536e-09 0)
(-2.90104e-08 -5.53256e-09 0)
(-3.39368e-08 3.63449e-09 0)
(-7.03968e-09 1.65873e-08 0)
(2.91828e-08 9.65139e-09 0)
(2.59808e-08 -1.59098e-09 0)
)
;

boundaryField
{
    sides
    {
        type            calculated;
        value           nonuniform List<vector> 
40
(
(-1.43918e-08 0 0)
(7.90197e-08 0 0)
(1.00577e-07 0 0)
(8.93236e-08 0 0)
(6.83271e-08 0 0)
(4.1175e-08 0 0)
(2.41471e-08 0 0)
(1.62718e-08 0 0)
(3.61157e-09 0 0)
(-1.96626e-08 0 0)
(-4.6143e-08 0 0)
(-5.20624e-08 0 0)
(-3.09949e-08 0 0)
(-9.65733e-09 0 0)
(-1.33489e-08 0 0)
(-2.90104e-08 0 0)
(-3.39368e-08 0 0)
(-7.03968e-09 0 0)
(2.91828e-08 0 0)
(2.59808e-08 0 0)
(-1.16609e-08 0 0)
(7.69818e-08 0 0)
(9.81565e-08 0 0)
(8.64266e-08 0 0)
(6.74705e-08 0 0)
(4.29026e-08 0 0)
(2.72679e-08 0 0)
(2.12163e-08 0 0)
(7.51271e-09 0 0)
(-2.39008e-08 0 0)
(-5.16663e-08 0 0)
(-6.06597e-08 0 0)
(-3.66881e-08 0 0)
(-1.51134e-08 0 0)
(-2.1418e-08 0 0)
(-3.71208e-08 0 0)
(-3.84177e-08 0 0)
(-2.52443e-09 0 0)
(4.61882e-08 0 0)
(3.68176e-08 0 0)
)
;
    }
    inlet
    {
        type            calculated;
        value           uniform (0 0 0);
    }
    outlet
    {
        type            calculated;
        value           nonuniform List<vector> 
20
(
(3.68176e-08 -6.24929e-10 0)
(2.7805e-08 7.76e-09 0)
(5.06675e-08 9.0106e-09 0)
(2.64531e-08 1.92578e-08 0)
(4.18813e-08 2.37625e-08 0)
(2.46729e-08 1.94612e-08 0)
(2.19962e-08 2.26349e-08 0)
(1.88976e-08 1.35292e-08 0)
(1.73626e-08 1.15109e-08 0)
(2.29695e-08 7.76516e-09 0)
(2.64744e-08 1.5754e-10 0)
(2.05583e-08 -1.55986e-09 0)
(1.81516e-08 -7.91977e-09 0)
(1.673e-08 -1.42199e-08 0)
(2.39611e-08 -1.59754e-08 0)
(3.07823e-08 -1.55166e-08 0)
(3.26936e-08 -1.2048e-08 0)
(3.04222e-08 -8.01661e-09 0)
(2.81807e-08 -4.91421e-09 0)
(2.59808e-08 -1.59098e-09 0)
)
;
    }
    frontAndBack
    {
        type            empty;
    }
}


// ************************************************************************* //
