/*--------------------------------*- C++ -*----------------------------------*\
  =========                 |
  \\      /  F ield         | OpenFOAM: The Open Source CFD Toolbox
   \\    /   O peration     | Website:  https://openfoam.org
    \\  /    A nd           | Version:  9
     \\/     M anipulation  |
\*---------------------------------------------------------------------------*/
FoamFile
{
    format      ascii;
    class       volScalarField;
    location    "36";
    object      h;
}
// * * * * * * * * * * * * * * * * * * * * * * * * * * * * * * * * * * * * * //

dimensions      [0 1 0 0 0 0 0];

internalField   nonuniform List<scalar> 
400
(
0.0100005
0.0100004
0.0100002
0.00999996
0.0099997
0.00999944
0.00999919
0.00999896
0.00999877
0.00999864
0.0099986
0.00999865
0.0099988
0.00999905
0.00999935
0.00999965
0.00999989
0.01
0.0100001
0.01
0.0100004
0.0100003
0.0100001
0.00999989
0.00999963
0.00999935
0.00999908
0.00999882
0.0099986
0.00999844
0.00999837
0.00999843
0.00999862
0.0099989
0.00999924
0.00999956
0.0099998
0.00999993
0.00999998
0.00999999
0.0100004
0.0100003
0.0100001
0.00999991
0.00999965
0.00999937
0.00999906
0.00999876
0.00999848
0.00999827
0.00999816
0.00999821
0.00999843
0.00999879
0.00999923
0.00999964
0.00999993
0.0100001
0.0100001
0.01
0.0100005
0.0100004
0.0100002
0.00999998
0.00999971
0.0099994
0.00999904
0.00999865
0.00999825
0.00999791
0.00999772
0.00999778
0.00999812
0.00999867
0.00999928
0.00999974
0.00999997
0.01
0.00999998
0.00999997
0.0100005
0.0100004
0.0100003
0.0100001
0.00999984
0.00999949
0.00999906
0.00999854
0.00999797
0.00999742
0.00999706
0.0099971
0.00999762
0.00999855
0.00999952
0.0100002
0.0100004
0.0100003
0.0100001
0.01
0.0100006
0.0100006
0.0100005
0.0100003
0.0100001
0.0099997
0.00999916
0.00999844
0.00999758
0.00999679
0.00999621
0.00999622
0.00999702
0.0099984
0.00999974
0.0100005
0.0100005
0.0100002
0.00999995
0.00999992
0.0100007
0.0100007
0.0100007
0.0100006
0.0100004
0.0100001
0.00999952
0.00999852
0.00999703
0.00999528
0.00999412
0.00999449
0.00999669
0.0099995
0.0100013
0.0100016
0.0100008
0.0100001
0.00999975
0.00999987
0.0100009
0.0100009
0.010001
0.010001
0.010001
0.0100007
0.0100002
0.00999916
0.00999729
0.0099942
0.00999047
0.00999022
0.0099945
0.0100002
0.0100034
0.0100031
0.0100013
0.00999988
0.00999951
0.00999983
0.0100009
0.010001
0.0100012
0.0100015
0.0100017
0.0100018
0.0100013
0.00999939
0.00999544
0.00998973
0.00998678
0.00998977
0.0099981
0.0100037
0.0100045
0.0100025
0.0100003
0.00999938
0.00999946
0.00999988
0.0100009
0.0100011
0.0100013
0.0100018
0.0100026
0.0100039
0.0100058
0.0100077
0.0100048
0.00897845
0.0089524
0.0099759
0.0100089
0.0100179
0.0100105
0.0100024
0.00999891
0.00999894
0.0099998
0.0100002
0.0100009
0.010001
0.0100013
0.0100018
0.0100025
0.0100039
0.0100057
0.0100077
0.0100048
0.0089784
0.00895239
0.00997584
0.0100088
0.0100178
0.0100105
0.0100024
0.00999891
0.00999893
0.00999977
0.0100001
0.0100007
0.0100008
0.010001
0.0100013
0.0100015
0.0100016
0.0100011
0.00999922
0.00999526
0.00998951
0.00998657
0.00998958
0.00999797
0.0100036
0.0100044
0.0100024
0.0100003
0.00999936
0.00999948
0.00999989
0.0100005
0.0100006
0.0100006
0.0100007
0.0100006
0.0100004
0.00999991
0.00999888
0.00999704
0.009994
0.00999028
0.00999002
0.00999426
0.00999999
0.0100031
0.0100029
0.0100012
0.00999981
0.00999949
0.00999983
0.0100003
0.0100003
0.0100002
0.0100002
0.01
0.00999968
0.0099991
0.0099981
0.00999662
0.00999489
0.00999373
0.00999414
0.00999636
0.00999921
0.0100011
0.0100014
0.0100007
0.00999993
0.00999965
0.00999984
0.01
0.00999998
0.00999989
0.00999974
0.00999951
0.00999915
0.00999861
0.0099979
0.00999707
0.0099963
0.00999577
0.00999579
0.00999663
0.00999805
0.00999941
0.0100002
0.0100003
0.01
0.00999983
0.00999989
0.00999979
0.00999972
0.00999959
0.0099994
0.00999914
0.00999881
0.00999839
0.00999788
0.00999732
0.00999678
0.00999644
0.00999652
0.00999708
0.00999804
0.00999905
0.00999976
0.01
0.01
0.00999993
0.00999994
0.00999959
0.0099995
0.00999934
0.00999914
0.00999888
0.00999857
0.00999823
0.00999785
0.00999748
0.00999717
0.00999703
0.00999712
0.00999749
0.0099981
0.00999877
0.00999932
0.00999966
0.0099998
0.00999986
0.00999993
0.00999942
0.00999931
0.00999915
0.00999893
0.00999867
0.00999839
0.00999811
0.00999782
0.00999755
0.00999734
0.00999726
0.00999736
0.00999765
0.00999808
0.00999858
0.00999905
0.00999942
0.00999965
0.00999981
0.00999992
0.00999929
0.00999917
0.009999
0.00999879
0.00999854
0.00999828
0.00999803
0.0099978
0.00999761
0.00999748
0.00999745
0.00999754
0.00999776
0.00999811
0.00999853
0.00999895
0.00999931
0.00999958
0.00999977
0.00999992
0.00999916
0.00999903
0.00999886
0.00999863
0.00999838
0.00999813
0.00999789
0.00999768
0.00999751
0.00999741
0.0099974
0.00999751
0.00999772
0.00999803
0.0099984
0.00999879
0.00999914
0.00999942
0.00999966
0.00999987
)
;

boundaryField
{
    sides
    {
        type            zeroGradient;
    }
    inlet
    {
        type            zeroGradient;
    }
    outlet
    {
        type            fixedValue;
        value           uniform 0.01;
    }
    frontAndBack
    {
        type            empty;
    }
}


// ************************************************************************* //
