/*--------------------------------*- C++ -*----------------------------------*\
  =========                 |
  \\      /  F ield         | OpenFOAM: The Open Source CFD Toolbox
   \\    /   O peration     | Website:  https://openfoam.org
    \\  /    A nd           | Version:  9
     \\/     M anipulation  |
\*---------------------------------------------------------------------------*/
FoamFile
{
    format      ascii;
    class       volScalarField;
    location    "36";
    object      h_0;
}
// * * * * * * * * * * * * * * * * * * * * * * * * * * * * * * * * * * * * * //

dimensions      [0 1 0 0 0 0 0];

internalField   nonuniform List<scalar> 
400
(
0.0100005
0.0100004
0.0100002
0.01
0.00999974
0.00999946
0.00999919
0.00999894
0.00999874
0.00999861
0.00999857
0.00999862
0.00999878
0.00999903
0.00999933
0.00999963
0.00999987
0.01
0.0100001
0.01
0.0100005
0.0100004
0.0100002
0.00999994
0.00999966
0.00999937
0.00999909
0.00999881
0.00999858
0.00999841
0.00999835
0.00999841
0.0099986
0.00999889
0.00999923
0.00999955
0.00999979
0.00999992
0.00999998
0.00999999
0.0100005
0.0100004
0.0100002
0.00999996
0.00999968
0.00999938
0.00999907
0.00999875
0.00999846
0.00999825
0.00999814
0.00999819
0.00999841
0.00999878
0.00999922
0.00999963
0.00999993
0.0100001
0.0100001
0.01
0.0100005
0.0100004
0.0100002
0.01
0.00999974
0.00999942
0.00999904
0.00999864
0.00999824
0.0099979
0.0099977
0.00999777
0.00999811
0.00999866
0.00999927
0.00999973
0.00999996
0.01
0.00999998
0.00999997
0.0100005
0.0100005
0.0100003
0.0100001
0.00999987
0.00999951
0.00999906
0.00999854
0.00999797
0.00999741
0.00999706
0.00999709
0.00999762
0.00999854
0.00999951
0.0100002
0.0100004
0.0100003
0.0100001
0.01
0.0100006
0.0100006
0.0100005
0.0100003
0.0100001
0.00999972
0.00999917
0.00999845
0.00999759
0.00999678
0.00999622
0.00999622
0.00999701
0.0099984
0.00999974
0.0100005
0.0100005
0.0100002
0.00999995
0.00999992
0.0100007
0.0100007
0.0100007
0.0100006
0.0100004
0.0100001
0.00999953
0.00999853
0.00999702
0.0099953
0.00999408
0.00999451
0.0099967
0.0099995
0.0100013
0.0100016
0.0100008
0.0100001
0.00999976
0.00999988
0.0100008
0.0100009
0.0100009
0.010001
0.010001
0.0100007
0.0100002
0.00999917
0.0099973
0.00999422
0.0099905
0.0099902
0.00999451
0.0100002
0.0100034
0.0100031
0.0100013
0.00999989
0.00999952
0.00999984
0.0100009
0.010001
0.0100012
0.0100015
0.0100017
0.0100018
0.0100013
0.0099994
0.00999543
0.00998972
0.00998674
0.00998981
0.0099981
0.0100037
0.0100045
0.0100025
0.0100003
0.00999938
0.00999946
0.00999988
0.0100009
0.0100011
0.0100013
0.0100018
0.0100026
0.010004
0.0100058
0.0100077
0.0100048
0.00897843
0.00895245
0.00997589
0.0100089
0.0100179
0.0100105
0.0100024
0.00999892
0.00999895
0.00999981
0.0100002
0.0100008
0.010001
0.0100012
0.0100017
0.0100025
0.0100039
0.0100057
0.0100077
0.0100048
0.00897841
0.00895241
0.00997584
0.0100088
0.0100178
0.0100105
0.0100024
0.00999892
0.00999894
0.00999978
0.0100001
0.0100007
0.0100008
0.010001
0.0100013
0.0100015
0.0100016
0.0100011
0.00999922
0.00999526
0.00998953
0.00998657
0.00998961
0.00999798
0.0100037
0.0100044
0.0100024
0.0100003
0.00999937
0.00999948
0.0099999
0.0100005
0.0100006
0.0100006
0.0100007
0.0100006
0.0100004
0.00999992
0.00999889
0.00999704
0.00999399
0.00999029
0.00999
0.00999427
0.01
0.0100031
0.010003
0.0100012
0.00999981
0.00999949
0.00999983
0.0100003
0.0100003
0.0100002
0.0100002
0.01
0.00999969
0.00999911
0.00999811
0.00999661
0.0099949
0.0099937
0.00999415
0.00999636
0.00999921
0.0100011
0.0100014
0.0100007
0.00999993
0.00999966
0.00999984
0.01
0.00999999
0.0099999
0.00999976
0.00999952
0.00999916
0.00999863
0.00999791
0.00999707
0.00999629
0.00999577
0.00999579
0.00999662
0.00999804
0.00999941
0.0100002
0.0100003
0.01
0.00999984
0.00999989
0.00999981
0.00999974
0.00999962
0.00999943
0.00999917
0.00999882
0.0099984
0.00999788
0.00999732
0.00999678
0.00999643
0.00999651
0.00999708
0.00999803
0.00999905
0.00999976
0.01
0.01
0.00999993
0.00999994
0.00999962
0.00999953
0.00999938
0.00999917
0.0099989
0.00999859
0.00999824
0.00999785
0.00999747
0.00999717
0.00999703
0.00999712
0.00999749
0.00999809
0.00999877
0.00999932
0.00999966
0.0099998
0.00999986
0.00999993
0.00999946
0.00999936
0.00999919
0.00999897
0.00999871
0.00999841
0.00999811
0.00999781
0.00999754
0.00999733
0.00999724
0.00999735
0.00999764
0.00999807
0.00999857
0.00999905
0.00999941
0.00999965
0.0099998
0.00999992
0.00999934
0.00999923
0.00999906
0.00999884
0.00999857
0.0099983
0.00999803
0.00999779
0.00999758
0.00999746
0.00999743
0.00999752
0.00999775
0.0099981
0.00999852
0.00999894
0.0099993
0.00999957
0.00999977
0.00999992
0.00999922
0.00999909
0.00999892
0.00999869
0.00999842
0.00999815
0.0099979
0.00999767
0.00999749
0.00999738
0.00999737
0.00999748
0.0099977
0.00999801
0.00999839
0.00999877
0.00999913
0.00999941
0.00999966
0.00999987
)
;

boundaryField
{
    sides
    {
        type            zeroGradient;
    }
    inlet
    {
        type            zeroGradient;
    }
    outlet
    {
        type            fixedValue;
        value           uniform 0.01;
    }
    frontAndBack
    {
        type            empty;
    }
}


// ************************************************************************* //
