/*--------------------------------*- C++ -*----------------------------------*\
  =========                 |
  \\      /  F ield         | OpenFOAM: The Open Source CFD Toolbox
   \\    /   O peration     | Website:  https://openfoam.org
    \\  /    A nd           | Version:  9
     \\/     M anipulation  |
\*---------------------------------------------------------------------------*/
FoamFile
{
    format      ascii;
    class       volVectorField;
    location    "36";
    object      hU_0;
}
// * * * * * * * * * * * * * * * * * * * * * * * * * * * * * * * * * * * * * //

dimensions      [0 2 -1 0 0 0 0];

internalField   nonuniform List<vector> 
400
(
(0.00100001 -1.63646e-08 0)
(0.00100006 -5.7806e-08 0)
(0.00100014 -1.02498e-07 0)
(0.00100028 -1.45719e-07 0)
(0.00100045 -1.84925e-07 0)
(0.00100065 -2.16636e-07 0)
(0.00100086 -2.35022e-07 0)
(0.00100106 -2.39808e-07 0)
(0.00100124 -2.3076e-07 0)
(0.00100137 -2.12926e-07 0)
(0.00100144 -1.79477e-07 0)
(0.00100144 -1.37399e-07 0)
(0.00100134 -1.02612e-07 0)
(0.00100114 -9.2347e-08 0)
(0.00100089 -1.00128e-07 0)
(0.00100066 -1.41266e-07 0)
(0.00100046 -1.64099e-07 0)
(0.00100038 -2.05454e-07 0)
(0.00100028 -1.90637e-07 0)
(0.00100034 -2.67537e-07 0)
(0.00100001 -8.47099e-09 0)
(0.00100007 -4.73894e-08 0)
(0.00100015 -1.00507e-07 0)
(0.00100029 -1.55805e-07 0)
(0.00100047 -2.06108e-07 0)
(0.00100069 -2.40264e-07 0)
(0.00100092 -2.43319e-07 0)
(0.00100115 -2.09258e-07 0)
(0.00100135 -1.43257e-07 0)
(0.00100151 -5.10622e-08 0)
(0.0010016 7.21714e-08 0)
(0.00100159 2.24152e-07 0)
(0.00100145 3.81812e-07 0)
(0.00100122 4.8099e-07 0)
(0.00100095 5.04878e-07 0)
(0.00100069 4.37176e-07 0)
(0.00100051 3.55336e-07 0)
(0.00100039 2.51263e-07 0)
(0.00100035 2.25533e-07 0)
(0.0010003 9.10918e-08 0)
(0.00100001 -2.77905e-08 0)
(0.00100006 -1.14673e-07 0)
(0.00100015 -2.26652e-07 0)
(0.00100029 -3.46859e-07 0)
(0.00100048 -4.63156e-07 0)
(0.00100071 -5.56335e-07 0)
(0.00100097 -6.00573e-07 0)
(0.00100123 -5.81184e-07 0)
(0.00100149 -5.00665e-07 0)
(0.00100169 -3.5547e-07 0)
(0.0010018 -1.38987e-07 0)
(0.0010018 1.27781e-07 0)
(0.00100164 3.91048e-07 0)
(0.00100134 5.28119e-07 0)
(0.00100097 5.00473e-07 0)
(0.00100064 3.32852e-07 0)
(0.0010004 1.69673e-07 0)
(0.00100031 3.37644e-08 0)
(0.00100025 1.78221e-08 0)
(0.00100031 -1.03694e-07 0)
(0.00100001 -4.26287e-08 0)
(0.00100006 -1.67262e-07 0)
(0.00100015 -3.24871e-07 0)
(0.00100029 -4.97182e-07 0)
(0.0010005 -6.68294e-07 0)
(0.00100075 -8.11074e-07 0)
(0.00100106 -8.83561e-07 0)
(0.00100141 -8.62953e-07 0)
(0.00100176 -7.3016e-07 0)
(0.00100208 -4.78696e-07 0)
(0.00100226 -6.49516e-08 0)
(0.00100223 4.50659e-07 0)
(0.00100197 9.23936e-07 0)
(0.0010015 1.1501e-06 0)
(0.001001 1.05661e-06 0)
(0.00100061 7.16514e-07 0)
(0.00100044 3.81514e-07 0)
(0.00100038 1.55703e-07 0)
(0.00100043 1.30753e-07 0)
(0.00100037 1.86536e-08 0)
(0.001 -5.76416e-08 0)
(0.00100005 -2.18292e-07 0)
(0.00100014 -4.22264e-07 0)
(0.00100028 -6.57265e-07 0)
(0.00100049 -9.0704e-07 0)
(0.00100078 -1.1395e-06 0)
(0.00100115 -1.29123e-06 0)
(0.00100161 -1.30985e-06 0)
(0.00100212 -1.1466e-06 0)
(0.00100261 -7.79066e-07 0)
(0.00100295 -2.09445e-07 0)
(0.00100293 5.3369e-07 0)
(0.00100248 1.21487e-06 0)
(0.00100171 1.52085e-06 0)
(0.0010009 1.37661e-06 0)
(0.00100034 9.36602e-07 0)
(0.00100017 5.3539e-07 0)
(0.00100026 3.00557e-07 0)
(0.0010004 3.01743e-07 0)
(0.00100045 1.90905e-07 0)
(0.000999999 -7.09144e-08 0)
(0.00100003 -2.59949e-07 0)
(0.0010001 -5.08107e-07 0)
(0.00100022 -8.08585e-07 0)
(0.00100042 -1.15914e-06 0)
(0.00100073 -1.52448e-06 0)
(0.0010012 -1.85011e-06 0)
(0.00100183 -2.02353e-06 0)
(0.00100259 -1.87735e-06 0)
(0.00100331 -1.19647e-06 0)
(0.00100382 4.87271e-08 0)
(0.00100382 1.49713e-06 0)
(0.00100313 2.42144e-06 0)
(0.00100196 2.31786e-06 0)
(0.00100086 1.43275e-06 0)
(0.00100023 4.65631e-07 0)
(0.00100021 -3.01535e-08 0)
(0.0010004 -1.0248e-07 0)
(0.00100067 8.98186e-08 0)
(0.00100058 7.05542e-08 0)
(0.000999996 -7.40885e-08 0)
(0.001 -2.81838e-07 0)
(0.00100004 -5.54033e-07 0)
(0.0010001 -9.29984e-07 0)
(0.00100024 -1.37987e-06 0)
(0.00100053 -1.94461e-06 0)
(0.00100104 -2.47921e-06 0)
(0.00100193 -3.05584e-06 0)
(0.00100326 -3.20262e-06 0)
(0.00100478 -2.87722e-06 0)
(0.00100578 -6.9289e-07 0)
(0.0010054 2.5171e-06 0)
(0.00100354 4.81341e-06 0)
(0.00100116 4.74642e-06 0)
(0.000999652 3.02982e-06 0)
(0.000999417 1.23742e-06 0)
(0.00100004 3.90726e-07 0)
(0.00100059 3.15608e-07 0)
(0.00100096 5.9953e-07 0)
(0.0010007 5.57056e-07 0)
(0.000999989 -7.04691e-08 0)
(0.000999965 -2.48836e-07 0)
(0.000999924 -5.40001e-07 0)
(0.0009999 -9.3179e-07 0)
(0.000999908 -1.56709e-06 0)
(0.00100013 -2.34163e-06 0)
(0.00100054 -3.38981e-06 0)
(0.00100156 -4.09486e-06 0)
(0.00100313 -4.34268e-06 0)
(0.00100608 -2.54271e-06 0)
(0.00100916 7.20671e-07 0)
(0.00100917 4.23297e-06 0)
(0.00100554 4.70314e-06 0)
(0.00100078 2.7835e-06 0)
(0.0009982 7.32548e-07 0)
(0.000998325 -2.97907e-07 0)
(0.00099984 -3.18194e-07 0)
(0.00100091 -1.78212e-08 0)
(0.00100137 2.41555e-07 0)
(0.0010009 1.2198e-07 0)
(0.000999987 -3.4957e-08 0)
(0.00099991 -1.78832e-07 0)
(0.000999772 -3.63754e-07 0)
(0.000999554 -7.19614e-07 0)
(0.000999315 -1.33184e-06 0)
(0.000999245 -2.47842e-06 0)
(0.000999743 -4.67722e-06 0)
(0.00100143 -8.04684e-06 0)
(0.00100496 -1.32638e-05 0)
(0.00100963 -1.49071e-05 0)
(0.00101194 3.8135e-06 0)
(0.00100899 1.87044e-05 0)
(0.00100225 1.57692e-05 0)
(0.000997608 5.73986e-06 0)
(0.000996937 -3.19363e-07 0)
(0.000998515 -1.2781e-06 0)
(0.00100032 -1.13288e-07 0)
(0.00100103 6.31189e-07 0)
(0.00100111 6.75275e-07 0)
(0.00100059 2.59944e-07 0)
(0.000999794 -1.46457e-08 0)
(0.00100017 -5.87874e-08 0)
(0.00099923 -1.44747e-07 0)
(0.000999925 -2.44244e-07 0)
(0.000997547 -5.89497e-07 0)
(0.000998873 -1.12806e-06 0)
(0.000993377 -2.87628e-06 0)
(0.000997568 -5.58192e-06 0)
(0.000991717 -1.1536e-05 0)
(0.000915885 -1.27053e-05 0)
(0.000951526 2.75515e-07 0)
(0.00101027 1.46265e-05 0)
(0.000990984 1.30683e-05 0)
(0.000984019 5.13118e-06 0)
(0.000989639 1.86776e-07 0)
(0.000996335 -7.8895e-07 0)
(0.000999283 -1.14142e-07 0)
(0.000999447 2.53063e-07 0)
(0.00099869 1.93886e-07 0)
(0.000998555 -1.70965e-07 0)
(0.000999794 7.83458e-09 0)
(0.00100017 3.54425e-08 0)
(0.000999229 1.07457e-07 0)
(0.000999923 1.93573e-07 0)
(0.000997544 5.28698e-07 0)
(0.000998868 1.05628e-06 0)
(0.000993369 2.79256e-06 0)
(0.000997556 5.47903e-06 0)
(0.000991699 1.14019e-05 0)
(0.000915862 1.25518e-05 0)
(0.000951484 -4.70545e-07 0)
(0.00101024 -1.49123e-05 0)
(0.000990981 -1.34185e-05 0)
(0.000984011 -5.55258e-06 0)
(0.00098962 -6.61245e-07 0)
(0.000996299 2.46873e-07 0)
(0.000999243 -4.61695e-07 0)
(0.000999402 -9.94959e-07 0)
(0.000998675 -9.80214e-07 0)
(0.000998506 -8.80868e-07 0)
(0.000999986 2.78878e-08 0)
(0.00099991 1.56059e-07 0)
(0.00099977 3.27325e-07 0)
(0.000999551 6.70504e-07 0)
(0.00099931 1.27201e-06 0)
(0.000999242 2.4059e-06 0)
(0.000999736 4.59143e-06 0)
(0.00100143 7.93745e-06 0)
(0.00100495 1.31252e-05 0)
(0.00100964 1.472e-05 0)
(0.00101194 -4.05439e-06 0)
(0.00100894 -1.8996e-05 0)
(0.00100218 -1.61071e-05 0)
(0.000997518 -6.14439e-06 0)
(0.000996867 -9.61926e-08 0)
(0.000998456 7.82436e-07 0)
(0.00100021 -4.0434e-07 0)
(0.00100088 -1.29197e-06 0)
(0.00100092 -1.37855e-06 0)
(0.00100042 -1.24788e-06 0)
(0.000999989 6.29907e-08 0)
(0.000999964 2.26851e-07 0)
(0.00099992 5.04497e-07 0)
(0.000999892 8.84052e-07 0)
(0.000999897 1.50599e-06 0)
(0.00100011 2.26617e-06 0)
(0.00100052 3.29474e-06 0)
(0.00100153 3.97916e-06 0)
(0.00100308 4.19763e-06 0)
(0.001006 2.36584e-06 0)
(0.00100907 -9.59065e-07 0)
(0.0010091 -4.51958e-06 0)
(0.00100546 -5.02598e-06 0)
(0.00100071 -3.14983e-06 0)
(0.000998107 -1.14212e-06 0)
(0.000998182 -2.3503e-07 0)
(0.000999665 -2.82686e-07 0)
(0.00100068 -7.2123e-07 0)
(0.0010011 -9.73932e-07 0)
(0.0010006 -1.07557e-06 0)
(0.000999995 6.61253e-08 0)
(0.001 2.60172e-07 0)
(0.00100003 5.20214e-07 0)
(0.00100009 8.83904e-07 0)
(0.00100023 1.32337e-06 0)
(0.0010005 1.87616e-06 0)
(0.00100101 2.40005e-06 0)
(0.0010019 2.95974e-06 0)
(0.00100323 3.09253e-06 0)
(0.00100474 2.7352e-06 0)
(0.00100573 5.35265e-07 0)
(0.00100532 -2.72483e-06 0)
(0.00100343 -5.07808e-06 0)
(0.001001 -5.09752e-06 0)
(0.000999451 -3.46531e-06 0)
(0.000999165 -1.77365e-06 0)
(0.000999782 -9.71801e-07 0)
(0.00100029 -1.03639e-06 0)
(0.00100065 -1.31979e-06 0)
(0.00100028 -1.52037e-06 0)
(0.000999999 6.29229e-08 0)
(0.00100003 2.39817e-07 0)
(0.0010001 4.77681e-07 0)
(0.00100021 7.67267e-07 0)
(0.0010004 1.10848e-06 0)
(0.00100071 1.46455e-06 0)
(0.00100116 1.77962e-06 0)
(0.00100179 1.93373e-06 0)
(0.00100253 1.75983e-06 0)
(0.00100323 1.03861e-06 0)
(0.00100371 -2.39553e-07 0)
(0.00100368 -1.74812e-06 0)
(0.00100296 -2.71857e-06 0)
(0.00100175 -2.66356e-06 0)
(0.00100062 -1.79442e-06 0)
(0.000999943 -8.73436e-07 0)
(0.000999894 -3.76913e-07 0)
(0.00100002 -4.23242e-07 0)
(0.00100026 -6.30756e-07 0)
(0.00100005 -8.55065e-07 0)
(0.001 4.99122e-08 0)
(0.00100005 1.99973e-07 0)
(0.00100013 3.95357e-07 0)
(0.00100026 6.22114e-07 0)
(0.00100046 8.63728e-07 0)
(0.00100075 1.0888e-06 0)
(0.00100111 1.23181e-06 0)
(0.00100156 1.23732e-06 0)
(0.00100205 1.0543e-06 0)
(0.00100254 6.62124e-07 0)
(0.00100285 5.30983e-08 0)
(0.00100278 -7.34837e-07 0)
(0.00100232 -1.44878e-06 0)
(0.0010015 -1.79832e-06 0)
(0.00100066 -1.68091e-06 0)
(0.00100004 -1.32496e-06 0)
(0.000999828 -9.77725e-07 0)
(0.000999803 -9.13361e-07 0)
(0.000999921 -9.62529e-07 0)
(0.000999802 -1.11629e-06 0)
(0.00100001 3.55318e-08 0)
(0.00100005 1.5077e-07 0)
(0.00100014 3.0041e-07 0)
(0.00100028 4.65323e-07 0)
(0.00100047 6.30805e-07 0)
(0.00100072 7.68944e-07 0)
(0.00100102 8.39344e-07 0)
(0.00100135 8.13385e-07 0)
(0.00100169 6.75926e-07 0)
(0.00100196 4.13675e-07 0)
(0.00100211 -1.20363e-08 0)
(0.00100206 -5.4217e-07 0)
(0.00100175 -1.03435e-06 0)
(0.00100123 -1.30372e-06 0)
(0.00100067 -1.23919e-06 0)
(0.00100019 -9.6924e-07 0)
(0.000999946 -6.52818e-07 0)
(0.000999777 -5.35354e-07 0)
(0.000999787 -5.034e-07 0)
(0.00099959 -6.05575e-07 0)
(0.00100001 2.16237e-08 0)
(0.00100006 1.01371e-07 0)
(0.00100014 2.03584e-07 0)
(0.00100028 3.10188e-07 0)
(0.00100046 4.11288e-07 0)
(0.00100068 4.85695e-07 0)
(0.00100093 5.08774e-07 0)
(0.00100118 4.62139e-07 0)
(0.00100143 3.49358e-07 0)
(0.00100162 1.642e-07 0)
(0.00100171 -8.41893e-08 0)
(0.00100165 -3.91928e-07 0)
(0.00100144 -6.79542e-07 0)
(0.00100107 -8.5704e-07 0)
(0.00100066 -8.53999e-07 0)
(0.00100024 -7.49603e-07 0)
(0.000999977 -6.0029e-07 0)
(0.000999726 -5.8017e-07 0)
(0.00099966 -5.73783e-07 0)
(0.000999412 -6.90368e-07 0)
(0.00100001 1.65877e-08 0)
(0.00100006 7.43635e-08 0)
(0.00100013 1.47339e-07 0)
(0.00100026 2.23472e-07 0)
(0.00100043 2.95325e-07 0)
(0.00100063 3.51029e-07 0)
(0.00100084 3.75455e-07 0)
(0.00100104 3.61908e-07 0)
(0.00100122 3.1312e-07 0)
(0.00100135 2.30021e-07 0)
(0.00100141 1.04482e-07 0)
(0.00100137 -4.97432e-08 0)
(0.0010012 -2.00784e-07 0)
(0.0010009 -3.04523e-07 0)
(0.00100056 -3.14828e-07 0)
(0.00100018 -2.68732e-07 0)
(0.000999927 -1.78825e-07 0)
(0.000999652 -1.58969e-07 0)
(0.000999549 -1.27365e-07 0)
(0.000999272 -2.02404e-07 0)
(0.00100001 -9.11637e-09 0)
(0.00100006 -1.90672e-08 0)
(0.00100014 -2.16119e-08 0)
(0.00100027 -2.11012e-08 0)
(0.00100043 -2.00354e-08 0)
(0.00100062 -2.27655e-08 0)
(0.00100083 -3.32042e-08 0)
(0.00100101 -5.42292e-08 0)
(0.00100117 -8.30565e-08 0)
(0.00100128 -1.19959e-07 0)
(0.00100132 -1.60061e-07 0)
(0.00100126 -2.24662e-07 0)
(0.00100111 -2.91253e-07 0)
(0.00100084 -3.44932e-07 0)
(0.00100055 -3.60185e-07 0)
(0.00100019 -3.6257e-07 0)
(0.000999968 -3.33229e-07 0)
(0.000999645 -3.48946e-07 0)
(0.000999552 -3.30968e-07 0)
(0.000999152 -4.11908e-07 0)
)
;

boundaryField
{
    sides
    {
        type            slip;
    }
    inlet
    {
        type            fixedValue;
        value           uniform (0.001 0 0);
    }
    outlet
    {
        type            zeroGradient;
    }
    frontAndBack
    {
        type            empty;
    }
}


// ************************************************************************* //
