/*--------------------------------*- C++ -*----------------------------------*\
  =========                 |
  \\      /  F ield         | OpenFOAM: The Open Source CFD Toolbox
   \\    /   O peration     | Website:  https://openfoam.org
    \\  /    A nd           | Version:  9
     \\/     M anipulation  |
\*---------------------------------------------------------------------------*/
FoamFile
{
    format      ascii;
    class       surfaceScalarField;
    location    "36";
    object      phi_0;
}
// * * * * * * * * * * * * * * * * * * * * * * * * * * * * * * * * * * * * * //

dimensions      [0 4 -1 0 0 0 0];

internalField   nonuniform List<scalar> 
760
(
5.00016e-06
-3.81407e-11
5.00051e-06
-2.03352e-10
5.00108e-06
-4.20907e-10
5.00186e-06
-6.45822e-10
5.00281e-06
-8.52048e-10
5.00388e-06
-1.00413e-09
5.00495e-06
-1.0514e-09
5.00591e-06
-9.78757e-10
5.00665e-06
-7.9773e-10
5.00713e-06
-5.40024e-10
5.00725e-06
-1.94475e-10
5.00687e-06
3.08966e-10
5.00599e-06
8.25137e-10
5.00483e-06
1.11671e-09
5.00361e-06
1.16875e-09
5.00268e-06
8.95196e-10
5.00201e-06
6.29329e-10
5.00177e-06
2.17054e-10
5.00159e-06
1.70947e-10
-3.63161e-10
5.00018e-06
-1.05896e-10
5.00055e-06
-4.43544e-10
5.00114e-06
-8.76315e-10
5.00196e-06
-1.33294e-09
5.00297e-06
-1.7648e-09
5.00412e-06
-2.09757e-09
5.00531e-06
-2.2349e-09
5.00644e-06
-2.12351e-09
5.00737e-06
-1.77962e-09
5.00796e-06
-1.18315e-09
5.00796e-06
-2.53634e-10
5.00747e-06
7.43114e-10
5.00646e-06
1.79183e-09
5.0051e-06
2.43976e-09
5.00378e-06
2.44416e-09
5.00288e-06
1.76989e-09
5.00238e-06
1.10848e-09
5.00205e-06
5.30618e-10
5.00176e-06
4.48106e-10
-7.94364e-11
5.00016e-06
-1.7677e-10
5.00052e-06
-6.98612e-10
5.00111e-06
-1.34722e-09
5.00195e-06
-2.05289e-09
5.00302e-06
-2.74705e-09
5.00429e-06
-3.3215e-09
5.00568e-06
-3.6047e-09
5.00704e-06
-3.49722e-09
5.00819e-06
-2.95602e-09
5.00894e-06
-1.98622e-09
5.00914e-06
-4.90056e-10
5.00847e-06
1.36832e-09
5.00706e-06
3.15938e-09
5.0053e-06
4.17205e-09
5.00362e-06
4.09331e-09
5.00244e-06
2.92945e-09
5.00185e-06
1.68674e-09
5.00166e-06
7.01753e-10
5.00154e-06
5.51936e-10
-1.49886e-10
5.00014e-06
-2.55855e-10
5.00049e-06
-9.69065e-10
5.00109e-06
-1.84505e-09
5.00196e-06
-2.82906e-09
5.00313e-06
-3.8456e-09
5.00461e-06
-4.75392e-09
5.00635e-06
-5.32066e-09
5.00825e-06
-5.407e-09
5.0101e-06
-4.81735e-09
5.0113e-06
-3.21442e-09
5.01141e-06
-6.41125e-10
5.01021e-06
2.54988e-09
5.00785e-06
5.48963e-09
5.00531e-06
6.68602e-09
5.00362e-06
5.7691e-09
5.00284e-06
3.6952e-09
5.00261e-06
1.90066e-09
5.00244e-06
8.63939e-10
5.00214e-06
8.53969e-10
4.30902e-10
5.00011e-06
-3.33632e-10
5.00041e-06
-1.2193e-09
5.00096e-06
-2.32824e-09
5.00183e-06
-3.62448e-09
5.0031e-06
-5.0632e-09
5.00486e-06
-6.46271e-09
5.0071e-06
-7.53697e-09
5.00971e-06
-8.00823e-09
5.01264e-06
-7.76918e-09
5.015e-06
-5.57459e-09
5.01506e-06
-7.1262e-10
5.01306e-06
4.52803e-09
5.00887e-06
9.68007e-09
5.00477e-06
1.07735e-08
5.0024e-06
8.12736e-09
5.00191e-06
4.17674e-09
5.00223e-06
1.569e-09
5.00244e-06
6.53223e-10
5.00215e-06
1.14421e-09
7.43231e-10
5.00006e-06
-3.87122e-10
5.00026e-06
-1.3962e-09
5.00065e-06
-2.687e-09
5.00138e-06
-4.30836e-09
5.00262e-06
-6.26478e-09
5.00477e-06
-8.5705e-09
5.00787e-06
-1.06027e-08
5.01194e-06
-1.20742e-08
5.0158e-06
-1.16087e-08
5.01926e-06
-9.06898e-09
5.02043e-06
-1.84682e-09
5.01621e-06
8.72261e-09
5.0097e-06
1.61786e-08
5.00442e-06
1.60574e-08
5.00238e-06
1.01702e-08
5.00268e-06
3.87291e-09
5.00343e-06
8.23182e-10
5.00355e-06
5.35095e-10
5.00298e-06
1.73007e-09
1.53594e-09
4.99999e-06
-3.93003e-10
4.99999e-06
-1.40143e-09
5.00013e-06
-2.82298e-09
5.00051e-06
-4.66586e-09
5.00141e-06
-7.13308e-09
5.00314e-06
-1.02663e-08
5.00704e-06
-1.44862e-08
5.01419e-06
-1.91912e-08
5.02402e-06
-2.14489e-08
5.03119e-06
-1.62158e-08
5.02895e-06
3.01491e-10
5.01696e-06
2.07823e-08
5.00438e-06
2.87414e-08
4.99893e-06
2.1492e-08
5.00079e-06
8.31209e-09
5.00304e-06
1.62847e-09
5.00389e-06
-1.62111e-11
5.00383e-06
6.06189e-10
5.00324e-06
2.34004e-09
1.78723e-09
4.99987e-06
-2.9586e-10
4.9996e-06
-1.155e-09
4.99921e-06
-2.45936e-09
4.99899e-06
-4.43871e-09
4.99949e-06
-7.62049e-09
5.00054e-06
-1.12868e-08
5.00385e-06
-1.77673e-08
5.01007e-06
-2.53974e-08
5.02516e-06
-3.65443e-08
5.05652e-06
-4.74448e-08
5.05019e-06
5.67478e-09
5.02334e-06
4.76195e-08
4.99837e-06
5.37382e-08
4.99373e-06
2.61423e-08
4.99971e-06
2.32688e-09
5.00431e-06
-2.96122e-09
5.00508e-06
-7.79609e-10
5.00389e-06
1.81145e-09
5.00372e-06
2.52211e-09
1.06107e-09
4.99977e-06
-1.0961e-10
4.99919e-06
-6.21065e-10
4.998e-06
-1.30425e-09
4.99623e-06
-2.68114e-09
4.99417e-06
-5.55177e-09
4.99392e-06
-1.10088e-08
4.99965e-06
-2.34841e-08
5.01737e-06
-4.31055e-08
5.05599e-06
-7.51598e-08
5.06699e-06
-5.85894e-08
5.05002e-06
2.3622e-08
4.99672e-06
1.00954e-07
4.9895e-06
6.09318e-08
4.99614e-06
1.95066e-08
5.00045e-06
-1.97611e-09
5.00317e-06
-5.67476e-09
5.00271e-06
-2.8991e-10
5.00201e-06
2.52385e-09
5.00277e-06
1.7752e-09
1.30748e-10
4.99986e-06
-1.63063e-11
4.99924e-06
-5.81428e-11
4.99798e-06
-9.46055e-11
4.99542e-06
-1.31921e-10
4.99003e-06
-1.61486e-10
4.97924e-06
-1.93706e-10
4.956e-06
-2.30502e-10
4.91318e-06
-2.91928e-10
4.8384e-06
-3.77698e-10
4.78025e-06
-4.48057e-10
4.80453e-06
-6.05147e-10
4.90621e-06
-7.72958e-10
4.96798e-06
-8.01397e-10
4.98847e-06
-9.58605e-10
4.98772e-06
-1.21167e-09
4.98351e-06
-1.44829e-09
4.98476e-06
-1.53564e-09
4.9891e-06
-1.80227e-09
4.99272e-06
-1.83254e-09
-2.53579e-09
4.99986e-06
7.62991e-11
4.99924e-06
5.03245e-10
4.99798e-06
1.11947e-09
4.99541e-06
2.42332e-09
4.99002e-06
5.23794e-09
4.97921e-06
1.06271e-08
4.95595e-06
2.30353e-08
4.91312e-06
4.25431e-08
4.83829e-06
7.44468e-08
4.78001e-06
5.78587e-08
4.80447e-06
-2.49813e-08
4.90616e-06
-1.02474e-07
4.96796e-06
-6.25592e-08
4.98831e-06
-2.12798e-08
4.98763e-06
-5.15999e-10
4.98319e-06
3.01443e-09
4.98463e-06
-2.95541e-09
4.98908e-06
-6.23191e-09
4.99259e-06
-5.33418e-09
-4.95676e-09
4.99977e-06
2.58623e-10
4.99918e-06
1.04052e-09
4.99799e-06
2.27401e-09
4.99621e-06
4.18861e-09
4.99416e-06
7.30332e-09
4.9939e-06
1.09067e-08
4.99962e-06
1.73219e-08
5.01731e-06
2.48603e-08
5.0559e-06
3.58725e-08
5.06737e-06
4.63786e-08
5.04969e-06
-8.15945e-09
4.99631e-06
-4.9007e-08
4.98903e-06
-5.52927e-08
4.99593e-06
-2.81515e-08
5.00036e-06
-4.93001e-09
5.00257e-06
8.30756e-10
5.00185e-06
-2.21956e-09
5.00109e-06
-5.45511e-09
5.00192e-06
-6.15906e-09
-5.95096e-09
4.99987e-06
3.52756e-10
4.99959e-06
1.28924e-09
4.99919e-06
2.64617e-09
4.99895e-06
4.4264e-09
4.99943e-06
6.84179e-09
5.00044e-06
9.91669e-09
5.00368e-06
1.41111e-08
5.00985e-06
1.86988e-08
5.02488e-06
2.08303e-08
5.05585e-06
1.54248e-08
5.05001e-06
-1.48435e-09
5.023e-06
-2.20608e-08
4.99807e-06
-3.03341e-08
4.99339e-06
-2.34679e-08
4.99888e-06
-1.04136e-08
5.00366e-06
-3.93968e-09
5.00393e-06
-2.47021e-09
5.00254e-06
-4.05376e-09
5.00239e-06
-5.99356e-09
-6.55184e-09
4.99999e-06
3.45918e-10
4.99997e-06
1.29021e-09
5.00009e-06
2.5247e-09
5.00044e-06
4.09046e-09
5.0013e-06
6.00336e-09
5.00299e-06
8.25873e-09
5.00691e-06
1.02245e-08
5.01405e-06
1.15853e-08
5.02385e-06
1.10198e-08
5.03097e-06
8.29479e-09
5.02864e-06
7.80941e-10
5.01649e-06
-9.86814e-09
5.00371e-06
-1.75721e-08
4.99797e-06
-1.77487e-08
4.99962e-06
-1.20598e-08
5.0018e-06
-6.11728e-09
5.00257e-06
-3.22569e-09
5.00231e-06
-3.77527e-09
5.00141e-06
-5.07997e-09
-6.00722e-09
5.00006e-06
2.94013e-10
5.00024e-06
1.12306e-09
5.0006e-06
2.18411e-09
5.0013e-06
3.42991e-09
5.00251e-06
4.82344e-09
5.00462e-06
6.1842e-09
5.00767e-06
7.21104e-09
5.01167e-06
7.61076e-09
5.01542e-06
7.28476e-09
5.01878e-06
4.90856e-09
5.01981e-06
-2.59424e-10
5.01544e-06
-5.52661e-09
5.00873e-06
-1.08755e-08
5.0033e-06
-1.23209e-08
5.00107e-06
-9.82769e-09
5.00119e-06
-6.23165e-09
5.00172e-06
-3.74933e-09
5.00149e-06
-3.53357e-09
5.00055e-06
-4.12787e-09
-5.01419e-09
5.0001e-06
2.18429e-10
5.00039e-06
8.85244e-10
5.0009e-06
1.72405e-09
5.00173e-06
2.66521e-09
5.00297e-06
3.64236e-09
5.00467e-06
4.51852e-09
5.00684e-06
5.06422e-09
5.00939e-06
5.08635e-09
5.01231e-06
4.368e-09
5.01468e-06
2.53065e-09
5.01435e-06
6.15037e-11
5.01229e-06
-3.48464e-09
5.00795e-06
-6.5518e-09
5.00366e-06
-8.03767e-09
5.00108e-06
-7.24104e-09
5.00029e-06
-5.42955e-09
5.00028e-06
-3.73646e-09
5.00005e-06
-3.30766e-09
4.99935e-06
-3.42086e-09
-4.21015e-09
5.00013e-06
1.4066e-10
5.00047e-06
6.28459e-10
5.00103e-06
1.25332e-09
5.00186e-06
1.92717e-09
5.00298e-06
2.59123e-09
5.00442e-06
3.12944e-09
5.00611e-06
3.3902e-09
5.00794e-06
3.25695e-09
5.0096e-06
2.69143e-09
5.01049e-06
1.62554e-09
5.0107e-06
-1.57012e-10
5.00927e-06
-2.06707e-09
5.00669e-06
-3.98586e-09
5.00381e-06
-5.16621e-09
5.00167e-06
-5.09759e-09
5.00048e-06
-4.24321e-09
4.99987e-06
-3.12708e-09
4.99934e-06
-2.79086e-09
4.99861e-06
-2.69608e-09
-3.24841e-09
5.00014e-06
7.75498e-11
5.00049e-06
3.92499e-10
5.00106e-06
8.04927e-10
5.00186e-06
1.23848e-09
5.00289e-06
1.65117e-09
5.00411e-06
1.96094e-09
5.00545e-06
2.06982e-09
5.00677e-06
1.9163e-09
5.00791e-06
1.51548e-09
5.00864e-06
8.60663e-10
5.00841e-06
2.172e-11
5.00755e-06
-1.24169e-09
5.0059e-06
-2.36471e-09
5.00384e-06
-3.12176e-09
5.00191e-06
-3.18073e-09
5.00045e-06
-2.80386e-09
4.99947e-06
-2.16371e-09
4.99869e-06
-2.02627e-09
4.99787e-06
-1.88584e-09
-2.3027e-09
5.00014e-06
4.40927e-11
5.00046e-06
1.97194e-10
5.001e-06
4.00031e-10
5.00176e-06
6.12625e-10
5.00269e-06
8.11428e-10
5.00376e-06
9.55627e-10
5.00485e-06
9.9679e-10
5.00584e-06
9.11358e-10
5.0066e-06
7.12108e-10
5.00701e-06
3.87131e-10
5.00706e-06
-8.23566e-11
5.00632e-06
-5.56887e-10
5.00499e-06
-1.07225e-09
5.00328e-06
-1.44817e-09
5.00156e-06
-1.50491e-09
5.00012e-06
-1.39214e-09
4.99904e-06
-1.10693e-09
4.9981e-06
-1.09846e-09
4.9972e-06
-1.00144e-09
-1.43763e-09
5.00017e-06
5.00051e-06
5.00105e-06
5.0018e-06
5.00271e-06
5.00373e-06
5.00474e-06
5.00564e-06
5.0063e-06
5.00662e-06
5.00647e-06
5.00585e-06
5.00473e-06
5.00323e-06
5.00168e-06
5.00025e-06
4.99912e-06
4.99801e-06
4.997e-06
)
;

boundaryField
{
    sides
    {
        type            calculated;
        value           uniform 0;
    }
    inlet
    {
        type            calculated;
        value           nonuniform List<scalar> 
20
(
-5e-06
-5e-06
-5e-06
-5e-06
-5e-06
-5e-06
-5e-06
-5e-06
-5e-06
-5e-06
-5e-06
-5e-06
-5e-06
-5e-06
-5e-06
-5e-06
-5e-06
-5e-06
-5e-06
-5e-06
)
;
    }
    outlet
    {
        type            calculated;
        value           nonuniform List<scalar> 
20
(
5.00195e-06
5.00147e-06
5.00161e-06
5.00156e-06
5.00184e-06
5.00219e-06
5.00299e-06
5.00445e-06
5.0037e-06
4.99539e-06
4.99501e-06
5.00292e-06
5.003e-06
5.00087e-06
4.99956e-06
4.99855e-06
4.99765e-06
4.99692e-06
4.99633e-06
4.99556e-06
)
;
    }
    frontAndBack
    {
        type            empty;
        value           nonuniform List<scalar> 0();
    }
}


// ************************************************************************* //
