/*--------------------------------*- C++ -*----------------------------------*\
  =========                 |
  \\      /  F ield         | OpenFOAM: The Open Source CFD Toolbox
   \\    /   O peration     | Website:  https://openfoam.org
    \\  /    A nd           | Version:  9
     \\/     M anipulation  |
\*---------------------------------------------------------------------------*/
FoamFile
{
    format      ascii;
    class       volVectorField;
    location    "59";
    object      ddt0(hU);
}
// * * * * * * * * * * * * * * * * * * * * * * * * * * * * * * * * * * * * * //

dimensions      [0 2 -2 0 0 0 0];

internalField   nonuniform List<vector> 
400
(
(-4.52208e-09 -2.24771e-09 0)
(3.13964e-10 -2.71505e-09 0)
(6.61377e-09 -4.26105e-10 0)
(4.75524e-09 5.69372e-10 0)
(-4.14023e-10 -5.07208e-10 0)
(-1.09728e-09 -1.45812e-10 0)
(2.50638e-09 5.92977e-10 0)
(7.29565e-09 1.91739e-09 0)
(9.00163e-09 7.5019e-10 0)
(5.19955e-09 1.75663e-09 0)
(2.2771e-09 -9.76455e-10 0)
(-2.32725e-09 -2.77038e-09 0)
(-1.88649e-09 -2.46872e-09 0)
(6.69862e-10 -2.98465e-09 0)
(2.37086e-10 -1.64358e-09 0)
(-1.71592e-09 -5.99287e-10 0)
(-4.74316e-09 1.09997e-10 0)
(-4.44585e-09 8.20657e-10 0)
(1.96056e-09 1.92469e-09 0)
(4.7936e-09 1.07715e-09 0)
(-3.29902e-09 -4.8676e-09 0)
(7.28754e-10 -6.0237e-09 0)
(6.5147e-09 -1.88381e-09 0)
(4.53602e-09 -7.19386e-10 0)
(1.46738e-09 -1.36104e-09 0)
(1.25535e-09 5.87375e-10 0)
(4.62077e-09 1.90347e-09 0)
(5.64579e-09 2.01197e-09 0)
(7.64477e-09 9.48086e-10 0)
(5.48904e-09 -5.26747e-10 0)
(1.06393e-10 -2.4155e-09 0)
(1.28319e-09 -9.79258e-09 0)
(-2.14389e-09 -7.4252e-09 0)
(1.51942e-09 -6.94491e-09 0)
(3.50861e-09 -5.82435e-09 0)
(2.37186e-09 -2.15575e-09 0)
(1.16952e-09 1.07266e-10 0)
(-3.84399e-10 -1.01015e-09 0)
(-5.5973e-10 1.84901e-09 0)
(-6.4489e-10 3.26933e-09 0)
(-1.67225e-09 -5.12688e-09 0)
(7.6929e-10 -7.56743e-09 0)
(4.55603e-09 -4.88403e-09 0)
(4.35751e-09 -2.89537e-09 0)
(4.56652e-09 5.59155e-10 0)
(6.26287e-09 1.45686e-09 0)
(4.76466e-09 -3.71483e-10 0)
(5.48147e-09 -4.96505e-09 0)
(1.56742e-09 8.15455e-10 0)
(6.42469e-09 -4.65485e-09 0)
(-1.42027e-09 -4.12742e-09 0)
(7.68921e-10 -9.21877e-09 0)
(4.05759e-09 -1.36977e-08 0)
(-8.26305e-10 -6.33219e-09 0)
(4.39814e-09 -4.80638e-09 0)
(8.7824e-09 -2.91932e-09 0)
(7.52928e-09 -2.11873e-09 0)
(3.91857e-09 -4.74271e-09 0)
(3.32287e-10 -1.45122e-09 0)
(-2.41018e-09 2.92572e-09 0)
(-7.07654e-10 -5.0161e-09 0)
(-2.31308e-12 -9.47364e-09 0)
(2.68871e-09 -8.50489e-09 0)
(4.83896e-09 -2.35554e-09 0)
(7.8527e-09 3.50831e-09 0)
(8.13537e-09 3.63597e-10 0)
(4.23778e-09 -1.00968e-08 0)
(3.56526e-09 -7.13982e-09 0)
(2.46256e-09 -5.57281e-09 0)
(-3.2149e-09 4.3925e-09 0)
(1.10266e-08 -1.01057e-08 0)
(-5.92259e-09 -5.30545e-09 0)
(4.639e-09 -1.06506e-08 0)
(5.03547e-09 -8.26179e-09 0)
(-2.15389e-09 1.69994e-09 0)
(5.73401e-09 3.20165e-09 0)
(1.28941e-08 -2.04176e-09 0)
(1.11543e-08 -8.98277e-09 0)
(3.55891e-09 -4.77837e-09 0)
(-2.90135e-09 2.53479e-09 0)
(-4.48246e-10 -5.37966e-09 0)
(-1.11698e-09 -1.12532e-08 0)
(1.28785e-09 -9.63544e-09 0)
(5.75861e-09 -3.24953e-10 0)
(9.4973e-09 4.47635e-09 0)
(6.05812e-09 -5.71051e-09 0)
(5.77788e-09 -1.50561e-08 0)
(-1.53642e-09 -9.39562e-09 0)
(8.08529e-09 -6.09392e-09 0)
(-4.66885e-09 -4.96287e-10 0)
(-9.28865e-09 5.9197e-09 0)
(1.82727e-08 -1.54513e-08 0)
(-3.87421e-09 -4.71144e-09 0)
(4.52691e-09 -3.30919e-09 0)
(5.07e-09 3.92744e-09 0)
(4.08646e-10 9.36583e-09 0)
(7.28554e-09 2.43419e-09 0)
(1.33863e-08 -1.02389e-08 0)
(1.07066e-08 -8.78515e-09 0)
(1.38415e-09 6.15521e-10 0)
(-1.52045e-10 -5.8961e-09 0)
(-1.46719e-09 -1.19263e-08 0)
(9.4161e-10 -7.75528e-09 0)
(6.33182e-09 2.30079e-09 0)
(7.3142e-09 2.17796e-09 0)
(5.96082e-09 -1.01703e-08 0)
(1.83061e-09 -1.48138e-08 0)
(7.775e-09 -1.39192e-08 0)
(-8.97654e-09 -1.03856e-09 0)
(2.25084e-08 -1.67598e-08 0)
(-1.66153e-08 2.58871e-08 0)
(-9.89809e-10 9.52768e-09 0)
(2.58119e-08 -1.64278e-08 0)
(-3.64878e-10 -1.2102e-09 0)
(-2.25685e-09 7.26374e-09 0)
(1.03639e-10 1.09128e-08 0)
(3.44835e-09 5.20269e-09 0)
(9.39598e-09 -7.90501e-09 0)
(1.03503e-08 -1.00423e-08 0)
(5.85013e-09 -1.27983e-09 0)
(4.1046e-10 -5.80743e-09 0)
(-7.08477e-10 -1.0916e-08 0)
(1.40889e-09 -4.59134e-09 0)
(5.01202e-09 3.25737e-09 0)
(5.77214e-09 -8.33083e-10 0)
(3.1367e-09 -1.03139e-08 0)
(5.43574e-09 -1.38979e-08 0)
(2.56242e-09 -1.03669e-08 0)
(2.37238e-09 -1.13972e-08 0)
(-9.97871e-09 2.549e-08 0)
(7.63142e-08 1.63299e-08 0)
(-5.27998e-08 3.1128e-08 0)
(-1.14834e-08 -9.52253e-10 0)
(2.24609e-08 -5.87761e-09 0)
(2.29933e-09 6.97755e-09 0)
(-5.4368e-09 1.15966e-08 0)
(-2.11037e-09 6.05393e-09 0)
(3.9174e-09 -5.66555e-09 0)
(8.21676e-09 -7.30217e-09 0)
(8.35432e-09 8.42188e-11 0)
(8.4342e-10 -4.95197e-09 0)
(9.09728e-10 -8.50705e-09 0)
(1.71962e-09 -1.84944e-09 0)
(3.61974e-09 2.20277e-09 0)
(3.26965e-09 -3.28036e-09 0)
(4.48808e-09 -7.91033e-09 0)
(5.34621e-09 -9.27507e-09 0)
(2.27901e-09 -6.6575e-09 0)
(2.17078e-08 6.16965e-09 0)
(2.95663e-09 1.32142e-09 0)
(-1.88454e-07 -2.89739e-08 0)
(6.47443e-09 -3.15738e-08 0)
(-3.05137e-08 2.47839e-09 0)
(-1.08226e-09 2.15284e-09 0)
(6.65895e-09 2.34069e-09 0)
(-4.59184e-09 7.51102e-09 0)
(-5.96836e-09 6.38432e-09 0)
(-1.10091e-09 -4.47916e-11 0)
(3.58249e-09 -1.83444e-09 0)
(7.02382e-09 1.66724e-09 0)
(9.23901e-10 -3.33207e-09 0)
(2.81875e-09 -5.25744e-09 0)
(1.62063e-09 -4.56539e-10 0)
(1.45282e-09 5.54514e-10 0)
(3.19914e-09 -4.96507e-09 0)
(5.167e-09 -4.69247e-09 0)
(8.94788e-09 -4.26212e-10 0)
(1.18912e-08 -1.58672e-09 0)
(-9.92247e-09 4.46979e-09 0)
(4.79681e-09 -2.01046e-09 0)
(2.06014e-07 -3.62453e-08 0)
(7.08555e-09 -3.7669e-08 0)
(4.54135e-08 1.2193e-09 0)
(1.4253e-08 -4.85997e-09 0)
(6.11454e-10 -6.86807e-09 0)
(-2.02315e-09 -9.65029e-11 0)
(2.45128e-09 6.73942e-09 0)
(-2.88312e-09 4.39011e-09 0)
(-2.47959e-09 3.05702e-09 0)
(-8.76404e-10 2.64531e-09 0)
(8.03063e-10 -7.59378e-10 0)
(4.13156e-09 -1.99581e-09 0)
(1.47897e-09 -4.77966e-10 0)
(-3.09061e-10 -9.65979e-10 0)
(2.9639e-09 -3.77458e-09 0)
(9.54408e-09 -2.16942e-09 0)
(9.53406e-09 4.59549e-09 0)
(6.76496e-09 2.16358e-09 0)
(7.04894e-09 -1.11729e-08 0)
(2.21453e-08 7.30905e-09 0)
(-7.42816e-08 1.42833e-08 0)
(7.67144e-08 2.59074e-08 0)
(2.30726e-08 -8.72769e-09 0)
(-9.09027e-09 -1.54884e-08 0)
(9.33855e-09 -1.08922e-08 0)
(1.29528e-08 -4.11118e-09 0)
(-4.92905e-10 2.91616e-09 0)
(-4.22874e-09 3.41557e-09 0)
(-6.66728e-09 3.29372e-09 0)
(1.30727e-09 2.22666e-09 0)
(1.5548e-10 1.75713e-09 0)
(4.08331e-09 1.01769e-09 0)
(1.28096e-09 -1.46722e-09 0)
(-5.72678e-10 -1.3506e-09 0)
(3.15745e-09 -1.29075e-10 0)
(1.02977e-08 4.54057e-10 0)
(1.08756e-08 1.24654e-09 0)
(2.05002e-09 1.55467e-09 0)
(4.75165e-09 -2.01049e-10 0)
(-1.52538e-08 -3.00254e-09 0)
(9.89258e-08 -1.45174e-07 0)
(-2.45628e-08 1.31661e-08 0)
(-1.69387e-08 -1.11286e-08 0)
(1.23369e-08 -2.78825e-09 0)
(1.46324e-08 -1.36547e-09 0)
(1.71529e-08 -1.22041e-09 0)
(9.58191e-09 -1.97641e-09 0)
(-2.13227e-09 -9.65489e-10 0)
(-7.1923e-09 -1.43216e-10 0)
(-2.22866e-09 6.55827e-10 0)
(-5.58378e-10 2.69292e-09 0)
(2.78328e-09 3.81115e-09 0)
(1.8583e-09 -1.10281e-09 0)
(9.57511e-10 -1.60216e-09 0)
(3.05955e-09 4.49743e-09 0)
(7.39629e-09 3.6847e-09 0)
(8.80958e-09 -8.50519e-10 0)
(2.5663e-09 1.35684e-09 0)
(1.90137e-08 9.73728e-09 0)
(-1.87233e-07 -8.92302e-09 0)
(-1.28851e-07 1.98538e-07 0)
(2.33509e-07 -1.0875e-08 0)
(-3.49644e-09 1.4182e-08 0)
(2.88013e-09 1.42629e-08 0)
(1.23633e-08 7.78852e-09 0)
(1.35759e-08 -2.05396e-09 0)
(3.02544e-09 -8.08136e-09 0)
(-4.20605e-09 -5.90087e-09 0)
(-4.17502e-09 -2.18477e-09 0)
(1.72544e-09 -6.53669e-10 0)
(-7.67245e-10 2.72891e-09 0)
(1.85338e-09 6.72663e-09 0)
(2.63914e-09 1.07064e-09 0)
(4.09663e-09 -2.43272e-09 0)
(3.41279e-09 4.91602e-09 0)
(4.10759e-09 9.72759e-09 0)
(4.01361e-09 2.54693e-09 0)
(1.08312e-08 3.7454e-09 0)
(-1.99885e-08 6.81805e-09 0)
(2.21026e-07 2.56815e-09 0)
(1.22238e-07 1.59792e-07 0)
(-2.42729e-07 1.03103e-08 0)
(2.87074e-08 1.52386e-08 0)
(7.428e-09 1.23911e-08 0)
(-8.04313e-10 4.8393e-09 0)
(-5.28395e-09 -9.4333e-09 0)
(-5.73777e-09 -1.27013e-08 0)
(-2.12187e-09 -3.61092e-09 0)
(2.78661e-09 1.98427e-09 0)
(7.36897e-09 5.2809e-10 0)
(-4.18694e-10 3.61862e-09 0)
(1.372e-09 9.48763e-09 0)
(3.12391e-09 4.0364e-09 0)
(6.43272e-09 -3.89986e-09 0)
(6.29642e-09 8.20384e-10 0)
(1.27718e-09 1.24432e-08 0)
(2.89432e-09 1.31862e-08 0)
(2.22957e-09 5.32018e-09 0)
(1.67103e-08 -5.07592e-10 0)
(-1.07841e-08 1.44821e-08 0)
(-4.35029e-08 -1.95376e-07 0)
(6.20575e-08 1.00342e-08 0)
(8.44906e-10 5.09091e-09 0)
(-1.82476e-09 6.02649e-10 0)
(-6.7362e-09 -9.68711e-09 0)
(-1.23277e-08 -1.64216e-08 0)
(-4.88004e-09 -1.00335e-08 0)
(4.06613e-09 4.35479e-09 0)
(8.56337e-09 9.29911e-09 0)
(8.74738e-09 2.87275e-09 0)
(-2.84153e-10 5.64455e-09 0)
(9.80511e-10 1.11185e-08 0)
(2.69985e-09 6.4497e-09 0)
(7.30209e-09 -4.30787e-09 0)
(9.11451e-09 -4.71155e-09 0)
(4.12988e-09 9.1773e-09 0)
(-5.60646e-10 2.04876e-08 0)
(2.57267e-09 1.17663e-08 0)
(3.55817e-09 2.0865e-09 0)
(-6.1973e-10 -1.79239e-08 0)
(1.78673e-08 1.8709e-08 0)
(-8.9371e-09 -5.76532e-09 0)
(3.03322e-09 -4.49346e-09 0)
(-3.13491e-09 -7.86308e-09 0)
(-1.3455e-08 -1.73391e-08 0)
(-7.36041e-09 -1.59243e-08 0)
(4.55033e-09 -3.4702e-09 0)
(1.18468e-08 1.14449e-08 0)
(1.11873e-08 1.33483e-08 0)
(5.26423e-09 3.5038e-09 0)
(-8.06933e-10 7.10659e-09 0)
(1.47014e-10 1.12628e-08 0)
(2.02774e-09 7.48992e-09 0)
(6.13909e-09 -2.18366e-09 0)
(1.00498e-08 -7.36288e-09 0)
(7.8413e-09 2.4255e-09 0)
(9.22752e-10 1.69575e-08 0)
(4.80317e-10 1.92375e-08 0)
(-5.76996e-10 3.57292e-09 0)
(6.7331e-09 5.48062e-10 0)
(5.58891e-10 -1.03857e-08 0)
(2.39054e-09 -4.66863e-09 0)
(-5.72273e-10 -1.00849e-09 0)
(-7.85672e-09 -8.69295e-09 0)
(-2.81852e-09 -1.1016e-08 0)
(6.18634e-09 -6.95568e-09 0)
(1.32051e-08 3.86468e-09 0)
(1.46027e-08 1.45491e-08 0)
(8.47506e-09 1.15752e-08 0)
(-2.0393e-10 1.49218e-09 0)
(-1.64407e-09 6.12326e-09 0)
(-3.37902e-10 1.01575e-08 0)
(2.28357e-09 7.84951e-09 0)
(4.20705e-09 1.65838e-09 0)
(7.77516e-09 -4.4687e-09 0)
(8.59705e-09 -3.00142e-09 0)
(4.89767e-09 6.71478e-09 0)
(9.48227e-10 1.29333e-08 0)
(2.48534e-09 9.02076e-09 0)
(1.32553e-09 3.99511e-09 0)
(-2.29711e-12 2.3956e-09 0)
(3.08057e-09 7.1346e-09 0)
(4.90294e-10 4.6486e-09 0)
(3.0509e-09 2.57807e-09 0)
(8.77442e-09 1.05804e-09 0)
(1.43263e-08 1.42307e-09 0)
(1.52508e-08 5.81507e-09 0)
(1.03363e-08 1.05978e-08 0)
(2.36633e-09 5.44577e-09 0)
(-3.50849e-09 -1.3679e-09 0)
(-1.88221e-09 3.07881e-09 0)
(9.7904e-10 8.12498e-09 0)
(4.42639e-09 7.07563e-09 0)
(3.05831e-09 4.41727e-09 0)
(2.61972e-09 6.31302e-10 0)
(4.81034e-09 -2.82314e-09 0)
(5.25967e-09 -2.52124e-09 0)
(4.84036e-09 6.79818e-10 0)
(4.7814e-09 2.28445e-09 0)
(3.49178e-09 1.84607e-09 0)
(2.21143e-09 8.74177e-09 0)
(-2.343e-11 1.20281e-08 0)
(1.42358e-09 1.18816e-08 0)
(6.70477e-09 9.73369e-09 0)
(1.18473e-08 7.33027e-09 0)
(1.29234e-08 3.50592e-09 0)
(7.84525e-09 1.04017e-09 0)
(1.55563e-09 1.97528e-09 0)
(-1.94854e-09 -1.192e-09 0)
(-2.48806e-09 -3.30943e-09 0)
(-9.62448e-10 -1.77675e-10 0)
(3.6675e-09 4.95681e-09 0)
(7.2553e-09 5.24245e-09 0)
(2.9188e-09 4.97995e-09 0)
(-1.96381e-09 3.6381e-09 0)
(-1.03378e-09 -2.24472e-10 0)
(3.05701e-09 -4.9991e-09 0)
(6.63172e-09 -6.01397e-09 0)
(7.37065e-09 -5.07038e-09 0)
(6.63447e-09 -2.77155e-09 0)
(2.57236e-09 1.11109e-09 0)
(-1.66609e-09 5.72331e-09 0)
(8.40427e-10 7.48167e-09 0)
(5.53197e-09 6.4677e-09 0)
(7.05127e-09 4.84809e-09 0)
(3.15304e-09 -1.66539e-10 0)
(-2.96079e-09 -4.46159e-09 0)
(-5.08045e-09 -3.80728e-09 0)
(-1.78914e-09 -4.05221e-09 0)
(1.96529e-09 -3.26947e-09 0)
(4.63921e-10 -8.27488e-10 0)
(6.48851e-09 1.51379e-09 0)
(9.72127e-09 2.13506e-09 0)
(3.0726e-09 2.48478e-09 0)
(-4.83159e-09 2.13226e-09 0)
(-5.47704e-09 3.30721e-10 0)
(8.29802e-10 -2.29597e-09 0)
(7.13663e-09 -3.47429e-09 0)
(9.56297e-09 -3.04453e-09 0)
(6.70009e-09 -2.05497e-09 0)
(1.58895e-09 -1.86338e-09 0)
(-1.40429e-09 7.80729e-10 0)
(-1.00762e-09 1.68962e-09 0)
(2.70738e-09 1.24048e-09 0)
(2.17033e-09 7.29991e-10 0)
(-3.21471e-09 -1.22784e-09 0)
(-7.89915e-09 -2.94455e-09 0)
(-7.02132e-09 -2.47971e-09 0)
(-1.77137e-10 -2.01824e-09 0)
(5.71935e-09 -1.30844e-09 0)
)
;

boundaryField
{
    sides
    {
        type            calculated;
        value           nonuniform List<vector> 
40
(
(4.63921e-10 0 0)
(6.48851e-09 0 0)
(9.72127e-09 0 0)
(3.0726e-09 0 0)
(-4.83159e-09 0 0)
(-5.47704e-09 0 0)
(8.29802e-10 0 0)
(7.13663e-09 0 0)
(9.56297e-09 0 0)
(6.70009e-09 0 0)
(1.58895e-09 0 0)
(-1.40429e-09 0 0)
(-1.00762e-09 0 0)
(2.70738e-09 0 0)
(2.17033e-09 0 0)
(-3.21471e-09 0 0)
(-7.89915e-09 0 0)
(-7.02132e-09 0 0)
(-1.77137e-10 0 0)
(5.71935e-09 0 0)
(-4.52208e-09 0 0)
(3.13964e-10 0 0)
(6.61377e-09 0 0)
(4.75524e-09 0 0)
(-4.14023e-10 0 0)
(-1.09728e-09 0 0)
(2.50638e-09 0 0)
(7.29565e-09 0 0)
(9.00163e-09 0 0)
(5.19955e-09 0 0)
(2.2771e-09 0 0)
(-2.32725e-09 0 0)
(-1.88649e-09 0 0)
(6.69862e-10 0 0)
(2.37086e-10 0 0)
(-1.71592e-09 0 0)
(-4.74316e-09 0 0)
(-4.44585e-09 0 0)
(1.96056e-09 0 0)
(4.7936e-09 0 0)
)
;
    }
    inlet
    {
        type            calculated;
        value           uniform (0 0 0);
    }
    outlet
    {
        type            calculated;
        value           nonuniform List<vector> 
20
(
(4.7936e-09 1.07715e-09 0)
(-6.4489e-10 3.26933e-09 0)
(-2.41018e-09 2.92572e-09 0)
(-2.90135e-09 2.53479e-09 0)
(1.38415e-09 6.15521e-10 0)
(5.85013e-09 -1.27983e-09 0)
(8.35432e-09 8.42188e-11 0)
(7.02382e-09 1.66724e-09 0)
(-8.76404e-10 2.64531e-09 0)
(1.30727e-09 2.22666e-09 0)
(-2.22866e-09 6.55827e-10 0)
(1.72544e-09 -6.53669e-10 0)
(7.36897e-09 5.2809e-10 0)
(8.74738e-09 2.87275e-09 0)
(5.26423e-09 3.5038e-09 0)
(-2.0393e-10 1.49218e-09 0)
(-3.50849e-09 -1.3679e-09 0)
(-2.48806e-09 -3.30943e-09 0)
(1.96529e-09 -3.26947e-09 0)
(5.71935e-09 -1.30844e-09 0)
)
;
    }
    frontAndBack
    {
        type            empty;
    }
}


// ************************************************************************* //
