/*--------------------------------*- C++ -*----------------------------------*\
  =========                 |
  \\      /  F ield         | OpenFOAM: The Open Source CFD Toolbox
   \\    /   O peration     | Website:  https://openfoam.org
    \\  /    A nd           | Version:  9
     \\/     M anipulation  |
\*---------------------------------------------------------------------------*/
FoamFile
{
    format      ascii;
    class       surfaceScalarField;
    location    "59";
    object      ddtCorrDdt0(phi);
}
// * * * * * * * * * * * * * * * * * * * * * * * * * * * * * * * * * * * * * //

dimensions      [0 4 -2 0 0 0 0];

internalField   nonuniform List<scalar> 
760
(
7.02727e-14
-1.75798e-11
1.37927e-11
-1.92414e-11
3.16057e-11
-1.75895e-12
1.37195e-11
-2.06579e-13
-8.99677e-12
-1.3294e-11
8.63429e-13
-9.94906e-14
2.30286e-11
1.03744e-11
4.6547e-11
2.23643e-11
3.59752e-11
-2.8768e-12
2.07435e-11
6.65653e-12
4.19338e-12
-3.80604e-12
-2.32997e-11
-3.66958e-11
-2.5315e-12
-2.55065e-11
6.9382e-12
-3.3906e-11
-5.27821e-12
-2.17655e-11
-1.7318e-11
-9.1764e-12
-1.86018e-11
9.63381e-13
-1.11749e-11
1.57696e-12
1.63381e-11
1.28093e-11
1.5372e-11
6.31811e-13
-2.64873e-11
2.27492e-11
-3.14945e-11
2.87619e-11
-1.13477e-11
7.70735e-12
-1.18436e-11
8.68928e-12
-8.78523e-12
1.52412e-11
7.63028e-12
3.04182e-11
1.42858e-11
2.48361e-11
-1.78759e-12
4.47506e-11
8.91941e-14
4.58873e-12
-2.62217e-11
9.02394e-12
1.52169e-13
-5.79839e-12
-7.00174e-11
-7.53536e-12
-5.10148e-11
1.84364e-11
-4.18219e-11
1.09246e-11
-4.30129e-11
9.60514e-12
-2.22525e-11
7.05021e-12
-8.13566e-12
-1.3437e-12
-1.38959e-11
-6.21952e-12
3.99868e-12
1.99013e-11
5.44824e-12
-2.48765e-11
2.54067e-11
-4.14783e-11
1.13606e-11
-3.54337e-11
1.16436e-11
-1.86042e-11
4.11124e-11
1.40601e-11
3.47864e-11
9.65962e-12
2.01682e-11
-1.57125e-11
1.46348e-11
-5.30588e-11
1.52472e-11
3.98632e-12
2.56728e-11
-2.44871e-11
-2.5534e-11
-3.33204e-11
3.4845e-11
-2.05517e-11
-3.61745e-13
-8.37364e-11
1.74153e-12
-2.3611e-11
3.38947e-11
-4.37355e-12
4.57684e-11
-9.22045e-12
3.45166e-11
-1.90372e-11
1.21584e-11
-4.12907e-11
-9.37734e-12
-1.80396e-11
9.61395e-12
7.51208e-12
-2.48737e-11
1.5155e-11
-5.2277e-11
-1.93921e-12
-5.20879e-11
3.51715e-11
-8.02935e-12
5.81572e-11
2.22038e-11
3.91694e-11
-2.78805e-12
-1.22643e-11
-8.72727e-11
4.99969e-11
-1.94961e-11
-3.92664e-11
-6.07873e-11
3.89541e-11
6.42062e-11
1.23252e-11
-6.79094e-11
-1.92379e-11
-2.59372e-11
5.259e-11
-1.86885e-11
-1.27261e-11
-5.41525e-11
2.26121e-12
2.20222e-11
5.59514e-11
4.61339e-11
6.57393e-11
4.30573e-12
4.03569e-11
-4.79504e-11
1.33224e-12
-3.97383e-11
2.84341e-12
4.57995e-12
-2.89976e-11
-4.10514e-12
-6.07277e-11
2.51881e-12
-4.63179e-11
5.42372e-11
3.63603e-12
6.50382e-11
2.39307e-11
-9.8457e-12
-5.58301e-11
4.19065e-11
-6.06805e-11
-2.02821e-11
-7.67963e-11
6.64494e-11
6.19452e-12
-1.22163e-10
-9.96503e-11
8.89023e-11
2.4097e-10
2.07138e-11
-1.41415e-10
-8.48641e-12
-3.82751e-11
3.79938e-11
2.68716e-11
1.84933e-12
2.02004e-11
1.83879e-11
4.91113e-11
5.81971e-11
2.32012e-11
6.67118e-11
-5.03109e-11
2.85637e-11
-5.54773e-11
-4.94073e-12
-9.35034e-13
-3.08984e-11
-1.26009e-11
-5.89328e-11
1.13222e-11
-3.1956e-11
6.85731e-11
1.85186e-11
2.35981e-11
-3.71892e-12
4.00135e-12
-4.80294e-11
3.31722e-11
-8.36658e-11
9.06403e-12
-5.71937e-11
-1.33423e-11
-2.34827e-11
1.04143e-10
-7.92399e-11
-1.66384e-10
1.14092e-10
1.51603e-10
2.88482e-10
4.83756e-11
-1.21436e-10
-1.89448e-11
-3.78352e-11
-1.65998e-13
5.58796e-11
6.44743e-12
5.98649e-11
2.99763e-11
3.02337e-11
5.19384e-11
-3.2136e-11
4.21226e-11
-4.43783e-11
-3.84133e-12
-2.76241e-12
-2.80472e-11
-1.03841e-11
-4.90574e-11
2.51577e-11
-1.29484e-11
4.80402e-11
1.31354e-11
1.10281e-11
-7.78691e-12
1.68091e-12
-5.78469e-11
3.8349e-11
-5.63678e-11
4.68044e-11
-4.44605e-11
-1.69378e-10
-1.01564e-10
3.69244e-10
4.95849e-10
-6.15343e-12
1.27609e-09
-2.50826e-10
3.92486e-11
1.04801e-10
1.64102e-10
5.9004e-11
-7.9611e-12
-1.69213e-11
7.99796e-12
-2.14249e-11
3.76072e-11
1.4886e-12
3.8832e-11
2.75375e-11
-6.79503e-12
4.4881e-11
-2.25573e-11
4.59618e-12
-7.78432e-14
-2.12998e-11
3.3677e-12
-3.28144e-11
2.373e-11
-2.77722e-12
3.12852e-11
7.97495e-12
-4.17529e-12
-2.8076e-11
2.0571e-11
-2.14319e-11
5.80894e-11
-4.40242e-11
-6.15925e-11
4.23005e-12
2.28768e-10
1.72626e-10
-5.39291e-10
-4.77819e-10
-4.20443e-10
-2.69804e-08
-1.21308e-10
-3.74384e-10
-7.44081e-11
-1.24793e-10
4.27639e-11
1.424e-11
5.40662e-12
4.29536e-12
-3.5404e-11
1.70235e-11
-2.33937e-11
1.54727e-11
4.4361e-12
1.43155e-11
2.96098e-11
8.17914e-12
1.74961e-11
7.61595e-12
-9.44837e-12
1.64779e-11
-1.59126e-11
1.84842e-11
3.6061e-13
4.49146e-13
-5.33663e-12
1.82325e-11
-2.28345e-11
2.75795e-11
-2.21679e-11
4.3214e-11
4.00154e-11
1.22588e-10
-2.31605e-11
-1.81515e-10
-1.23451e-10
6.00241e-10
4.76715e-10
4.95722e-10
8.51407e-10
1.81164e-10
-2.1328e-11
1.54659e-10
1.90439e-10
1.8394e-11
2.84445e-12
8.98337e-13
-6.10768e-11
-4.255e-12
-2.41182e-11
-1.44593e-13
9.63517e-10
-2.06172e-11
2.37764e-11
-4.35311e-12
2.04504e-11
-1.29213e-10
1.49161e-11
4.22427e-12
2.58396e-11
-2.20545e-12
8.53485e-12
-4.89969e-12
-1.73141e-11
-7.57788e-12
2.41748e-11
-1.48896e-11
8.11817e-11
5.10409e-12
3.37311e-11
1.17161e-11
-2.08977e-11
1.03234e-11
2.33054e-10
-1.11554e-11
-3.34871e-10
-2.03002e-10
6.61325e-11
2.17302e-10
3.60253e-10
2.4226e-10
-6.51053e-11
-1.70388e-10
1.43355e-11
-5.01369e-11
6.99192e-11
-3.05115e-11
4.14424e-11
-2.27219e-11
-2.23134e-11
-1.20903e-11
-3.16042e-11
5.6079e-12
-1.6389e-11
6.53234e-12
9.94773e-12
1.28306e-11
1.15382e-11
2.50401e-11
1.09066e-11
8.7383e-12
-1.03362e-11
-2.57635e-11
-3.97752e-12
3.39113e-11
1.23827e-11
9.1443e-11
2.4729e-12
2.54568e-11
1.02376e-11
-1.79529e-12
4.57394e-12
-4.99247e-11
-7.24418e-12
2.39024e-10
2.41595e-10
2.39448e-10
-1.96995e-09
-1.98105e-10
-6.6055e-11
2.46384e-11
8.57546e-11
6.05774e-11
4.74385e-11
9.06819e-11
1.73151e-11
7.49958e-11
5.64809e-13
1.35012e-11
-1.7755e-11
-3.16375e-11
-1.80726e-11
-2.4769e-11
-1.1946e-11
-3.48958e-12
5.54094e-12
1.32043e-11
1.4013e-11
2.39039e-11
2.05859e-11
-2.43727e-12
-7.76514e-12
-8.32107e-12
1.23929e-11
3.38748e-11
7.19471e-11
2.7919e-11
3.56493e-11
-1.01694e-11
-1.38877e-11
2.52358e-11
1.33217e-10
1.44868e-10
-2.22266e-09
-3.0253e-10
1.65649e-09
5.76774e-08
9.49086e-11
-1.77821e-10
-7.74653e-13
6.22297e-11
3.90875e-11
8.18661e-11
8.07913e-11
3.17915e-11
3.94039e-11
-4.70856e-12
-9.72266e-12
-4.86686e-11
-2.70557e-11
-3.1216e-11
-5.67243e-12
-9.19653e-12
-4.01741e-12
2.03666e-12
1.39344e-11
4.13563e-12
4.09137e-11
2.98129e-11
1.14918e-11
2.84571e-11
-1.39562e-11
-1.69489e-12
2.01711e-11
1.79678e-11
6.37174e-11
3.21337e-11
2.92145e-11
6.45196e-11
3.52986e-11
-1.50093e-10
-6.06231e-11
2.48608e-09
4.07413e-10
-1.88269e-09
-2.99669e-09
2.77528e-11
1.70317e-10
7.67494e-11
1.15246e-10
1.55628e-11
2.06907e-11
-1.94165e-11
-3.67844e-12
-3.15586e-11
-5.50872e-11
-2.28272e-11
-5.79259e-11
-1.42752e-13
-4.84444e-12
2.73345e-11
2.69618e-11
8.73647e-12
6.76888e-12
2.27042e-11
-3.24475e-12
5.33161e-11
3.09187e-11
2.86156e-11
5.65988e-11
-2.36575e-11
1.52114e-11
-8.39892e-12
-3.18615e-11
6.26305e-11
3.78526e-11
1.00451e-10
2.48005e-11
9.34005e-12
1.62853e-10
3.77429e-11
-4.14805e-10
-1.72373e-10
2.63927e-10
3.29052e-10
1.02524e-10
3.17152e-11
-1.06934e-11
-2.4807e-11
-7.93552e-12
1.41391e-12
-6.05994e-11
-7.48921e-11
-5.22452e-11
-9.5255e-11
-2.19667e-13
-4.08843e-11
3.65965e-11
4.10188e-11
4.49889e-11
6.21513e-11
1.89723e-11
1.13748e-11
3.44081e-11
-2.63743e-12
5.78168e-11
1.64437e-11
3.6579e-11
6.92328e-11
-1.92024e-11
4.56849e-11
-3.81015e-11
-1.81873e-11
3.32833e-11
-2.34222e-11
1.07615e-10
7.12055e-11
9.37617e-11
-4.08588e-11
-1.52472e-11
8.69091e-11
-2.1254e-11
-3.09913e-13
1.14051e-10
-2.16182e-11
-8.52758e-11
2.58376e-11
-8.19219e-12
-5.55585e-11
-6.69503e-11
-6.27475e-11
-9.41468e-11
-9.43216e-12
-6.79182e-11
4.70125e-11
2.12704e-12
6.65366e-11
7.20053e-11
4.02857e-11
6.87199e-11
1.48972e-11
8.8713e-12
3.7162e-11
1.58965e-12
5.40579e-11
2.81046e-12
3.92635e-11
5.37923e-11
-1.39631e-12
7.13153e-11
-3.66796e-11
1.36579e-11
-7.81098e-12
-2.2243e-11
6.66845e-11
7.03839e-12
9.96946e-11
2.09313e-11
4.847e-11
2.35249e-11
6.02347e-12
-1.56675e-11
-4.14867e-11
3.22326e-11
9.17374e-12
-2.64553e-11
-1.56077e-11
-3.85283e-11
-3.00879e-11
5.13372e-12
-2.81349e-11
5.36809e-11
-1.24215e-11
7.53963e-11
2.987e-11
6.50475e-11
6.77018e-11
1.7789e-11
4.48488e-11
7.22361e-13
2.41161e-12
2.45674e-11
9.60054e-12
4.7018e-11
1.4733e-13
3.9453e-11
2.64998e-11
1.89365e-11
6.31678e-11
-9.13525e-12
4.38079e-11
-2.39848e-11
2.3813e-12
1.22825e-12
-3.78342e-12
3.43375e-11
2.20511e-11
4.73778e-11
-1.33307e-11
2.88823e-11
1.70332e-11
1.73907e-11
1.12485e-11
5.52108e-11
5.65332e-12
5.16058e-11
2.29549e-11
4.69527e-11
5.99257e-11
3.64092e-11
8.28847e-11
2.41778e-11
6.64725e-11
2.40056e-11
3.39288e-11
3.30827e-11
-5.07007e-12
8.9119e-12
-1.28288e-11
4.80267e-12
5.22538e-12
2.25267e-11
3.39291e-11
1.01871e-11
3.40315e-11
4.09614e-12
3.04736e-11
2.51573e-11
1.73947e-11
3.94675e-11
-1.0041e-11
2.34315e-11
-3.50543e-11
1.68001e-11
-2.77713e-11
1.96512e-11
-1.07565e-11
1.55164e-11
9.34751e-12
4.85628e-12
3.42887e-11
-2.02558e-12
5.7634e-11
2.00554e-11
6.44821e-11
4.51078e-11
5.42848e-11
6.66404e-11
4.40605e-11
5.84969e-11
1.56441e-11
2.23543e-11
-9.30825e-12
-2.28671e-12
-7.8693e-12
-1.14789e-11
-1.69716e-11
-1.84286e-11
1.77438e-11
-4.73048e-12
3.60812e-11
1.69822e-11
2.48668e-11
1.93001e-11
-6.16132e-12
2.26025e-11
-1.1197e-11
2.02276e-11
7.90078e-12
1.88745e-12
2.95528e-11
-2.60272e-11
3.30911e-11
-3.61786e-11
3.24305e-11
-3.00456e-11
3.33028e-11
-1.70163e-11
-1.85261e-12
6.40498e-12
-1.23805e-11
2.09051e-11
1.24786e-11
2.51818e-11
4.01314e-11
2.36531e-11
2.97856e-11
2.08177e-11
-1.65052e-12
-1.56304e-12
-2.25485e-11
-2.2224e-11
-1.82364e-11
-2.02655e-11
1.2953e-12
-1.84699e-11
-1.31392e-11
3.29446e-11
4.78609e-11
3.59664e-11
-9.72755e-12
-3.41025e-11
-1.77684e-11
2.5299e-11
4.48991e-11
4.29777e-11
2.43505e-11
3.84193e-12
-2.11157e-11
-1.46362e-13
2.71417e-11
-3.53704e-13
-3.64393e-11
-3.98103e-11
-1.75445e-11
1.53622e-11
)
;

boundaryField
{
    sides
    {
        type            calculated;
        value           uniform 0;
    }
    inlet
    {
        type            calculated;
        value           uniform 0;
    }
    outlet
    {
        type            calculated;
        value           nonuniform List<scalar> 
20
(
3.01309e-11
-4.25621e-12
-1.7971e-11
-2.86168e-11
-3.26934e-12
2.87974e-11
4.90965e-11
4.43118e-11
-1.16749e-13
1.57406e-11
-4.8872e-12
1.77693e-11
4.6384e-11
4.63311e-11
1.88865e-11
-1.38371e-11
-2.9115e-11
-1.82873e-11
1.00207e-11
3.19277e-11
)
;
    }
    frontAndBack
    {
        type            empty;
        value           nonuniform List<scalar> 0();
    }
}


// ************************************************************************* //
