/*--------------------------------*- C++ -*----------------------------------*\
  =========                 |
  \\      /  F ield         | OpenFOAM: The Open Source CFD Toolbox
   \\    /   O peration     | Website:  https://openfoam.org
    \\  /    A nd           | Version:  9
     \\/     M anipulation  |
\*---------------------------------------------------------------------------*/
FoamFile
{
    format      ascii;
    class       volScalarField;
    location    "59";
    object      h;
}
// * * * * * * * * * * * * * * * * * * * * * * * * * * * * * * * * * * * * * //

dimensions      [0 1 0 0 0 0 0];

internalField   nonuniform List<scalar> 
400
(
0.0100004
0.0100004
0.0100003
0.0100001
0.00999994
0.00999973
0.0099995
0.00999926
0.00999904
0.00999887
0.00999878
0.00999878
0.0099989
0.00999912
0.00999938
0.00999966
0.00999987
0.01
0.0100001
0.01
0.0100003
0.0100003
0.0100002
0.0100001
0.00999986
0.00999963
0.00999938
0.00999911
0.00999885
0.00999865
0.00999854
0.00999857
0.00999872
0.00999897
0.00999928
0.00999957
0.00999979
0.00999991
0.00999996
0.00999999
0.0100004
0.0100003
0.0100002
0.0100001
0.00999987
0.00999962
0.00999933
0.00999902
0.00999871
0.00999847
0.00999833
0.00999834
0.00999852
0.00999886
0.00999927
0.00999965
0.00999993
0.0100001
0.0100001
0.01
0.0100004
0.0100004
0.0100003
0.0100001
0.0099999
0.00999962
0.00999927
0.00999888
0.00999846
0.00999809
0.00999788
0.00999789
0.0099982
0.00999873
0.00999931
0.00999975
0.00999996
0.00999999
0.00999996
0.00999996
0.0100005
0.0100005
0.0100004
0.0100002
0.01
0.00999969
0.00999927
0.00999874
0.00999816
0.00999758
0.00999718
0.0099972
0.00999769
0.00999858
0.00999953
0.0100002
0.0100004
0.0100003
0.0100001
0.00999999
0.0100007
0.0100006
0.0100006
0.0100004
0.0100002
0.00999987
0.00999934
0.00999862
0.00999775
0.00999693
0.00999632
0.00999628
0.00999707
0.00999842
0.00999973
0.0100004
0.0100005
0.0100002
0.00999994
0.00999992
0.0100008
0.0100008
0.0100008
0.0100007
0.0100006
0.0100003
0.00999968
0.00999867
0.00999717
0.00999537
0.00999419
0.00999452
0.00999669
0.00999948
0.0100013
0.0100015
0.0100008
0.01
0.00999974
0.00999987
0.0100009
0.010001
0.010001
0.0100011
0.0100011
0.0100009
0.0100004
0.0099993
0.0099974
0.00999429
0.00999057
0.00999024
0.00999448
0.0100002
0.0100033
0.0100031
0.0100013
0.00999985
0.0099995
0.00999983
0.010001
0.0100011
0.0100013
0.0100016
0.0100018
0.010002
0.0100014
0.00999951
0.00999552
0.00998976
0.00998674
0.00998975
0.00999806
0.0100037
0.0100044
0.0100024
0.0100003
0.00999934
0.00999944
0.00999988
0.0100011
0.0100012
0.0100014
0.0100019
0.0100027
0.0100041
0.0100059
0.0100078
0.0100049
0.00897851
0.00895241
0.00997589
0.0100088
0.0100178
0.0100105
0.0100023
0.00999885
0.0099989
0.00999978
0.0100001
0.010001
0.0100011
0.0100014
0.0100018
0.0100026
0.010004
0.0100058
0.0100078
0.0100049
0.00897845
0.00895245
0.00997581
0.0100088
0.0100178
0.0100104
0.0100023
0.00999885
0.00999888
0.00999975
0.0100001
0.0100008
0.0100009
0.0100011
0.0100014
0.0100017
0.0100018
0.0100012
0.00999932
0.00999534
0.00998957
0.00998653
0.0099896
0.00999793
0.0100036
0.0100043
0.0100023
0.0100002
0.00999932
0.00999945
0.00999989
0.0100006
0.0100006
0.0100007
0.0100008
0.0100007
0.0100005
0.01
0.009999
0.00999712
0.00999406
0.00999035
0.00998998
0.00999424
0.00999994
0.0100031
0.0100029
0.0100011
0.00999977
0.00999947
0.00999982
0.0100003
0.0100003
0.0100003
0.0100002
0.0100001
0.0099998
0.00999924
0.00999824
0.00999672
0.00999496
0.00999375
0.00999417
0.00999634
0.00999918
0.0100011
0.0100013
0.0100006
0.0099999
0.00999964
0.00999983
0.01
0.01
0.00999995
0.00999983
0.00999962
0.00999929
0.00999877
0.00999806
0.00999721
0.0099964
0.00999584
0.00999583
0.00999664
0.00999804
0.00999939
0.0100001
0.0100002
0.01
0.00999982
0.00999988
0.00999977
0.00999973
0.00999964
0.0099995
0.00999928
0.00999897
0.00999856
0.00999806
0.00999749
0.00999693
0.00999655
0.0099966
0.00999713
0.00999806
0.00999906
0.00999976
0.01
0.00999999
0.00999991
0.00999993
0.00999953
0.00999948
0.00999939
0.00999925
0.00999904
0.00999876
0.00999843
0.00999805
0.00999767
0.00999734
0.00999717
0.00999722
0.00999756
0.00999814
0.00999879
0.00999933
0.00999964
0.00999978
0.00999984
0.00999992
0.00999933
0.00999928
0.00999919
0.00999905
0.00999886
0.00999862
0.00999834
0.00999804
0.00999776
0.00999753
0.00999741
0.00999748
0.00999773
0.00999813
0.00999861
0.00999905
0.0099994
0.00999963
0.00999978
0.00999991
0.00999917
0.00999913
0.00999904
0.00999891
0.00999874
0.00999853
0.00999829
0.00999805
0.00999783
0.00999767
0.0099976
0.00999765
0.00999785
0.00999816
0.00999855
0.00999895
0.00999929
0.00999956
0.00999976
0.00999992
0.00999904
0.00999899
0.00999889
0.00999876
0.00999859
0.0099984
0.00999818
0.00999796
0.00999776
0.00999761
0.00999756
0.00999763
0.00999781
0.00999809
0.00999843
0.00999878
0.00999912
0.0099994
0.00999965
0.00999987
)
;

boundaryField
{
    sides
    {
        type            zeroGradient;
    }
    inlet
    {
        type            zeroGradient;
    }
    outlet
    {
        type            fixedValue;
        value           uniform 0.01;
    }
    frontAndBack
    {
        type            empty;
    }
}


// ************************************************************************* //
