/*--------------------------------*- C++ -*----------------------------------*\
  =========                 |
  \\      /  F ield         | OpenFOAM: The Open Source CFD Toolbox
   \\    /   O peration     | Website:  https://openfoam.org
    \\  /    A nd           | Version:  9
     \\/     M anipulation  |
\*---------------------------------------------------------------------------*/
FoamFile
{
    format      ascii;
    class       surfaceScalarField;
    location    "59";
    object      phi_0;
}
// * * * * * * * * * * * * * * * * * * * * * * * * * * * * * * * * * * * * * //

dimensions      [0 4 -1 0 0 0 0];

internalField   nonuniform List<scalar> 
760
(
5.0001e-06
-9.2773e-11
5.00041e-06
-3.00967e-10
5.00092e-06
-5.02731e-10
5.00162e-06
-6.96267e-10
5.0025e-06
-8.7268e-10
5.00351e-06
-1.00633e-09
5.00457e-06
-1.05889e-09
5.00557e-06
-1.00634e-09
5.0064e-06
-8.22254e-10
5.00692e-06
-5.16847e-10
5.00704e-06
-1.24778e-10
5.00665e-06
3.94443e-10
5.00579e-06
8.54954e-10
5.00468e-06
1.1107e-09
5.0035e-06
1.18135e-09
5.00255e-06
9.57366e-10
5.00184e-06
7.13587e-10
5.00161e-06
2.43905e-10
5.0015e-06
1.12873e-10
-3.89302e-10
5.00013e-06
-2.13347e-10
5.00046e-06
-6.22873e-10
5.00099e-06
-1.02638e-09
5.00172e-06
-1.42849e-09
5.00266e-06
-1.80476e-09
5.00375e-06
-2.09824e-09
5.00494e-06
-2.24354e-09
5.00611e-06
-2.17745e-09
5.00713e-06
-1.83723e-09
5.00777e-06
-1.16001e-09
5.00774e-06
-9.79973e-11
5.00725e-06
8.76985e-10
5.00626e-06
1.8424e-09
5.00494e-06
2.42375e-09
5.00367e-06
2.45703e-09
5.00276e-06
1.86407e-09
5.00223e-06
1.24195e-09
5.0019e-06
5.79018e-10
5.00164e-06
3.77125e-10
-1.41199e-10
5.00011e-06
-3.2031e-10
5.00044e-06
-9.36537e-10
5.00097e-06
-1.55087e-09
5.00172e-06
-2.18821e-09
5.00273e-06
-2.80419e-09
5.00395e-06
-3.31927e-09
5.00533e-06
-3.61786e-09
5.00673e-06
-3.57815e-09
5.00793e-06
-3.04161e-09
5.00872e-06
-1.95756e-09
5.00893e-06
-3.13953e-10
5.00825e-06
1.55051e-09
5.00687e-06
3.21967e-09
5.00515e-06
4.14123e-09
5.00349e-06
4.10171e-09
5.00229e-06
3.05751e-09
5.00165e-06
1.87998e-09
5.00146e-06
7.66428e-10
5.00143e-06
4.15416e-10
-2.13533e-10
5.0001e-06
-4.18636e-10
5.00041e-06
-1.24176e-09
5.00095e-06
-2.08274e-09
5.00175e-06
-2.98888e-09
5.00286e-06
-3.90906e-09
5.0043e-06
-4.74996e-09
5.00602e-06
-5.34667e-09
5.00795e-06
-5.51447e-09
5.00984e-06
-4.93256e-09
5.01107e-06
-3.19234e-09
5.01119e-06
-4.53411e-10
5.00999e-06
2.75601e-09
5.00765e-06
5.55885e-09
5.00514e-06
6.6446e-09
5.00346e-06
5.77243e-09
5.00269e-06
3.82775e-09
5.00246e-06
2.09764e-09
5.00229e-06
9.32391e-10
5.00198e-06
7.27179e-10
3.50098e-10
5.00008e-06
-4.99924e-10
5.00034e-06
-1.50021e-09
5.00083e-06
-2.57536e-09
5.00164e-06
-3.78837e-09
5.00287e-06
-5.12676e-09
5.00458e-06
-6.46589e-09
5.0068e-06
-7.57271e-09
5.00942e-06
-8.13111e-09
5.01239e-06
-7.90756e-09
5.01478e-06
-5.58566e-09
5.01483e-06
-4.9391e-10
5.01284e-06
4.72183e-09
5.00867e-06
9.74007e-09
5.00459e-06
1.07197e-08
5.00223e-06
8.12641e-09
5.00173e-06
4.32263e-09
5.00204e-06
1.78936e-09
5.00224e-06
7.16898e-10
5.00199e-06
9.71172e-10
6.38926e-10
5.00004e-06
-5.4314e-10
5.0002e-06
-1.65906e-09
5.00054e-06
-2.91723e-09
5.00122e-06
-4.458e-09
5.00242e-06
-6.32302e-09
5.00453e-06
-8.57825e-09
5.0076e-06
-1.06479e-08
5.01167e-06
-1.22077e-08
5.01553e-06
-1.17561e-08
5.019e-06
-9.09326e-09
5.02021e-06
-1.67307e-09
5.01602e-06
8.91014e-09
5.0095e-06
1.62415e-08
5.00421e-06
1.6016e-08
5.00216e-06
1.01703e-08
5.00249e-06
3.9998e-09
5.00326e-06
1.01564e-09
5.00338e-06
5.88578e-10
5.00278e-06
1.56136e-09
1.43164e-09
4.99998e-06
-5.26257e-10
4.99993e-06
-1.62175e-09
5.00003e-06
-3.01294e-09
5.00037e-06
-4.78783e-09
5.00123e-06
-7.18209e-09
5.00292e-06
-1.02773e-08
5.0068e-06
-1.45315e-08
5.01393e-06
-1.93219e-08
5.02374e-06
-2.15989e-08
5.03095e-06
-1.62395e-08
5.0287e-06
4.69262e-10
5.01674e-06
2.0946e-08
5.00418e-06
2.88066e-08
4.99872e-06
2.14652e-08
5.00057e-06
8.32858e-09
5.00284e-06
1.7321e-09
5.00371e-06
1.50156e-10
5.00365e-06
6.42474e-10
5.00303e-06
2.17421e-09
1.6878e-09
4.99986e-06
-3.94122e-10
4.99955e-06
-1.31241e-09
4.99913e-06
-2.59139e-09
4.99886e-06
-4.52143e-09
4.99934e-06
-7.65821e-09
5.00036e-06
-1.13062e-08
5.00365e-06
-1.78195e-08
5.00982e-06
-2.5504e-08
5.02487e-06
-3.66389e-08
5.05614e-06
-4.74442e-08
5.05002e-06
7.07654e-09
5.02316e-06
4.77709e-08
4.99817e-06
5.38278e-08
4.99349e-06
2.61558e-08
4.99945e-06
2.36315e-09
5.00407e-06
-2.87159e-09
5.0049e-06
-6.74329e-10
5.00371e-06
1.82976e-09
5.00349e-06
2.38882e-09
9.7346e-10
4.99976e-06
-1.61642e-10
4.99915e-06
-7.00538e-10
4.99793e-06
-1.36643e-09
4.99612e-06
-2.71803e-09
4.99402e-06
-5.57081e-09
4.99374e-06
-1.10288e-08
4.99945e-06
-2.35296e-08
5.01714e-06
-4.31819e-08
5.05572e-06
-7.52294e-08
5.06681e-06
-5.85916e-08
5.04974e-06
2.36524e-08
4.9965e-06
1.01041e-07
4.98929e-06
6.10015e-08
4.99589e-06
1.95394e-08
5.00018e-06
-1.91941e-09
5.00292e-06
-5.60652e-09
5.00251e-06
-2.72463e-10
5.00183e-06
2.51886e-09
5.00253e-06
1.68459e-09
8.45207e-11
4.99985e-06
-1.6903e-11
4.9992e-06
-5.00631e-11
4.99792e-06
-8.28194e-11
4.99531e-06
-1.22721e-10
4.9899e-06
-1.64226e-10
4.97909e-06
-2.15664e-10
4.95583e-06
-2.64315e-10
4.91296e-06
-3.28257e-10
4.83815e-06
-3.99941e-10
4.77996e-06
-4.81209e-10
4.80432e-06
-5.74194e-10
4.90602e-06
-7.5902e-10
4.96777e-06
-7.60756e-10
4.98821e-06
-9.05064e-10
4.98744e-06
-1.15805e-09
4.98325e-06
-1.41753e-09
4.98454e-06
-1.54763e-09
4.98888e-06
-1.81975e-09
4.99247e-06
-1.88899e-09
-2.58513e-09
4.99985e-06
1.28017e-10
4.9992e-06
5.99278e-10
4.99791e-06
1.20479e-09
4.9953e-06
2.47732e-09
4.98988e-06
5.2544e-09
4.97906e-06
1.06103e-08
4.95578e-06
2.30153e-08
4.9129e-06
4.25396e-08
4.83803e-06
7.44463e-08
4.77976e-06
5.78396e-08
4.80423e-06
-2.52256e-08
4.90599e-06
-1.02468e-07
4.96777e-06
-6.25217e-08
4.98806e-06
-2.12083e-08
4.98735e-06
-4.58833e-10
4.98292e-06
3.00228e-09
4.98441e-06
-3.03879e-09
4.98887e-06
-6.27515e-09
4.99234e-06
-5.35382e-09
-4.98579e-09
4.99976e-06
3.60777e-10
4.99915e-06
1.21545e-09
4.99792e-06
2.42747e-09
4.99611e-06
4.2837e-09
4.99402e-06
7.33544e-09
4.99373e-06
1.09009e-08
4.99943e-06
1.73197e-08
5.01708e-06
2.48842e-08
5.05561e-06
3.59022e-08
5.06711e-06
4.63828e-08
5.04956e-06
-7.39928e-09
4.99609e-06
-4.90945e-08
4.98884e-06
-5.52554e-08
4.99568e-06
-2.80548e-08
5.0001e-06
-4.87824e-09
5.0023e-06
7.89085e-10
5.00164e-06
-2.37606e-09
5.00089e-06
-5.52129e-09
5.00167e-06
-6.13629e-09
-5.95574e-09
4.99986e-06
4.94992e-10
4.99954e-06
1.52888e-09
4.99911e-06
2.85703e-09
4.99884e-06
4.56145e-09
4.99928e-06
6.88813e-09
5.00027e-06
9.90718e-09
5.00347e-06
1.41151e-08
5.0096e-06
1.87603e-08
5.02462e-06
2.09035e-08
5.05554e-06
1.54009e-08
5.04966e-06
-1.74942e-09
5.02282e-06
-2.21494e-08
4.99785e-06
-3.03174e-08
4.99315e-06
-2.33499e-08
4.99863e-06
-1.03593e-08
5.00344e-06
-4.01851e-09
5.00372e-06
-2.65108e-09
5.00234e-06
-4.14179e-09
5.00215e-06
-5.94473e-09
-6.54161e-09
4.99998e-06
5.15882e-10
4.99992e-06
1.57479e-09
5e-06
2.77647e-09
5.00031e-06
4.25742e-09
5.00114e-06
6.06234e-09
5.00279e-06
8.24275e-09
5.00667e-06
1.02285e-08
5.01378e-06
1.16658e-08
5.02358e-06
1.11164e-08
5.0307e-06
8.2623e-09
5.0284e-06
6.45589e-10
5.01623e-06
-1.00342e-08
5.00348e-06
-1.75606e-08
4.99776e-06
-1.76242e-08
4.9994e-06
-1.19971e-08
5.0016e-06
-6.21045e-09
5.00239e-06
-3.43819e-09
5.00212e-06
-3.8679e-09
5.00118e-06
-5.01128e-09
-5.98564e-09
5.00004e-06
4.77248e-10
5.00018e-06
1.42839e-09
5.0005e-06
2.45353e-09
5.00115e-06
3.61222e-09
5.00233e-06
4.89349e-09
5.0044e-06
6.16502e-09
5.00741e-06
7.20149e-09
5.01139e-06
7.68773e-09
5.01514e-06
7.38213e-09
5.01853e-06
4.88801e-09
5.01955e-06
-3.95615e-10
5.01522e-06
-5.6816e-09
5.00853e-06
-1.08638e-08
5.0031e-06
-1.2185e-08
5.00087e-06
-9.75699e-09
5.001e-06
-6.33649e-09
5.00155e-06
-3.98068e-09
5.0013e-06
-3.6323e-09
5.00034e-06
-4.05343e-09
-4.98778e-09
5.00008e-06
3.9879e-10
5.00033e-06
1.18298e-09
5.00079e-06
1.98361e-09
5.00157e-06
2.84154e-09
5.00275e-06
3.71423e-09
5.00442e-06
4.50477e-09
5.00656e-06
5.0488e-09
5.00909e-06
5.14342e-09
5.01203e-06
4.44572e-09
5.0144e-06
2.51055e-09
5.01413e-06
-1.22436e-10
5.01207e-06
-3.61847e-09
5.00774e-06
-6.52803e-09
5.00348e-06
-7.913e-09
5.00092e-06
-7.19239e-09
5.00012e-06
-5.54187e-09
5.00009e-06
-3.96183e-09
4.99986e-06
-3.40907e-09
4.99915e-06
-3.35327e-09
-4.18399e-09
5.0001e-06
3.00099e-10
5.0004e-06
8.87758e-10
5.00091e-06
1.4761e-09
5.00167e-06
2.07679e-09
5.00274e-06
2.65416e-09
5.00413e-06
3.12316e-09
5.0058e-06
3.38094e-09
5.00764e-06
3.29739e-09
5.00933e-06
2.73931e-09
5.01026e-06
1.56683e-09
5.01043e-06
-2.94807e-10
5.00902e-06
-2.22177e-09
5.0065e-06
-4.00287e-09
5.00367e-06
-5.08645e-09
5.00153e-06
-5.06849e-09
5.00033e-06
-4.35262e-09
4.99969e-06
-3.33083e-09
4.99915e-06
-2.88166e-09
4.99843e-06
-2.63862e-09
-3.22624e-09
5.00011e-06
1.97613e-10
5.00042e-06
5.83539e-10
5.00093e-06
9.66523e-10
5.00166e-06
1.34624e-09
5.00262e-06
1.69821e-09
5.00379e-06
1.96178e-09
5.00511e-06
2.06944e-09
5.00646e-06
1.94605e-09
5.00765e-06
1.54143e-09
5.00839e-06
8.19932e-10
5.00821e-06
-1.27913e-10
5.00733e-06
-1.35382e-09
5.0057e-06
-2.37818e-09
5.00367e-06
-3.07628e-09
5.00178e-06
-3.18216e-09
5.00031e-06
-2.90216e-09
4.9993e-06
-2.32035e-09
4.99851e-06
-2.09346e-09
4.99772e-06
-1.8437e-09
-2.28592e-09
5.00009e-06
1.14217e-10
5.00038e-06
2.98839e-10
5.00087e-06
4.83521e-10
5.00155e-06
6.67576e-10
5.00241e-06
8.35203e-10
5.00342e-06
9.55937e-10
5.0045e-06
9.98352e-10
5.00551e-06
9.29809e-10
5.00633e-06
7.27173e-10
5.00679e-06
3.54301e-10
5.0068e-06
-1.43922e-10
5.00607e-06
-6.28646e-10
5.00478e-06
-1.09455e-09
5.00314e-06
-1.43633e-09
5.00146e-06
-1.5098e-09
5e-06
-1.44205e-09
4.99887e-06
-1.18591e-09
4.99792e-06
-1.13506e-09
4.99706e-06
-9.81789e-10
-1.42864e-09
5.00012e-06
5.00042e-06
5.00091e-06
5.00159e-06
5.00242e-06
5.00338e-06
5.00437e-06
5.0053e-06
5.00603e-06
5.00639e-06
5.00625e-06
5.00562e-06
5.00452e-06
5.00309e-06
5.00159e-06
5.00015e-06
4.99897e-06
4.99784e-06
4.99687e-06
)
;

boundaryField
{
    sides
    {
        type            calculated;
        value           uniform 0;
    }
    inlet
    {
        type            calculated;
        value           nonuniform List<scalar> 
20
(
-5e-06
-5e-06
-5e-06
-5e-06
-5e-06
-5e-06
-5e-06
-5e-06
-5e-06
-5e-06
-5e-06
-5e-06
-5e-06
-5e-06
-5e-06
-5e-06
-5e-06
-5e-06
-5e-06
-5e-06
)
;
    }
    outlet
    {
        type            calculated;
        value           nonuniform List<scalar> 
20
(
5.00188e-06
5.00139e-06
5.0015e-06
5.00141e-06
5.0017e-06
5.00198e-06
5.00277e-06
5.00421e-06
5.00343e-06
4.99513e-06
4.99474e-06
5.00264e-06
5.00274e-06
5.00062e-06
4.99933e-06
4.99835e-06
4.99748e-06
4.99678e-06
4.99621e-06
4.99544e-06
)
;
    }
    frontAndBack
    {
        type            empty;
        value           nonuniform List<scalar> 0();
    }
}


// ************************************************************************* //
