/*--------------------------------*- C++ -*----------------------------------*\
  =========                 |
  \\      /  F ield         | OpenFOAM: The Open Source CFD Toolbox
   \\    /   O peration     | Website:  https://openfoam.org
    \\  /    A nd           | Version:  9
     \\/     M anipulation  |
\*---------------------------------------------------------------------------*/
FoamFile
{
    format      ascii;
    class       volVectorField;
    location    "59";
    object      U;
}
// * * * * * * * * * * * * * * * * * * * * * * * * * * * * * * * * * * * * * //

dimensions      [0 1 -1 0 0 0 0];

internalField   nonuniform List<vector> 
400
(
(0.0999962 -2.43251e-06 0)
(0.100001 -6.99612e-06 0)
(0.10001 -1.12017e-05 0)
(0.100023 -1.51381e-05 0)
(0.10004 -1.87159e-05 0)
(0.100061 -2.17047e-05 0)
(0.100084 -2.36811e-05 0)
(0.100107 -2.4447e-05 0)
(0.100128 -2.352e-05 0)
(0.100144 -2.10436e-05 0)
(0.100152 -1.68614e-05 0)
(0.100152 -1.29077e-05 0)
(0.10014 -9.91523e-06 0)
(0.10012 -9.26051e-06 0)
(0.100093 -9.89291e-06 0)
(0.100068 -1.35221e-05 0)
(0.100045 -1.56552e-05 0)
(0.100033 -2.01141e-05 0)
(0.100025 -1.88515e-05 0)
(0.100032 -2.68229e-05 0)
(0.0999967 -2.6973e-06 0)
(0.100002 -7.75631e-06 0)
(0.100011 -1.2546e-05 0)
(0.100025 -1.71752e-05 0)
(0.100044 -2.12989e-05 0)
(0.100066 -2.40944e-05 0)
(0.100091 -2.45537e-05 0)
(0.100117 -2.18397e-05 0)
(0.100141 -1.51997e-05 0)
(0.100161 -4.61398e-06 0)
(0.100171 9.34444e-06 0)
(0.100168 2.45991e-05 0)
(0.100154 3.89178e-05 0)
(0.100129 4.7801e-05 0)
(0.100099 5.06859e-05 0)
(0.100071 4.52962e-05 0)
(0.10005 3.78101e-05 0)
(0.100037 2.57088e-05 0)
(0.100033 2.07604e-05 0)
(0.100029 8.2382e-06 0)
(0.0999966 -5.28629e-06 0)
(0.100002 -1.57223e-05 0)
(0.100011 -2.63028e-05 0)
(0.100025 -3.7069e-05 0)
(0.100044 -4.73064e-05 0)
(0.100069 -5.56255e-05 0)
(0.100097 -6.03209e-05 0)
(0.100127 -5.95462e-05 0)
(0.100156 -5.14822e-05 0)
(0.10018 -3.50547e-05 0)
(0.100193 -1.1118e-05 0)
(0.100192 1.59846e-05 0)
(0.100174 4.00618e-05 0)
(0.100142 5.21758e-05 0)
(0.100102 5.01863e-05 0)
(0.100065 3.54968e-05 0)
(0.100037 2.0238e-05 0)
(0.100025 4.5782e-06 0)
(0.100021 -5.60708e-08 0)
(0.100029 -1.15295e-05 0)
(0.099996 -7.36432e-06 0)
(0.100001 -2.198e-05 0)
(0.10001 -3.70174e-05 0)
(0.100025 -5.26758e-05 0)
(0.100046 -6.79773e-05 0)
(0.100073 -8.10796e-05 0)
(0.100107 -8.8933e-05 0)
(0.100146 -8.83543e-05 0)
(0.100186 -7.52689e-05 0)
(0.100222 -4.73926e-05 0)
(0.100243 -2.62508e-06 0)
(0.10024 4.88985e-05 0)
(0.10021 9.35062e-05 0)
(0.100159 0.000114114 0)
(0.100104 0.000105743 0)
(0.100061 7.44088e-05 0)
(0.100041 4.22021e-05 0)
(0.100035 1.68935e-05 0)
(0.10004 1.05211e-05 0)
(0.100035 2.71194e-07 0)
(0.099995 -9.09738e-06 0)
(0.0999993 -2.75215e-05 0)
(0.100008 -4.7187e-05 0)
(0.100023 -6.89589e-05 0)
(0.100045 -9.19352e-05 0)
(0.100076 -0.000114033 0)
(0.100117 -0.000129966 0)
(0.100168 -0.000133542 0)
(0.100225 -0.000117297 0)
(0.100281 -7.78447e-05 0)
(0.100318 -1.73272e-05 0)
(0.100316 5.74023e-05 0)
(0.100267 0.000122889 0)
(0.100181 0.000151283 0)
(0.100091 0.000137752 0)
(0.100029 9.65355e-05 0)
(0.100009 5.78744e-05 0)
(0.100019 3.12194e-05 0)
(0.100035 2.65318e-05 0)
(0.100043 1.70269e-05 0)
(0.0999936 -1.03524e-05 0)
(0.0999965 -3.15882e-05 0)
(0.100003 -5.56749e-05 0)
(0.100015 -8.39647e-05 0)
(0.100036 -0.000117106 0)
(0.10007 -0.00015264 0)
(0.100122 -0.000186014 0)
(0.100192 -0.000205272 0)
(0.100277 -0.000190972 0)
(0.100357 -0.000120158 0)
(0.100414 8.23708e-06 0)
(0.100415 0.000153884 0)
(0.100339 0.000243148 0)
(0.100208 0.000230646 0)
(0.100084 0.000143266 0)
(0.100014 4.93074e-05 0)
(0.100012 1.0396e-06 0)
(0.100035 -8.83747e-06 0)
(0.100064 6.1638e-06 0)
(0.100055 5.1562e-06 0)
(0.099992 -1.03205e-05 0)
(0.0999924 -3.31369e-05 0)
(0.0999945 -5.96669e-05 0)
(0.100001 -9.56782e-05 0)
(0.100016 -0.000139064 0)
(0.100046 -0.000194753 0)
(0.100103 -0.000249012 0)
(0.100202 -0.000308308 0)
(0.100349 -0.000323295 0)
(0.100519 -0.000288001 0)
(0.100632 -6.76654e-05 0)
(0.10059 0.00025536 0)
(0.100383 0.000482751 0)
(0.100117 0.000473796 0)
(0.0999476 0.000303082 0)
(0.0999217 0.00012648 0)
(0.0999925 4.28355e-05 0)
(0.100056 3.23561e-05 0)
(0.100095 5.63522e-05 0)
(0.100067 5.35349e-05 0)
(0.0999902 -9.35262e-06 0)
(0.099987 -2.87321e-05 0)
(0.0999803 -5.72524e-05 0)
(0.0999768 -9.52168e-05 0)
(0.0999773 -0.000157591 0)
(0.100001 -0.000234561 0)
(0.100047 -0.000340246 0)
(0.100159 -0.00041229 0)
(0.100334 -0.000437035 0)
(0.100659 -0.000254931 0)
(0.101006 7.55342e-05 0)
(0.101013 0.000426804 0)
(0.100606 0.000472123 0)
(0.100071 0.000278418 0)
(0.0997818 7.37661e-05 0)
(0.0997967 -2.73153e-05 0)
(0.099967 -2.87215e-05 0)
(0.100089 -1.17966e-06 0)
(0.100138 2.13098e-05 0)
(0.100086 1.03772e-05 0)
(0.0999891 -5.01295e-06 0)
(0.0999802 -2.02901e-05 0)
(0.0999625 -3.83291e-05 0)
(0.0999376 -7.31601e-05 0)
(0.0999105 -0.000133738 0)
(0.0999017 -0.00024816 0)
(0.0999565 -0.000468632 0)
(0.100144 -0.000806653 0)
(0.100536 -0.00132881 0)
(0.101062 -0.00149265 0)
(0.101323 0.000384771 0)
(0.100996 0.00187456 0)
(0.100241 0.00157843 0)
(0.0997197 0.000574106 0)
(0.0996443 -3.1438e-05 0)
(0.0998218 -0.00012617 0)
(0.100024 -9.42964e-06 0)
(0.100107 6.34356e-05 0)
(0.100113 6.53291e-05 0)
(0.100055 2.44438e-05 0)
(0.09997 -2.0151e-06 0)
(0.100005 -6.6143e-06 0)
(0.0999075 -1.49816e-05 0)
(0.0999715 -2.47022e-05 0)
(0.0997256 -5.9145e-05 0)
(0.0998438 -0.000113096 0)
(0.0992763 -0.000288104 0)
(0.0996749 -0.000558671 0)
(0.0991182 -0.00115364 0)
(0.102003 -0.00141514 0)
(0.10628 3.00357e-05 0)
(0.101267 0.00146726 0)
(0.0990075 0.00130705 0)
(0.0982221 0.000513097 0)
(0.0988552 1.94371e-05 0)
(0.099605 -7.79944e-05 0)
(0.0999349 -1.10049e-05 0)
(0.0999518 2.49604e-05 0)
(0.0998666 1.75906e-05 0)
(0.0998488 -1.84522e-05 0)
(0.0999707 1.33833e-06 0)
(0.100006 4.5926e-06 0)
(0.0999081 1.17002e-05 0)
(0.099972 1.99738e-05 0)
(0.099726 5.29917e-05 0)
(0.0998439 0.000105216 0)
(0.0992761 0.000278575 0)
(0.0996743 0.00054697 0)
(0.0991168 0.00113912 0)
(0.102001 0.00139744 0)
(0.106276 -5.34528e-05 0)
(0.101265 -0.00149449 0)
(0.0990076 -0.00133987 0)
(0.0982221 -0.000552729 0)
(0.0988537 -6.47929e-05 0)
(0.0996015 2.49267e-05 0)
(0.0999308 -4.70475e-05 0)
(0.0999474 -0.00010007 0)
(0.0998655 -9.8745e-05 0)
(0.099844 -8.88721e-05 0)
(0.0999912 4.34082e-06 0)
(0.0999822 1.83336e-05 0)
(0.0999645 3.51157e-05 0)
(0.0999395 6.85382e-05 0)
(0.0999122 0.00012771 0)
(0.0999036 0.000240344 0)
(0.0999581 0.000458942 0)
(0.100146 0.000794196 0)
(0.100537 0.00131363 0)
(0.101063 0.00147327 0)
(0.101325 -0.000406313 0)
(0.100996 -0.00190239 0)
(0.100235 -0.00160989 0)
(0.0997119 -0.000612186 0)
(0.0996385 -8.55539e-06 0)
(0.0998172 7.74957e-05 0)
(0.100014 -4.25586e-05 0)
(0.100091 -0.000130306 0)
(0.100093 -0.000137862 0)
(0.100038 -0.000125129 0)
(0.0999936 8.7084e-06 0)
(0.0999903 2.68828e-05 0)
(0.0999835 5.41213e-05 0)
(0.0999797 9.07096e-05 0)
(0.0999798 0.000151415 0)
(0.100003 0.000226469 0)
(0.100048 0.000329545 0)
(0.100159 0.000399013 0)
(0.100332 0.00042102 0)
(0.100655 0.000236571 0)
(0.101 -9.73186e-05 0)
(0.101006 -0.000454087 0)
(0.1006 -0.000502203 0)
(0.100067 -0.000313111 0)
(0.0997748 -0.000113324 0)
(0.0997844 -2.51916e-05 0)
(0.0999508 -3.19559e-05 0)
(0.100066 -7.37903e-05 0)
(0.100111 -9.66564e-05 0)
(0.100057 -0.000107476 0)
(0.0999968 9.73343e-06 0)
(0.0999971 3.13757e-05 0)
(0.0999989 5.671e-05 0)
(0.100005 9.13707e-05 0)
(0.100019 0.000133366 0)
(0.100049 0.000187438 0)
(0.100105 0.000240191 0)
(0.100203 0.000297545 0)
(0.100351 0.00031108 0)
(0.100519 0.000273293 0)
(0.100631 5.02526e-05 0)
(0.100586 -0.000275249 0)
(0.100375 -0.000507859 0)
(0.100104 -0.000507325 0)
(0.0999301 -0.000345195 0)
(0.0998987 -0.000179378 0)
(0.099968 -0.000101619 0)
(0.100026 -0.000105415 0)
(0.100065 -0.000130625 0)
(0.100025 -0.000151655 0)
(0.0999998 9.85464e-06 0)
(0.100002 3.00321e-05 0)
(0.100009 5.30568e-05 0)
(0.10002 8.0167e-05 0)
(0.10004 0.000112099 0)
(0.100073 0.000146206 0)
(0.100124 0.000178152 0)
(0.100193 0.000195198 0)
(0.100276 0.000178187 0)
(0.100353 0.000103424 0)
(0.100407 -2.76203e-05 0)
(0.100405 -0.000177974 0)
(0.100326 -0.000271093 0)
(0.10019 -0.000263447 0)
(0.100064 -0.00017816 0)
(0.0999888 -8.94703e-05 0)
(0.0999834 -4.21937e-05 0)
(0.0999981 -4.42527e-05 0)
(0.100023 -6.15757e-05 0)
(0.100001 -8.49892e-05 0)
(0.100003 8.67623e-06 0)
(0.100007 2.61846e-05 0)
(0.100015 4.4927e-05 0)
(0.100029 6.5771e-05 0)
(0.10005 8.77141e-05 0)
(0.10008 0.000108617 0)
(0.10012 0.000123202 0)
(0.10017 0.000125369 0)
(0.100225 0.000107304 0)
(0.100279 6.57616e-05 0)
(0.100314 2.07024e-06 0)
(0.100308 -7.66645e-05 0)
(0.100256 -0.000144851 0)
(0.100165 -0.00017758 0)
(0.100072 -0.000166983 0)
(0.100003 -0.000134691 0)
(0.0999791 -0.000102393 0)
(0.0999766 -9.3217e-05 0)
(0.0999892 -9.45838e-05 0)
(0.0999771 -0.000111028 0)
(0.100005 6.99085e-06 0)
(0.10001 2.07708e-05 0)
(0.100019 3.49696e-05 0)
(0.100033 4.98209e-05 0)
(0.100053 6.43938e-05 0)
(0.100079 7.67045e-05 0)
(0.100111 8.38205e-05 0)
(0.100148 8.25242e-05 0)
(0.100186 6.90109e-05 0)
(0.100218 4.06319e-05 0)
(0.100234 -4.47331e-06 0)
(0.100228 -5.72378e-05 0)
(0.100195 -0.000103378 0)
(0.100138 -0.000128221 0)
(0.100077 -0.000123081 0)
(0.100023 -9.93092e-05 0)
(0.0999949 -6.97715e-05 0)
(0.0999761 -5.53839e-05 0)
(0.0999767 -4.89082e-05 0)
(0.0999566 -6.00474e-05 0)
(0.100007 5.08567e-06 0)
(0.100012 1.48166e-05 0)
(0.100021 2.43166e-05 0)
(0.100034 3.36341e-05 0)
(0.100053 4.2198e-05 0)
(0.100076 4.8477e-05 0)
(0.100103 5.08619e-05 0)
(0.100132 4.71393e-05 0)
(0.10016 3.58977e-05 0)
(0.100182 1.54627e-05 0)
(0.100193 -1.15172e-05 0)
(0.100186 -4.18523e-05 0)
(0.100162 -6.8047e-05 0)
(0.100122 -8.4341e-05 0)
(0.100077 -8.51722e-05 0)
(0.100031 -7.70863e-05 0)
(0.100001 -6.36242e-05 0)
(0.0999724 -5.96049e-05 0)
(0.0999648 -5.6394e-05 0)
(0.0999394 -6.86691e-05 0)
(0.100008 3.48798e-06 0)
(0.100013 1.03802e-05 0)
(0.100021 1.72354e-05 0)
(0.100034 2.40256e-05 0)
(0.100051 3.02659e-05 0)
(0.100071 3.51046e-05 0)
(0.100094 3.75438e-05 0)
(0.100117 3.67202e-05 0)
(0.100138 3.17584e-05 0)
(0.100153 2.22558e-05 0)
(0.10016 8.5898e-06 0)
(0.100155 -6.96718e-06 0)
(0.100137 -2.0593e-05 0)
(0.100105 -2.98544e-05 0)
(0.100068 -3.14088e-05 0)
(0.100027 -2.82847e-05 0)
(0.0999968 -2.02666e-05 0)
(0.0999656 -1.69259e-05 0)
(0.0999541 -1.20745e-05 0)
(0.0999257 -1.99761e-05 0)
(0.10001 -3.96965e-07 0)
(0.100015 -1.0035e-06 0)
(0.100023 -1.34692e-06 0)
(0.100036 -1.51924e-06 0)
(0.100052 -1.70013e-06 0)
(0.100072 -2.24675e-06 0)
(0.100094 -3.37154e-06 0)
(0.100115 -5.39611e-06 0)
(0.100134 -8.26241e-06 0)
(0.100147 -1.22941e-05 0)
(0.100152 -1.70395e-05 0)
(0.100145 -2.31404e-05 0)
(0.100129 -2.90895e-05 0)
(0.1001 -3.42048e-05 0)
(0.100069 -3.60446e-05 0)
(0.10003 -3.68467e-05 0)
(0.100003 -3.42536e-05 0)
(0.0999668 -3.53185e-05 0)
(0.0999557 -3.28754e-05 0)
(0.0999144 -4.11111e-05 0)
)
;

boundaryField
{
    sides
    {
        type            calculated;
        value           nonuniform List<vector> 
40
(
(0.10001 0 0)
(0.100015 0 0)
(0.100023 0 0)
(0.100036 0 0)
(0.100052 0 0)
(0.100072 0 0)
(0.100094 0 0)
(0.100115 0 0)
(0.100134 0 0)
(0.100147 0 0)
(0.100152 0 0)
(0.100145 0 0)
(0.100129 0 0)
(0.1001 0 0)
(0.100069 0 0)
(0.10003 0 0)
(0.100003 0 0)
(0.0999668 0 0)
(0.0999557 0 0)
(0.0999144 0 0)
(0.0999962 0 0)
(0.100001 0 0)
(0.10001 0 0)
(0.100023 0 0)
(0.10004 0 0)
(0.100061 0 0)
(0.100084 0 0)
(0.100107 0 0)
(0.100128 0 0)
(0.100144 0 0)
(0.100152 0 0)
(0.100152 0 0)
(0.10014 0 0)
(0.10012 0 0)
(0.100093 0 0)
(0.100068 0 0)
(0.100045 0 0)
(0.100033 0 0)
(0.100025 0 0)
(0.100032 0 0)
)
;
    }
    inlet
    {
        type            calculated;
        value           nonuniform List<vector> 
20
(
(0.099996 0 0)
(0.0999965 0 0)
(0.0999964 0 0)
(0.0999958 0 0)
(0.0999948 0 0)
(0.0999935 0 0)
(0.099992 0 0)
(0.0999905 0 0)
(0.0999896 0 0)
(0.0999895 0 0)
(0.0999902 0 0)
(0.0999916 0 0)
(0.0999939 0 0)
(0.0999967 0 0)
(0.0999996 0 0)
(0.100002 0 0)
(0.100005 0 0)
(0.100007 0 0)
(0.100008 0 0)
(0.10001 0 0)
)
;
    }
    outlet
    {
        type            calculated;
        value           nonuniform List<vector> 
20
(
(0.100033 -2.6823e-05 0)
(0.100028 8.23819e-06 0)
(0.100029 -1.15296e-05 0)
(0.100034 2.71193e-07 0)
(0.100043 1.70269e-05 0)
(0.100054 5.15616e-06 0)
(0.100065 5.35342e-05 0)
(0.100085 1.0377e-05 0)
(0.100054 2.44435e-05 0)
(0.0998503 -1.84525e-05 0)
(0.0998453 -8.88733e-05 0)
(0.100037 -0.000125127 0)
(0.100055 -0.000107474 0)
(0.100023 -0.000151652 0)
(0.1 -8.49882e-05 0)
(0.0999764 -0.000111027 0)
(0.0999558 -6.00469e-05 0)
(0.0999385 -6.86685e-05 0)
(0.0999248 -1.9976e-05 0)
(0.0999131 -4.11106e-05 0)
)
;
    }
    frontAndBack
    {
        type            empty;
    }
}


// ************************************************************************* //
