/*--------------------------------*- C++ -*----------------------------------*\
  =========                 |
  \\      /  F ield         | OpenFOAM: The Open Source CFD Toolbox
   \\    /   O peration     | Website:  https://openfoam.org
    \\  /    A nd           | Version:  9
     \\/     M anipulation  |
\*---------------------------------------------------------------------------*/
FoamFile
{
    format      ascii;
    class       surfaceScalarField;
    location    "28";
    object      ddtCorrDdt0(phi);
}
// * * * * * * * * * * * * * * * * * * * * * * * * * * * * * * * * * * * * * //

dimensions      [0 4 -2 0 0 0 0];

internalField   nonuniform List<scalar> 
760
(
-2.19157e-10
-1.14024e-10
-5.38722e-10
5.96722e-11
-7.43856e-10
2.40753e-10
-5.81293e-10
7.9963e-11
-2.35701e-10
3.15162e-11
-1.9068e-10
3.30159e-10
-5.32051e-10
6.85965e-10
-8.46767e-10
6.60746e-10
-7.18073e-10
3.91862e-10
-2.13844e-10
2.09363e-10
3.83272e-10
1.81641e-10
5.218e-10
4.76392e-10
4.62779e-10
4.1318e-10
3.71475e-10
2.34216e-10
4.22984e-10
2.02727e-11
5.72058e-10
-7.51436e-11
6.49131e-10
5.65528e-11
4.05599e-10
3.64151e-10
2.65258e-10
-2.84019e-10
-1.51362e-12
-1.71156e-10
-1.99897e-10
-4.45221e-10
1.89306e-10
-6.3415e-10
4.9172e-10
-4.75959e-10
1.79431e-10
-1.80246e-10
3.09085e-11
-1.52751e-10
6.10938e-10
-5.19358e-10
1.25357e-09
-8.07909e-10
1.21454e-09
-6.70119e-10
6.18168e-10
-1.62744e-10
2.69286e-10
1.63445e-10
2.78164e-10
4.47888e-10
6.47323e-10
4.87447e-10
7.66389e-10
4.13039e-10
4.23994e-10
4.34332e-10
6.42271e-11
4.88818e-10
-1.00991e-10
4.62141e-10
1.1057e-10
4.0184e-10
5.31275e-10
2.99705e-10
4.58648e-10
-5.34568e-11
-1.29037e-10
-2.6149e-10
-2.95012e-10
3.15807e-10
-3.92521e-10
7.22113e-10
-3.16991e-10
2.13396e-10
-1.23602e-10
-1.60142e-11
-1.36079e-10
7.61553e-10
-4.43657e-10
1.60562e-09
-7.29465e-10
1.49154e-09
-6.23341e-10
7.87358e-10
-3.39838e-10
3.0407e-10
1.71258e-10
5.35984e-10
3.64196e-10
9.37719e-10
3.70045e-10
1.06725e-09
3.8207e-10
6.43907e-10
4.17684e-10
7.39865e-11
5.4703e-10
-2.45269e-10
5.74728e-10
4.37014e-11
2.57691e-10
8.94658e-10
1.39889e-10
5.02262e-10
-1.59277e-11
-2.34188e-11
-2.78691e-10
-9.34777e-11
4.56562e-10
-1.7681e-10
8.5543e-10
-1.13787e-10
2.25758e-10
2.32844e-11
-5.50633e-11
-9.05603e-11
7.91769e-10
-4.3315e-10
1.70464e-09
-6.42646e-10
1.59804e-09
-5.89743e-10
8.48823e-10
-2.78745e-10
3.01429e-10
-6.90859e-11
4.07458e-10
2.72553e-10
1.20322e-09
2.79523e-10
1.19878e-09
2.93739e-10
7.86454e-10
3.25648e-10
1.82958e-10
3.26489e-10
-1.65187e-10
2.76599e-10
1.11104e-10
3.28045e-10
8.21731e-10
2.61556e-10
6.33209e-10
-5.09036e-11
1.00958e-10
-2.7218e-10
1.06847e-10
5.11569e-10
1.01007e-10
9.02459e-10
1.29363e-10
2.00346e-10
1.15768e-10
-1.57687e-10
-1.09182e-10
6.72308e-10
-3.93907e-10
1.61705e-09
-4.36532e-10
1.69862e-09
-5.91993e-10
6.94837e-10
-3.00526e-10
3.10552e-10
-1.64619e-10
5.09324e-10
-5.0905e-11
9.68873e-10
1.98591e-10
1.32301e-09
1.63627e-10
7.21419e-10
1.51253e-10
1.29183e-10
2.74229e-10
-1.67937e-10
3.49076e-10
1.34596e-10
1.2941e-10
1.00658e-09
-3.28517e-11
8.2513e-10
-7.25404e-11
1.89776e-10
-2.26624e-10
3.11231e-10
5.47733e-10
3.70242e-10
8.61984e-10
3.48065e-10
1.53929e-10
2.09769e-10
-2.20838e-10
-1.34714e-10
5.22602e-10
-2.16814e-10
1.53715e-09
-4.45259e-10
1.41736e-09
-3.61174e-10
7.40506e-10
-7.4079e-10
-2.06569e-10
-1.22519e-10
7.10002e-10
-7.31186e-11
5.11367e-10
3.34069e-11
9.59264e-10
1.51911e-10
7.09282e-10
3.50766e-11
1.29472e-10
-7.02476e-11
-1.47467e-10
-4.32672e-11
1.8231e-10
6.5365e-11
9.29714e-10
1.26566e-10
7.8989e-10
-3.39647e-11
2.51527e-10
-1.7796e-10
4.83319e-10
5.05641e-10
6.28489e-10
7.40222e-10
5.48735e-10
1.08518e-10
2.35306e-10
-2.48165e-10
-4.86733e-11
4.15289e-10
-1.87287e-10
1.23775e-09
-2.86543e-10
1.21271e-09
-6.22879e-10
3.51517e-10
-2.85498e-10
-2.4858e-10
-1.04989e-09
-1.73007e-09
-2.69357e-11
1.03169e-09
6.66126e-12
7.33364e-10
1.74409e-11
4.20509e-10
-4.95563e-11
8.17903e-11
-2.08157e-10
-1.28171e-10
-2.12159e-10
8.6375e-10
-6.94535e-11
8.18086e-10
-1.97933e-11
7.41172e-10
-1.89042e-11
2.81321e-10
-1.3898e-10
6.08778e-10
3.77177e-10
8.24879e-10
5.35449e-10
6.95811e-10
5.60332e-11
3.03094e-10
-1.91877e-10
-4.78288e-11
3.01375e-10
-1.05556e-10
8.93871e-10
-2.01353e-10
6.5861e-10
-8.67866e-10
3.35277e-10
-5.98953e-10
6.65929e-10
-8.98023e-10
5.33651e-08
-5.87956e-10
2.26468e-10
-3.32933e-11
8.82677e-10
-1.342e-11
4.05532e-10
-1.24896e-10
1.93799e-11
-2.8232e-10
-7.66985e-11
-3.10765e-10
1.1966e-10
-2.30287e-10
6.70773e-10
-7.05646e-11
5.65914e-10
1.18278e-11
2.9218e-10
-9.62101e-11
6.97595e-10
1.88466e-10
9.64562e-10
2.80609e-10
7.93906e-10
4.00942e-11
3.81594e-10
-8.29072e-11
5.52038e-11
1.83981e-10
-2.05774e-10
4.65466e-10
-3.43073e-10
4.83491e-10
-1.15736e-10
4.21571e-11
-8.4868e-10
-7.87073e-11
-5.3674e-10
-1.70251e-09
-4.25805e-10
6.64772e-10
-4.3712e-10
1.86395e-10
-1.97165e-10
1.23306e-10
-2.18338e-10
1.22757e-11
-3.64385e-10
1.89494e-11
-4.92018e-10
-6.89478e-10
-2.88359e-10
4.06525e-10
-9.749e-11
3.31763e-10
1.46006e-11
2.7497e-10
-5.2292e-11
7.2738e-10
-3.85301e-11
1.04193e-09
-5.14334e-12
8.54534e-10
5.79351e-11
3.64416e-10
9.08787e-11
-1.2371e-11
6.68342e-11
-1.42667e-10
7.12266e-11
-2.45069e-10
4.34231e-11
-2.97067e-10
2.40962e-10
-9.82105e-10
-1.90347e-10
-1.75517e-10
6.10807e-10
-9.83808e-10
-4.9322e-10
-4.74754e-10
-8.8773e-11
-2.41903e-10
-8.07797e-12
-3.12127e-10
-1.56162e-11
-4.65315e-10
8.46934e-11
-5.65394e-10
1.25762e-10
-3.23909e-10
1.13535e-10
-1.66376e-10
1.30173e-10
4.42647e-11
2.70767e-10
8.52958e-12
7.16768e-10
-2.50145e-10
1.06694e-09
-2.73464e-10
8.71949e-10
4.69556e-11
3.40304e-10
2.5092e-10
-1.1363e-11
-2.09547e-11
-1.69573e-10
-3.39788e-10
-9.77434e-11
-2.17097e-10
-4.83618e-10
-6.34951e-11
-3.77997e-10
2.19252e-10
-1.13514e-09
-1.31219e-09
-4.64812e-10
-1.10451e-10
-3.12633e-10
-4.61483e-10
-3.06095e-10
-3.43355e-10
-3.23003e-10
-1.19612e-10
-5.03971e-10
1.16976e-10
-5.92367e-10
1.19319e-10
-3.46582e-10
-1.2724e-10
-1.40526e-10
-6.82502e-11
6.38082e-11
2.76993e-10
8.78302e-11
6.72441e-10
-3.96097e-10
9.94453e-10
-4.89243e-10
8.34242e-10
2.45484e-11
3.29226e-10
3.06212e-10
-9.05167e-12
-1.10466e-10
-1.7164e-10
-6.51254e-10
-2.39756e-10
-5.72267e-10
-4.4334e-10
-2.77669e-10
-1.4371e-09
-2.77798e-12
-1.42322e-09
2.64533e-08
-7.13504e-10
-1.00723e-09
-3.17246e-10
-9.19286e-10
-2.13962e-10
-6.6244e-10
-3.38576e-10
-1.85376e-10
-5.14777e-10
1.48113e-10
-5.6816e-10
9.54682e-11
-2.79666e-10
-3.63751e-10
-4.73091e-11
-2.40528e-10
9.82231e-11
2.60064e-10
1.9619e-10
5.7018e-10
-4.57978e-10
8.26002e-10
-6.44456e-10
7.13066e-10
3.27668e-13
2.77447e-10
3.56346e-10
-5.80659e-11
-2.50053e-10
-1.00917e-10
-1.01684e-09
-3.35859e-10
-9.60353e-10
-3.28593e-10
-2.22891e-10
-2.1527e-10
-2.50621e-11
-3.55124e-11
-9.87859e-10
-2.54499e-10
-6.3229e-10
-2.10901e-10
-1.30342e-09
-5.78203e-11
-7.56211e-10
-1.70214e-10
-2.1923e-10
-4.13085e-10
1.5334e-10
-3.97349e-10
6.41546e-11
-1.75018e-10
-5.37937e-10
7.10478e-12
-3.86233e-10
1.17125e-10
2.21537e-10
2.9048e-10
4.31466e-10
-4.72597e-10
5.93082e-10
-7.57424e-10
5.22584e-10
-2.23471e-11
2.07249e-10
3.46438e-10
-3.64738e-11
-4.28742e-10
-1.92976e-10
-1.35198e-09
-3.8024e-10
-1.2473e-09
-6.19637e-10
-3.93057e-10
-5.5391e-10
-2.84535e-11
-3.01207e-10
-1.30389e-10
-4.87421e-10
-1.22259e-09
2.71224e-12
-1.19301e-09
7.79194e-11
-8.16908e-10
-7.91444e-11
-2.20013e-10
-2.27444e-10
2.06352e-10
-2.33147e-10
3.51341e-11
-4.91284e-11
-6.99277e-10
7.88778e-11
-5.14252e-10
1.15358e-10
1.46246e-10
3.27622e-10
2.59757e-10
-4.34872e-10
3.23495e-10
-8.07299e-10
2.92771e-10
-6.34709e-11
1.27106e-10
3.01407e-10
-7.47184e-11
-5.6639e-10
-2.31573e-10
-1.60081e-09
-3.99639e-10
-1.54683e-09
-5.35141e-10
-6.95292e-10
-3.48073e-10
-4.31973e-11
-5.28687e-10
-8.9401e-10
-4.84863e-11
-1.00948e-09
1.48424e-10
-1.34251e-09
1.58854e-10
-8.80731e-10
4.96025e-11
-1.95495e-10
-6.52431e-11
2.34298e-10
-5.52643e-11
-5.07979e-12
6.33189e-11
-7.89375e-10
1.49825e-10
-5.79524e-10
1.14089e-10
4.71945e-11
3.46065e-10
4.52109e-11
-3.23588e-10
3.83258e-11
-7.34191e-10
3.81217e-11
-9.36675e-11
7.15206e-12
2.37353e-10
-1.23424e-10
-6.02122e-10
-3.00808e-10
-1.62254e-09
-5.12686e-10
-1.62828e-09
-5.74558e-10
-7.95074e-10
-5.29628e-10
-2.45955e-10
-9.17447e-11
-6.55451e-10
1.61985e-10
-1.13804e-09
2.27131e-10
-1.33641e-09
1.94626e-10
-8.38941e-10
1.17891e-10
-2.07336e-10
1.18457e-10
1.79262e-10
1.60085e-10
-2.49794e-11
1.7904e-10
-7.43134e-10
2.20134e-10
-5.47574e-10
1.17236e-10
-4.87884e-11
3.09626e-10
-1.73819e-10
-2.25543e-10
-2.48169e-10
-6.10802e-10
-1.94481e-10
-1.18452e-10
-1.13184e-10
1.28012e-10
-2.01265e-10
-6.01664e-10
-4.28058e-10
-1.44929e-09
-6.08096e-10
-1.45218e-09
-5.5378e-10
-8.00334e-10
-2.26589e-10
-4.18736e-10
-2.03306e-12
-5.03071e-10
1.76717e-10
-1.10068e-09
2.26828e-10
-1.23849e-09
2.21098e-10
-8.13326e-10
2.16255e-10
-2.36451e-10
2.61747e-10
1.45208e-10
3.30665e-10
-9.2103e-12
3.15419e-10
-6.22272e-10
3.01396e-10
-4.42767e-10
1.12477e-10
-1.25218e-10
2.451e-10
-3.77547e-10
-1.39186e-10
-5.38174e-10
-4.21382e-10
-3.93046e-10
-9.1376e-11
-1.81539e-10
3.92304e-11
-2.36693e-10
-5.0921e-10
-5.5197e-10
-1.10729e-09
-7.56451e-10
-1.07715e-09
-6.60024e-10
-6.00217e-10
-3.21889e-10
-2.64696e-10
2.11653e-10
-5.39983e-10
4.26972e-10
-8.37839e-10
4.0879e-10
-9.11938e-10
2.99922e-10
-5.76348e-10
2.78919e-10
-1.46445e-10
3.87277e-10
1.24911e-10
4.84961e-10
4.42327e-12
3.98314e-10
-4.45438e-10
3.20407e-10
-3.07448e-10
9.05947e-11
-2.24769e-10
1.34074e-10
-5.0362e-10
-8.49333e-11
-7.20414e-10
-2.51422e-10
-5.73163e-10
-7.2431e-11
-2.85646e-10
3.74736e-12
-2.6706e-10
-2.857e-10
-5.90786e-10
-6.1424e-10
-8.34947e-10
-5.81444e-10
-6.63101e-10
-3.3645e-10
-1.14392e-10
-2.07709e-10
2.44558e-10
-2.25333e-10
4.1614e-10
-4.43543e-10
3.65569e-10
-4.8653e-10
3.00441e-10
-3.18876e-10
3.6468e-10
-8.96481e-11
5.42464e-10
5.79327e-11
6.37991e-10
6.54093e-12
4.67296e-10
-2.18027e-10
3.16091e-10
-1.5261e-10
5.16785e-11
-2.52399e-10
-5.70666e-10
-8.18827e-10
-6.63159e-10
-3.09125e-10
-2.68761e-10
-6.09997e-10
-9.06502e-10
-7.28255e-10
-2.42608e-10
3.10422e-10
5.34761e-10
4.77495e-10
3.82569e-10
4.03881e-10
5.63739e-10
6.65012e-10
4.86695e-10
3.07816e-10
)
;

boundaryField
{
    sides
    {
        type            calculated;
        value           uniform 0;
    }
    inlet
    {
        type            calculated;
        value           uniform 0;
    }
    outlet
    {
        type            calculated;
        value           nonuniform List<scalar> 
20
(
2.8699e-10
3.82482e-10
1.31699e-10
3.13125e-10
1.4504e-12
9.10453e-11
-2.58648e-11
-1.28617e-10
-1.58619e-10
-1.60908e-10
-1.33272e-10
-6.21935e-11
-2.08039e-11
5.54668e-11
1.50134e-10
2.53704e-10
3.4801e-10
3.6843e-10
3.47558e-10
3.3049e-10
)
;
    }
    frontAndBack
    {
        type            empty;
        value           nonuniform List<scalar> 0();
    }
}


// ************************************************************************* //
