/*--------------------------------*- C++ -*----------------------------------*\
  =========                 |
  \\      /  F ield         | OpenFOAM: The Open Source CFD Toolbox
   \\    /   O peration     | Website:  https://openfoam.org
    \\  /    A nd           | Version:  9
     \\/     M anipulation  |
\*---------------------------------------------------------------------------*/
FoamFile
{
    format      ascii;
    class       volVectorField;
    location    "28";
    object      ddtCorrDdt0(hU);
}
// * * * * * * * * * * * * * * * * * * * * * * * * * * * * * * * * * * * * * //

dimensions      [0 2 -2 0 0 0 0];

internalField   nonuniform List<vector> 
400
(
(-1.50242e-08 -1.84526e-08 0)
(-5.04718e-08 6.66971e-09 0)
(-1.34823e-07 2.35975e-08 0)
(-1.54351e-07 1.15692e-09 0)
(-7.06796e-08 -1.7995e-09 0)
(-3.09051e-08 3.76829e-08 0)
(-7.27462e-08 7.72466e-08 0)
(-1.43007e-07 7.16365e-08 0)
(-1.61468e-07 3.9989e-08 0)
(-9.24223e-08 2.35552e-08 0)
(2.48928e-08 4.45548e-08 0)
(9.59261e-08 4.67851e-08 0)
(8.93764e-08 3.99803e-08 0)
(6.88052e-08 2.5608e-08 0)
(7.41335e-08 3.84777e-09 0)
(1.00779e-07 -5.7316e-09 0)
(1.39032e-07 4.45666e-09 0)
(1.21073e-07 1.0016e-08 0)
(4.33417e-08 1.31537e-08 0)
(6.12498e-08 2.25545e-09 0)
(-1.3092e-08 -3.78665e-08 0)
(-3.50486e-08 2.1891e-08 0)
(-1.17357e-07 7.28155e-08 0)
(-1.32837e-07 2.33704e-08 0)
(-5.40615e-08 3.42568e-09 0)
(-2.19987e-08 9.63028e-08 0)
(-6.7977e-08 2.00253e-07 0)
(-1.36134e-07 1.95101e-07 0)
(-1.53004e-07 1.09894e-07 0)
(-8.63586e-08 5.85148e-08 0)
(1.46531e-08 7.51729e-08 0)
(6.20804e-08 1.20751e-07 0)
(8.41507e-08 1.24096e-07 0)
(7.94815e-08 6.77311e-08 0)
(7.88373e-08 9.69693e-09 0)
(9.65391e-08 -1.9396e-08 0)
(1.06659e-07 1.75057e-08 0)
(9.48779e-08 1.09132e-07 0)
(5.40701e-08 8.4722e-08 0)
(7.49574e-08 -7.84949e-09 0)
(-1.26574e-08 -4.58551e-08 0)
(-2.04582e-08 4.84337e-08 0)
(-7.7412e-08 1.21544e-07 0)
(-8.70065e-08 3.88471e-08 0)
(-3.50033e-08 -9.06641e-10 0)
(-2.03446e-08 1.35662e-07 0)
(-5.98905e-08 2.87962e-07 0)
(-1.16649e-07 2.75298e-07 0)
(-1.34995e-07 1.45807e-07 0)
(-9.47024e-08 6.18793e-08 0)
(-1.62246e-08 9.04342e-08 0)
(6.10969e-08 1.70862e-07 0)
(6.40575e-08 1.92896e-07 0)
(6.27547e-08 1.08868e-07 0)
(7.6026e-08 1.55257e-08 0)
(9.60694e-08 -3.10857e-08 0)
(1.26071e-07 1.80804e-08 0)
(1.00014e-07 1.36496e-07 0)
(1.64941e-08 1.15867e-07 0)
(3.22412e-08 -3.1063e-09 0)
(-5.42257e-09 -5.47771e-08 0)
(7.28918e-09 7.86716e-08 0)
(-3.83464e-08 1.586e-07 0)
(-4.06088e-08 3.88954e-08 0)
(-1.22902e-09 -1.3258e-08 0)
(-4.4998e-09 1.55713e-07 0)
(-5.47217e-08 3.36474e-07 0)
(-1.00053e-07 3.13656e-07 0)
(-1.25707e-07 1.63705e-07 0)
(-8.18884e-08 5.44329e-08 0)
(-3.44549e-08 1.18378e-07 0)
(2.08977e-08 2.22876e-07 0)
(5.09214e-08 2.3177e-07 0)
(4.36513e-08 1.44317e-07 0)
(5.90863e-08 2.20121e-08 0)
(7.24401e-08 -4.55002e-08 0)
(6.29891e-08 1.69183e-08 0)
(5.90176e-08 1.71911e-07 0)
(5.88815e-08 1.46044e-07 0)
(6.08245e-08 -1.20918e-08 0)
(3.10734e-09 -5.6041e-08 0)
(3.37799e-08 9.76345e-08 0)
(1.00552e-08 1.77882e-07 0)
(1.79861e-08 4.06745e-08 0)
(3.01425e-08 -2.56148e-08 0)
(-4.52905e-09 1.47806e-07 0)
(-4.70603e-08 3.39873e-07 0)
(-7.64366e-08 3.32828e-07 0)
(-9.39983e-08 1.55658e-07 0)
(-9.83789e-08 6.14176e-08 0)
(-3.36776e-08 8.2704e-08 0)
(-3.04707e-08 2.26028e-07 0)
(7.3408e-09 2.55485e-07 0)
(3.09784e-08 1.58662e-07 0)
(2.52934e-08 3.91012e-08 0)
(4.16632e-08 -3.37066e-08 0)
(7.21595e-08 2.49498e-08 0)
(5.92316e-08 2.0066e-07 0)
(-5.45178e-09 1.59113e-07 0)
(2.55975e-09 -1.6872e-08 0)
(9.46431e-09 -5.07007e-08 0)
(5.74663e-08 1.07942e-07 0)
(5.76173e-08 1.79265e-07 0)
(7.31147e-08 3.33778e-08 0)
(5.87858e-08 -4.15272e-08 0)
(3.20062e-09 1.21243e-07 0)
(-3.5527e-08 3.24196e-07 0)
(-6.10109e-08 3.18862e-07 0)
(-6.34865e-08 1.38177e-07 0)
(-1.08267e-07 9.1769e-09 0)
(-9.95782e-08 8.39889e-08 0)
(-1.61228e-08 1.64538e-07 0)
(-1.53134e-08 2.35399e-07 0)
(1.5155e-08 1.41455e-07 0)
(1.89089e-08 2.64848e-08 0)
(-2.39978e-09 -2.7848e-08 0)
(-1.46461e-08 2.96018e-08 0)
(-1.10857e-09 1.70878e-07 0)
(2.65744e-08 1.45484e-07 0)
(2.43349e-08 -6.09583e-09 0)
(1.49979e-08 -4.08899e-08 0)
(7.5477e-08 1.07581e-07 0)
(1.01364e-07 1.63723e-07 0)
(1.25762e-07 2.43637e-08 0)
(8.22035e-08 -4.90564e-08 0)
(8.01457e-09 9.67157e-08 0)
(-2.65601e-08 2.80393e-07 0)
(-2.99918e-08 2.64598e-07 0)
(-8.93652e-08 1.13725e-07 0)
(-5.62784e-08 -4.01953e-08 0)
(-1.75686e-07 5.14929e-08 0)
(-1.08376e-07 1.42032e-07 0)
(-1.02578e-09 1.70305e-07 0)
(-9.05641e-09 1.12557e-07 0)
(-1.30988e-09 6.42593e-09 0)
(-1.83443e-08 -4.15113e-08 0)
(-5.32811e-08 3.55053e-08 0)
(-2.73798e-08 1.95387e-07 0)
(-1.31162e-09 1.58934e-07 0)
(-1.74523e-09 -9.14191e-09 0)
(1.94425e-08 -3.21161e-08 0)
(8.641e-08 8.89241e-08 0)
(1.34105e-07 1.31022e-07 0)
(1.66621e-07 1.80902e-08 0)
(1.0433e-07 -4.47276e-08 0)
(1.05428e-08 7.71144e-08 0)
(-2.30145e-08 2.27002e-07 0)
(-1.83307e-08 2.03292e-07 0)
(-6.53889e-08 6.00538e-08 0)
(-1.47178e-07 3.07995e-08 0)
(-1.79223e-07 5.82561e-09 0)
(-1.71266e-07 1.43253e-07 0)
(-5.38908e-08 1.54525e-07 0)
(-2.31723e-09 8.49218e-08 0)
(-2.15072e-08 9.08379e-09 0)
(-3.76889e-08 -2.98118e-08 0)
(-5.9752e-08 3.59471e-08 0)
(-6.47146e-08 1.55868e-07 0)
(-1.70224e-08 1.29117e-07 0)
(-1.65042e-08 7.47893e-10 0)
(2.25499e-08 -2.24242e-08 0)
(9.28008e-08 5.80116e-08 0)
(1.59339e-07 8.4132e-08 0)
(1.94121e-07 1.23179e-08 0)
(1.20441e-07 -2.84435e-08 0)
(2.37118e-08 4.56979e-08 0)
(-1.7032e-08 1.37727e-07 0)
(-2.87509e-08 1.18663e-07 0)
(-4.26761e-08 2.95429e-08 0)
(-8.87303e-08 3.26114e-08 0)
(-1.38554e-07 -1.16245e-09 0)
(-1.1242e-07 1.11484e-07 0)
(-1.06314e-07 1.01709e-07 0)
(-6.38086e-08 4.88561e-08 0)
(-3.80682e-08 1.35715e-08 0)
(-5.37871e-08 -6.29503e-09 0)
(-9.32892e-08 2.29027e-08 0)
(-8.78617e-08 9.83488e-08 0)
(-2.39173e-08 9.3769e-08 0)
(-2.15489e-08 1.17507e-09 0)
(2.57111e-08 -1.3414e-08 0)
(9.18941e-08 1.68526e-08 0)
(1.68734e-07 2.85937e-08 0)
(2.117e-07 9.06628e-09 0)
(1.25939e-07 -5.90098e-10 0)
(1.13884e-08 2.06275e-08 0)
(-1.89139e-08 4.38656e-08 0)
(-1.71477e-08 3.83307e-08 0)
(-2.51823e-08 3.12685e-08 0)
(-1.54714e-07 -1.90079e-08 0)
(-1.03333e-07 2.75317e-08 0)
(-1.46075e-07 -7.81086e-09 0)
(-1.69333e-07 4.39158e-10 0)
(-6.83534e-08 1.36709e-08 0)
(-4.70119e-08 5.60582e-09 0)
(-7.2534e-08 7.5145e-09 0)
(-1.1191e-07 2.03082e-08 0)
(-9.7591e-08 5.04551e-08 0)
(-3.43863e-08 5.28308e-08 0)
(-2.87883e-08 4.18726e-09 0)
(2.74499e-08 -5.94415e-09 0)
(9.13123e-08 -3.05887e-08 0)
(1.6934e-07 -2.84431e-08 0)
(2.14064e-07 9.43497e-09 0)
(1.26112e-07 3.42588e-08 0)
(1.04429e-08 9.19479e-09 0)
(-2.07254e-08 -1.91456e-08 0)
(-2.77179e-09 -1.00121e-08 0)
(-5.66461e-08 1.15575e-08 0)
(-5.95872e-08 -4.24605e-09 0)
(-1.79097e-07 1.80857e-08 0)
(-1.9569e-07 -4.48979e-08 0)
(-7.65859e-08 -4.88867e-08 0)
(-6.67101e-08 -3.63858e-08 0)
(-5.92393e-08 -1.19672e-08 0)
(-7.61786e-08 1.71283e-08 0)
(-1.18194e-07 2.16821e-08 0)
(-1.03273e-07 -1.86869e-09 0)
(-3.40591e-08 6.66944e-09 0)
(-2.2964e-08 1.12721e-08 0)
(2.75852e-08 8.09909e-09 0)
(9.04331e-08 -6.64576e-08 0)
(1.57635e-07 -7.91801e-08 0)
(1.98176e-07 3.27322e-09 0)
(1.19099e-07 5.42704e-08 0)
(1.79306e-08 -1.23577e-08 0)
(-2.18931e-08 -1.02135e-07 0)
(-2.18789e-08 -8.21358e-08 0)
(-4.82758e-08 -2.81418e-08 0)
(-1.1716e-07 2.91506e-08 0)
(-4.35472e-07 -6.93978e-08 0)
(-1.59209e-07 -1.18498e-07 0)
(-1.19668e-07 -1.39852e-07 0)
(-5.24719e-08 -1.04843e-07 0)
(-4.52878e-08 -3.41167e-08 0)
(-8.46679e-08 1.90434e-08 0)
(-1.24849e-07 1.74547e-08 0)
(-9.02093e-08 -4.75519e-08 0)
(-1.35532e-08 -3.18006e-08 0)
(-8.4929e-09 1.57628e-08 0)
(2.5106e-08 2.82213e-08 0)
(8.24118e-08 -8.73236e-08 0)
(1.27892e-07 -1.17977e-07 0)
(1.65262e-07 2.19901e-10 0)
(1.04098e-07 6.67988e-08 0)
(8.58464e-09 -4.18351e-08 0)
(-2.50275e-08 -1.77054e-07 0)
(-2.39524e-08 -1.58361e-07 0)
(-4.50535e-08 -4.6202e-08 0)
(-1.0346e-07 2.83923e-09 0)
(6.89974e-08 -6.82377e-08 0)
(-9.84874e-08 -1.76531e-07 0)
(-5.17767e-08 -2.16798e-07 0)
(-2.72168e-08 -1.43148e-07 0)
(-2.64037e-08 -4.27018e-08 0)
(-5.96198e-08 3.27248e-08 0)
(-8.40116e-08 1.98702e-08 0)
(-6.38339e-08 -9.04398e-08 0)
(-3.65762e-09 -6.36551e-08 0)
(2.03124e-09 2.25768e-08 0)
(2.02109e-08 4.87868e-08 0)
(6.84884e-08 -9.59167e-08 0)
(8.96533e-08 -1.44031e-07 0)
(1.18499e-07 2.74335e-10 0)
(7.80565e-08 7.39767e-08 0)
(5.87886e-09 -7.04315e-08 0)
(-2.6282e-08 -2.40075e-07 0)
(-4.551e-08 -2.25792e-07 0)
(-7.15976e-08 -6.57157e-08 0)
(-1.41798e-07 -2.69076e-09 0)
(-6.05903e-08 -2.83844e-08 0)
(-1.04044e-07 -1.64793e-07 0)
(-5.73816e-08 -2.3841e-07 0)
(5.02991e-09 -1.53821e-07 0)
(-6.59907e-10 -2.89511e-08 0)
(-2.72388e-08 5.43394e-08 0)
(-5.16235e-08 1.53726e-08 0)
(-3.21797e-08 -1.28244e-07 0)
(1.26098e-08 -9.23689e-08 0)
(1.67251e-08 2.45031e-08 0)
(1.30764e-08 6.26791e-08 0)
(4.99407e-08 -9.24174e-08 0)
(4.44714e-08 -1.59095e-07 0)
(6.14708e-08 -6.8519e-09 0)
(4.91955e-08 6.86756e-08 0)
(4.2674e-11 -9.95709e-08 0)
(-3.74381e-08 -3.03124e-07 0)
(-5.22115e-08 -2.86477e-07 0)
(-8.22029e-08 -1.07314e-07 0)
(-7.81944e-08 4.29516e-09 0)
(-9.60433e-08 -8.232e-08 0)
(-6.67639e-08 -2.436e-07 0)
(4.28577e-09 -2.61475e-07 0)
(2.68797e-08 -1.66281e-07 0)
(2.1424e-08 -3.75624e-08 0)
(-3.0845e-09 4.42778e-08 0)
(-1.55065e-08 3.47144e-09 0)
(1.64636e-09 -1.48361e-07 0)
(2.53241e-08 -1.11919e-07 0)
(3.37919e-08 2.26453e-08 0)
(4.93389e-09 6.84881e-08 0)
(2.47083e-08 -7.73589e-08 0)
(-5.07947e-09 -1.56828e-07 0)
(-5.4708e-10 -1.2558e-08 0)
(1.25148e-08 5.9227e-08 0)
(-1.17713e-08 -1.17997e-07 0)
(-4.51213e-08 -3.2867e-07 0)
(-7.66132e-08 -3.20613e-07 0)
(-9.90572e-08 -1.49026e-07 0)
(-1.04528e-07 -3.89116e-08 0)
(-7.32459e-08 -1.07599e-07 0)
(8.25367e-09 -2.22739e-07 0)
(3.94179e-08 -2.706e-07 0)
(3.36615e-08 -1.81537e-07 0)
(2.35156e-08 -5.18341e-08 0)
(2.2222e-08 3.58504e-08 0)
(3.35627e-08 -4.66075e-09 0)
(3.80908e-08 -1.5932e-07 0)
(3.5061e-08 -1.15914e-07 0)
(5.28434e-08 2.43155e-08 0)
(-2.43264e-09 6.61506e-08 0)
(-2.04917e-09 -5.47519e-08 0)
(-5.42064e-08 -1.36279e-07 0)
(-5.79174e-08 -2.02177e-08 0)
(-2.30131e-08 4.02089e-08 0)
(-2.6535e-08 -1.18996e-07 0)
(-6.38093e-08 -3.09475e-07 0)
(-1.01418e-07 -3.12137e-07 0)
(-1.14907e-07 -1.63158e-07 0)
(-7.74644e-08 -7.0201e-08 0)
(-1.44502e-08 -1.2006e-07 0)
(1.86546e-08 -2.33664e-07 0)
(2.89873e-08 -2.66827e-07 0)
(3.39497e-08 -1.69053e-07 0)
(4.10269e-08 -4.07734e-08 0)
(4.8596e-08 3.93421e-08 0)
(6.50968e-08 -2.73267e-09 0)
(7.10525e-08 -1.4466e-07 0)
(5.39763e-08 -1.02e-07 0)
(7.01197e-08 2.48025e-08 0)
(-6.80859e-09 5.73701e-08 0)
(-2.51327e-08 -3.76563e-08 0)
(-1.03095e-07 -1.02882e-07 0)
(-1.12627e-07 -1.3814e-08 0)
(-4.70617e-08 2.46214e-08 0)
(-3.26173e-08 -1.10562e-07 0)
(-7.95629e-08 -2.61071e-07 0)
(-1.33081e-07 -2.56545e-07 0)
(-1.42537e-07 -1.40192e-07 0)
(-9.49754e-08 -7.06134e-08 0)
(-7.85537e-09 -1.17522e-07 0)
(6.64697e-08 -2.07893e-07 0)
(7.99489e-08 -2.22876e-07 0)
(5.89469e-08 -1.40112e-07 0)
(5.07279e-08 -3.82876e-08 0)
(6.56247e-08 2.50498e-08 0)
(9.82455e-08 -1.29423e-09 0)
(9.73866e-08 -1.06445e-07 0)
(5.79164e-08 -7.79122e-08 0)
(7.58798e-08 1.87762e-08 0)
(-1.3823e-08 3.57195e-08 0)
(-4.80227e-08 -2.09047e-08 0)
(-1.29629e-07 -6.49634e-08 0)
(-1.49747e-07 -1.2241e-08 0)
(-7.62458e-08 8.48485e-09 0)
(-4.49955e-08 -7.82871e-08 0)
(-8.70682e-08 -1.73978e-07 0)
(-1.44645e-07 -1.68643e-07 0)
(-1.53912e-07 -9.50334e-08 0)
(-7.78996e-08 -4.97376e-08 0)
(2.57835e-08 -7.38002e-08 0)
(7.03547e-08 -1.31848e-07 0)
(6.62163e-08 -1.48057e-07 0)
(5.17436e-08 -9.83712e-08 0)
(6.16336e-08 -2.97697e-08 0)
(9.19147e-08 1.56068e-08 0)
(1.32671e-07 -7.28299e-10 0)
(1.21146e-07 -7.05389e-08 0)
(5.9007e-08 -4.97237e-08 0)
(7.46231e-08 1.42773e-08 0)
(-1.56542e-08 9.37993e-09 0)
(-5.4127e-08 -4.67517e-09 0)
(-1.47727e-07 -2.34751e-08 0)
(-1.70646e-07 -1.16709e-08 0)
(-8.61508e-08 -3.09463e-09 0)
(-4.47951e-08 -2.63496e-08 0)
(-8.86624e-08 -5.75836e-08 0)
(-1.56494e-07 -5.86566e-08 0)
(-1.68692e-07 -3.863e-08 0)
(-9.5659e-08 -2.37166e-08 0)
(1.57755e-08 -4.39824e-08 0)
(8.93535e-08 -6.20016e-08 0)
(9.22821e-08 -5.71669e-08 0)
(7.1931e-08 -3.20982e-08 0)
(7.37976e-08 -5.67152e-09 0)
(9.71693e-08 8.63432e-09 0)
(1.36833e-07 5.82214e-11 0)
(1.26868e-07 -2.66369e-08 0)
(5.87762e-08 -1.77232e-08 0)
(7.2708e-08 6.00116e-09 0)
)
;

boundaryField
{
    sides
    {
        type            calculated;
        value           nonuniform List<vector> 
40
(
(-1.56542e-08 0 0)
(-5.4127e-08 0 0)
(-1.47727e-07 0 0)
(-1.70646e-07 0 0)
(-8.61508e-08 0 0)
(-4.47951e-08 0 0)
(-8.86624e-08 0 0)
(-1.56494e-07 0 0)
(-1.68692e-07 0 0)
(-9.5659e-08 0 0)
(1.57755e-08 0 0)
(8.93535e-08 0 0)
(9.22821e-08 0 0)
(7.1931e-08 0 0)
(7.37976e-08 0 0)
(9.71693e-08 0 0)
(1.36833e-07 0 0)
(1.26868e-07 0 0)
(5.87762e-08 0 0)
(7.2708e-08 0 0)
(-1.50242e-08 0 0)
(-5.04718e-08 0 0)
(-1.34823e-07 0 0)
(-1.54351e-07 0 0)
(-7.06796e-08 0 0)
(-3.09051e-08 0 0)
(-7.27462e-08 0 0)
(-1.43007e-07 0 0)
(-1.61468e-07 0 0)
(-9.24223e-08 0 0)
(2.48928e-08 0 0)
(9.59261e-08 0 0)
(8.93764e-08 0 0)
(6.88052e-08 0 0)
(7.41335e-08 0 0)
(1.00779e-07 0 0)
(1.39032e-07 0 0)
(1.21073e-07 0 0)
(4.33417e-08 0 0)
(6.12498e-08 0 0)
)
;
    }
    inlet
    {
        type            calculated;
        value           uniform (0 0 0);
    }
    outlet
    {
        type            calculated;
        value           nonuniform List<vector> 
20
(
(6.12498e-08 2.25545e-09 0)
(7.49574e-08 -7.84949e-09 0)
(3.22412e-08 -3.1063e-09 0)
(6.08245e-08 -1.20918e-08 0)
(2.55975e-09 -1.6872e-08 0)
(2.43349e-08 -6.09583e-09 0)
(-1.74523e-09 -9.14191e-09 0)
(-1.65042e-08 7.47893e-10 0)
(-2.15489e-08 1.17507e-09 0)
(-2.87883e-08 4.18726e-09 0)
(-2.2964e-08 1.12721e-08 0)
(-8.4929e-09 1.57628e-08 0)
(2.03124e-09 2.25768e-08 0)
(1.67251e-08 2.45031e-08 0)
(3.37919e-08 2.26453e-08 0)
(5.28434e-08 2.43155e-08 0)
(7.01197e-08 2.48025e-08 0)
(7.58798e-08 1.87762e-08 0)
(7.46231e-08 1.42773e-08 0)
(7.2708e-08 6.00116e-09 0)
)
;
    }
    frontAndBack
    {
        type            empty;
    }
}


// ************************************************************************* //
