/*--------------------------------*- C++ -*----------------------------------*\
  =========                 |
  \\      /  F ield         | OpenFOAM: The Open Source CFD Toolbox
   \\    /   O peration     | Website:  https://openfoam.org
    \\  /    A nd           | Version:  9
     \\/     M anipulation  |
\*---------------------------------------------------------------------------*/
FoamFile
{
    format      ascii;
    class       volScalarField;
    location    "28";
    object      h_0;
}
// * * * * * * * * * * * * * * * * * * * * * * * * * * * * * * * * * * * * * //

dimensions      [0 1 0 0 0 0 0];

internalField   nonuniform List<scalar> 
400
(
0.0100002
0.0100002
0.0100002
0.0100002
0.0100001
0.00999994
0.00999977
0.00999962
0.00999951
0.00999943
0.00999939
0.00999937
0.00999942
0.00999954
0.00999973
0.00999993
0.0100001
0.0100002
0.0100002
0.0100001
0.0100002
0.0100002
0.0100001
0.0100001
0.00999997
0.0099998
0.0099996
0.00999942
0.00999927
0.00999916
0.00999909
0.00999912
0.00999921
0.00999938
0.00999961
0.00999983
0.00999999
0.0100001
0.0100001
0.01
0.0100002
0.0100002
0.0100001
0.0100001
0.00999991
0.00999971
0.00999947
0.00999924
0.00999904
0.0099989
0.00999882
0.00999883
0.00999897
0.00999923
0.00999956
0.00999988
0.0100001
0.0100002
0.0100002
0.01
0.0100003
0.0100002
0.0100002
0.0100001
0.00999987
0.00999961
0.00999931
0.009999
0.00999869
0.00999842
0.00999827
0.00999831
0.00999858
0.00999905
0.00999956
0.00999994
0.0100001
0.0100001
0.01
0.00999998
0.0100004
0.0100003
0.0100003
0.0100001
0.00999988
0.00999958
0.0099992
0.00999876
0.00999828
0.00999781
0.00999748
0.00999752
0.00999801
0.00999885
0.00999973
0.0100003
0.0100005
0.0100003
0.0100001
0.01
0.0100005
0.0100005
0.0100004
0.0100002
0.01
0.00999966
0.00999918
0.00999854
0.00999778
0.00999705
0.00999656
0.00999654
0.0099973
0.00999863
0.00999988
0.0100005
0.0100006
0.0100002
0.00999995
0.00999992
0.0100007
0.0100006
0.0100006
0.0100005
0.0100003
0.00999997
0.00999944
0.00999852
0.00999712
0.00999547
0.00999432
0.00999477
0.00999689
0.00999964
0.0100014
0.0100016
0.0100008
0.0100001
0.00999974
0.00999987
0.0100008
0.0100008
0.0100008
0.0100008
0.0100007
0.0100005
0.01
0.00999907
0.0099973
0.00999438
0.00999062
0.0099904
0.00999466
0.0100003
0.0100034
0.0100031
0.0100013
0.00999983
0.00999947
0.00999982
0.0100009
0.0100009
0.0100011
0.0100012
0.0100015
0.0100016
0.0100011
0.00999926
0.0099954
0.00998971
0.00998691
0.00998988
0.00999816
0.0100038
0.0100045
0.0100024
0.0100003
0.00999931
0.00999941
0.00999986
0.0100009
0.010001
0.0100011
0.0100016
0.0100023
0.0100037
0.0100055
0.0100076
0.0100048
0.00897846
0.00895253
0.00997595
0.0100089
0.0100179
0.0100105
0.0100023
0.00999881
0.00999886
0.00999974
0.0100001
0.0100008
0.0100009
0.0100011
0.0100015
0.0100022
0.0100036
0.0100055
0.0100075
0.0100047
0.00897844
0.00895247
0.00997594
0.0100089
0.0100178
0.0100104
0.0100023
0.0099988
0.00999884
0.00999972
0.0100001
0.0100006
0.0100007
0.0100008
0.010001
0.0100013
0.0100014
0.0100009
0.00999906
0.0099952
0.00998954
0.00998669
0.00998969
0.00999803
0.0100036
0.0100043
0.0100023
0.0100002
0.00999929
0.00999943
0.00999988
0.0100004
0.0100004
0.0100005
0.0100005
0.0100004
0.0100002
0.00999972
0.00999877
0.00999703
0.00999408
0.00999039
0.00999017
0.0099944
0.0100001
0.0100032
0.0100029
0.0100011
0.00999976
0.00999946
0.00999982
0.0100001
0.0100001
0.0100001
0.00999997
0.0099998
0.0099995
0.00999897
0.00999806
0.00999668
0.00999504
0.00999394
0.00999437
0.00999657
0.00999935
0.0100012
0.0100014
0.0100007
0.00999992
0.00999964
0.00999983
0.00999984
0.00999981
0.00999973
0.00999959
0.00999938
0.00999905
0.00999858
0.00999795
0.00999722
0.00999654
0.00999605
0.0099961
0.0099969
0.00999826
0.00999955
0.0100003
0.0100003
0.01
0.00999984
0.00999989
0.00999955
0.00999952
0.00999945
0.00999931
0.00999911
0.00999883
0.00999847
0.00999804
0.00999759
0.00999715
0.00999686
0.00999694
0.00999746
0.00999834
0.00999927
0.00999991
0.0100001
0.0100001
0.00999996
0.00999994
0.00999928
0.00999927
0.00999921
0.0099991
0.00999894
0.00999871
0.00999844
0.00999815
0.00999788
0.00999765
0.00999755
0.00999763
0.00999794
0.00999846
0.00999905
0.00999953
0.0099998
0.00999989
0.00999991
0.00999994
0.00999905
0.00999905
0.00999903
0.00999895
0.00999883
0.00999865
0.00999844
0.00999825
0.00999808
0.00999795
0.00999791
0.00999798
0.00999818
0.00999851
0.00999891
0.0099993
0.00999959
0.00999977
0.00999987
0.00999994
0.00999887
0.00999888
0.00999888
0.00999885
0.00999876
0.00999863
0.00999847
0.00999833
0.00999823
0.00999818
0.00999816
0.00999821
0.00999835
0.00999859
0.0099989
0.00999923
0.00999951
0.00999971
0.00999984
0.00999994
0.00999872
0.00999874
0.00999875
0.00999872
0.00999865
0.00999853
0.00999839
0.00999827
0.0099982
0.00999816
0.00999817
0.00999823
0.00999835
0.00999854
0.0099988
0.00999908
0.00999935
0.00999956
0.00999974
0.00999989
)
;

boundaryField
{
    sides
    {
        type            zeroGradient;
    }
    inlet
    {
        type            zeroGradient;
    }
    outlet
    {
        type            fixedValue;
        value           uniform 0.01;
    }
    frontAndBack
    {
        type            empty;
    }
}


// ************************************************************************* //
