/*--------------------------------*- C++ -*----------------------------------*\
  =========                 |
  \\      /  F ield         | OpenFOAM: The Open Source CFD Toolbox
   \\    /   O peration     | Website:  https://openfoam.org
    \\  /    A nd           | Version:  9
     \\/     M anipulation  |
\*---------------------------------------------------------------------------*/
FoamFile
{
    format      ascii;
    class       volVectorField;
    location    "28";
    object      hU;
}
// * * * * * * * * * * * * * * * * * * * * * * * * * * * * * * * * * * * * * //

dimensions      [0 2 -1 0 0 0 0];

internalField   nonuniform List<vector> 
400
(
(0.00100001 -2.46363e-08 0)
(0.00100001 -7.11948e-08 0)
(0.00100007 -1.28307e-07 0)
(0.00100021 -1.70512e-07 0)
(0.00100037 -1.86974e-07 0)
(0.00100053 -2.00177e-07 0)
(0.0010007 -2.26126e-07 0)
(0.0010009 -2.51533e-07 0)
(0.00100109 -2.48087e-07 0)
(0.00100125 -2.09973e-07 0)
(0.00100133 -1.50332e-07 0)
(0.0010013 -1.1304e-07 0)
(0.00100119 -9.33922e-08 0)
(0.00100103 -9.76972e-08 0)
(0.00100083 -1.06338e-07 0)
(0.00100062 -1.33275e-07 0)
(0.0010004 -1.44792e-07 0)
(0.00100027 -1.89482e-07 0)
(0.0010002 -1.80563e-07 0)
(0.00100031 -2.67068e-07 0)
(0.00100001 -2.77296e-08 0)
(0.00100002 -7.83202e-08 0)
(0.00100008 -1.62169e-07 0)
(0.00100023 -2.20012e-07 0)
(0.0010004 -2.15334e-07 0)
(0.00100057 -1.9676e-07 0)
(0.00100076 -2.11749e-07 0)
(0.00100098 -2.29056e-07 0)
(0.00100121 -1.79979e-07 0)
(0.00100139 -4.65799e-08 0)
(0.00100148 1.29775e-07 0)
(0.00100144 2.86542e-07 0)
(0.00100131 3.97903e-07 0)
(0.00100111 4.56749e-07 0)
(0.00100087 4.83817e-07 0)
(0.00100063 4.53023e-07 0)
(0.00100044 4.12194e-07 0)
(0.00100031 2.83786e-07 0)
(0.00100028 1.69793e-07 0)
(0.00100027 4.57955e-08 0)
(0.00100001 -5.09904e-08 0)
(0.00100002 -1.5393e-07 0)
(0.00100009 -3.11893e-07 0)
(0.00100023 -4.37812e-07 0)
(0.0010004 -4.73017e-07 0)
(0.00100059 -4.85894e-07 0)
(0.00100082 -5.47928e-07 0)
(0.00100108 -6.08717e-07 0)
(0.00100133 -5.57086e-07 0)
(0.00100155 -3.5483e-07 0)
(0.00100167 -6.39341e-08 0)
(0.00100165 2.15848e-07 0)
(0.00100149 4.09797e-07 0)
(0.00100122 4.85991e-07 0)
(0.00100089 4.64034e-07 0)
(0.00100058 3.53701e-07 0)
(0.00100032 2.50998e-07 0)
(0.00100019 8.8024e-08 0)
(0.00100016 -3.28719e-08 0)
(0.00100028 -1.53096e-07 0)
(0.00100001 -6.63488e-08 0)
(0.00100003 -2.10087e-07 0)
(0.0010001 -4.27404e-07 0)
(0.00100024 -6.06261e-07 0)
(0.00100042 -6.74235e-07 0)
(0.00100064 -7.19298e-07 0)
(0.00100092 -8.20909e-07 0)
(0.00100125 -9.0485e-07 0)
(0.0010016 -8.12819e-07 0)
(0.00100192 -4.86771e-07 0)
(0.0010021 3.34723e-08 0)
(0.00100207 5.53178e-07 0)
(0.00100181 9.41787e-07 0)
(0.00100137 1.09369e-06 0)
(0.0010009 1.00675e-06 0)
(0.00100053 7.41715e-07 0)
(0.00100036 4.83855e-07 0)
(0.00100032 2.19149e-07 0)
(0.00100037 5.4535e-08 0)
(0.00100032 -5.57307e-08 0)
(0.00100001 -7.7458e-08 0)
(0.00100003 -2.57009e-07 0)
(0.00100009 -5.27773e-07 0)
(0.00100023 -7.71633e-07 0)
(0.00100041 -9.10258e-07 0)
(0.00100067 -1.03853e-06 0)
(0.00100102 -1.22628e-06 0)
(0.00100146 -1.36256e-06 0)
(0.00100195 -1.24267e-06 0)
(0.00100244 -7.97702e-07 0)
(0.00100276 -1.24806e-07 0)
(0.00100274 6.36273e-07 0)
(0.00100232 1.23153e-06 0)
(0.00100157 1.45856e-06 0)
(0.00100078 1.32068e-06 0)
(0.00100025 9.58853e-07 0)
(0.00100008 6.42978e-07 0)
(0.00100015 3.64099e-07 0)
(0.00100031 1.93685e-07 0)
(0.00100041 9.80394e-08 0)
(0.00100001 -8.34394e-08 0)
(0.00100002 -2.89258e-07 0)
(0.00100007 -6.05428e-07 0)
(0.00100017 -9.14964e-07 0)
(0.00100033 -1.15656e-06 0)
(0.00100062 -1.42199e-06 0)
(0.00100108 -1.7861e-06 0)
(0.00100169 -2.08297e-06 0)
(0.00100241 -1.9885e-06 0)
(0.0010031 -1.2322e-06 0)
(0.00100361 1.19629e-07 0)
(0.00100364 1.58579e-06 0)
(0.00100297 2.42021e-06 0)
(0.00100181 2.24059e-06 0)
(0.00100072 1.37095e-06 0)
(0.00100011 4.87192e-07 0)
(0.00100011 7.20893e-08 0)
(0.00100034 -3.28055e-08 0)
(0.00100061 1.57558e-08 0)
(0.00100052 -5.43852e-09 0)
(0.00100001 -7.88408e-08 0)
(0.00100001 -2.98589e-07 0)
(0.00100002 -6.32821e-07 0)
(0.00100005 -1.01793e-06 0)
(0.00100016 -1.37194e-06 0)
(0.00100042 -1.85041e-06 0)
(0.00100093 -2.42212e-06 0)
(0.00100178 -3.10704e-06 0)
(0.00100306 -3.29909e-06 0)
(0.00100456 -2.91394e-06 0)
(0.00100555 -6.41646e-07 0)
(0.00100519 2.58824e-06 0)
(0.00100336 4.81124e-06 0)
(0.00100101 4.67353e-06 0)
(0.000999514 2.96717e-06 0)
(0.000999287 1.25765e-06 0)
(0.000999943 4.89378e-07 0)
(0.00100053 3.74449e-07 0)
(0.0010009 5.02722e-07 0)
(0.00100063 4.66506e-07 0)
(0.00100001 -6.94113e-08 0)
(0.000999977 -2.53302e-07 0)
(0.000999914 -5.92455e-07 0)
(0.000999854 -9.93318e-07 0)
(0.000999818 -1.55581e-06 0)
(0.00100003 -2.26448e-06 0)
(0.00100044 -3.34852e-06 0)
(0.00100143 -4.1495e-06 0)
(0.00100292 -4.43623e-06 0)
(0.00100581 -2.58101e-06 0)
(0.0010089 7.61591e-07 0)
(0.00100897 4.28682e-06 0)
(0.00100536 4.70602e-06 0)
(0.00100061 2.7407e-06 0)
(0.000998046 6.97119e-07 0)
(0.000998188 -2.70697e-07 0)
(0.000999734 -2.31711e-07 0)
(0.00100085 3.29486e-08 0)
(0.00100131 1.72021e-07 0)
(0.00100082 5.13618e-08 0)
(0.00100001 -3.02338e-08 0)
(0.000999928 -1.73539e-07 0)
(0.000999769 -3.87788e-07 0)
(0.000999508 -7.49939e-07 0)
(0.000999223 -1.31748e-06 0)
(0.00099914 -2.42417e-06 0)
(0.000999634 -4.64888e-06 0)
(0.00100129 -8.08336e-06 0)
(0.00100475 -1.33284e-05 0)
(0.00100937 -1.49368e-05 0)
(0.00101169 3.84016e-06 0)
(0.00100876 1.87346e-05 0)
(0.00100207 1.57633e-05 0)
(0.000997446 5.71402e-06 0)
(0.000996778 -3.30984e-07 0)
(0.000998369 -1.2547e-06 0)
(0.0010002 -5.83753e-08 0)
(0.00100098 6.63077e-07 0)
(0.00100106 6.1952e-07 0)
(0.00100051 1.99607e-07 0)
(0.000999814 -9.49129e-09 0)
(0.00100019 -4.68152e-08 0)
(0.000999232 -1.404e-07 0)
(0.000999881 -2.41426e-07 0)
(0.000997452 -5.72476e-07 0)
(0.000998772 -1.10209e-06 0)
(0.000993282 -2.86415e-06 0)
(0.000997427 -5.59343e-06 0)
(0.000991498 -1.15495e-05 0)
(0.000915629 -1.27152e-05 0)
(0.000951266 2.69282e-07 0)
(0.00101004 1.46349e-05 0)
(0.000990794 1.30819e-05 0)
(0.00098385 5.14194e-06 0)
(0.000989478 2.02064e-07 0)
(0.000996186 -7.62613e-07 0)
(0.00099917 -8.95593e-08 0)
(0.000999387 2.63173e-07 0)
(0.000998638 1.53917e-07 0)
(0.000998479 -2.16749e-07 0)
(0.000999814 1.14677e-08 0)
(0.00100018 5.28158e-08 0)
(0.000999231 1.41536e-07 0)
(0.000999881 2.29982e-07 0)
(0.00099745 5.45326e-07 0)
(0.000998766 1.04909e-06 0)
(0.000993273 2.7831e-06 0)
(0.000997415 5.47537e-06 0)
(0.00099148 1.1395e-05 0)
(0.00091561 1.25418e-05 0)
(0.000951223 -4.75831e-07 0)
(0.00101002 -1.49107e-05 0)
(0.000990796 -1.33928e-05 0)
(0.000983838 -5.49608e-06 0)
(0.000989457 -5.99024e-07 0)
(0.000996148 2.88487e-07 0)
(0.000999127 -4.58484e-07 0)
(0.000999341 -9.98935e-07 0)
(0.000998624 -9.9076e-07 0)
(0.000998429 -9.05816e-07 0)
(0.00100001 3.19213e-08 0)
(0.000999925 1.78642e-07 0)
(0.000999767 3.88595e-07 0)
(0.000999508 7.38244e-07 0)
(0.000999223 1.28898e-06 0)
(0.000999141 2.37065e-06 0)
(0.000999632 4.56689e-06 0)
(0.00100129 7.96192e-06 0)
(0.00100474 1.3164e-05 0)
(0.00100938 1.47242e-05 0)
(0.00101168 -4.09431e-06 0)
(0.0010087 -1.90209e-05 0)
(0.00100199 -1.60694e-05 0)
(0.000997355 -6.05914e-06 0)
(0.000996697 -1.77441e-08 0)
(0.000998296 8.25861e-07 0)
(0.0010001 -4.22013e-07 0)
(0.00100083 -1.31354e-06 0)
(0.00100087 -1.36719e-06 0)
(0.00100034 -1.25226e-06 0)
(0.00100001 7.07169e-08 0)
(0.000999972 2.5735e-07 0)
(0.00099991 5.92643e-07 0)
(0.000999851 9.82163e-07 0)
(0.000999813 1.52452e-06 0)
(0.00100001 2.20638e-06 0)
(0.00100042 3.25528e-06 0)
(0.00100139 4.0185e-06 0)
(0.00100287 4.26337e-06 0)
(0.00100573 2.37805e-06 0)
(0.00100881 -1.01784e-06 0)
(0.0010089 -4.57125e-06 0)
(0.00100528 -4.99668e-06 0)
(0.00100053 -3.05576e-06 0)
(0.000997945 -1.04813e-06 0)
(0.000998046 -1.90825e-07 0)
(0.00099956 -3.27281e-07 0)
(0.00100061 -7.60004e-07 0)
(0.00100105 -9.39413e-07 0)
(0.00100052 -1.06082e-06 0)
(0.00100001 8.08628e-08 0)
(0.001 3.01631e-07 0)
(0.00100002 6.33041e-07 0)
(0.00100005 1.0079e-06 0)
(0.00100015 1.34435e-06 0)
(0.0010004 1.79844e-06 0)
(0.00100091 2.34565e-06 0)
(0.00100175 3.00227e-06 0)
(0.00100303 3.17305e-06 0)
(0.00100451 2.74984e-06 0)
(0.0010055 4.78776e-07 0)
(0.0010051 -2.79107e-06 0)
(0.00100323 -5.05385e-06 0)
(0.00100084 -4.97608e-06 0)
(0.00099931 -3.33836e-06 0)
(0.000999038 -1.73056e-06 0)
(0.000999684 -1.04009e-06 0)
(0.00100022 -1.08728e-06 0)
(0.00100059 -1.26878e-06 0)
(0.00100021 -1.49224e-06 0)
(0.00100001 8.57633e-08 0)
(0.00100002 2.91426e-07 0)
(0.00100007 6.05411e-07 0)
(0.00100017 9.07079e-07 0)
(0.00100032 1.13493e-06 0)
(0.0010006 1.37896e-06 0)
(0.00100105 1.71853e-06 0)
(0.00100165 1.98288e-06 0)
(0.00100235 1.85219e-06 0)
(0.00100301 1.05139e-06 0)
(0.00100349 -3.35696e-07 0)
(0.00100347 -1.83115e-06 0)
(0.00100279 -2.67835e-06 0)
(0.00100159 -2.5297e-06 0)
(0.00100048 -1.6736e-06 0)
(0.000999822 -8.40358e-07 0)
(0.000999801 -4.54772e-07 0)
(0.000999945 -4.83198e-07 0)
(0.00100019 -5.74883e-07 0)
(0.000999976 -8.1941e-07 0)
(0.00100001 7.93515e-08 0)
(0.00100002 2.58308e-07 0)
(0.00100009 5.28056e-07 0)
(0.00100022 7.66507e-07 0)
(0.00100039 8.93125e-07 0)
(0.00100064 1.00454e-06 0)
(0.00100099 1.16947e-06 0)
(0.00100141 1.28023e-06 0)
(0.00100188 1.13397e-06 0)
(0.00100234 6.63795e-07 0)
(0.00100266 -4.37832e-08 0)
(0.00100261 -8.34188e-07 0)
(0.00100214 -1.44469e-06 0)
(0.00100134 -1.69999e-06 0)
(0.00100053 -1.58131e-06 0)
(0.00099994 -1.30424e-06 0)
(0.000999745 -1.06575e-06 0)
(0.000999721 -9.76395e-07 0)
(0.000999852 -9.02208e-07 0)
(0.000999741 -1.07728e-06 0)
(0.00100001 6.81132e-08 0)
(0.00100002 2.09664e-07 0)
(0.00100009 4.24121e-07 0)
(0.00100023 5.98953e-07 0)
(0.0010004 6.6102e-07 0)
(0.00100061 6.95788e-07 0)
(0.00100089 7.82454e-07 0)
(0.00100119 8.47821e-07 0)
(0.00100152 7.43153e-07 0)
(0.00100179 4.07909e-07 0)
(0.00100193 -1.06939e-07 0)
(0.00100186 -6.39237e-07 0)
(0.00100157 -1.03349e-06 0)
(0.00100109 -1.21262e-06 0)
(0.00100057 -1.15106e-06 0)
(0.00100011 -9.58833e-07 0)
(0.000999872 -7.40621e-07 0)
(0.000999695 -5.95219e-07 0)
(0.000999716 -4.47379e-07 0)
(0.000999535 -5.68217e-07 0)
(0.00100001 5.24998e-08 0)
(0.00100001 1.54313e-07 0)
(0.00100008 3.08299e-07 0)
(0.00100023 4.20456e-07 0)
(0.00100039 4.35915e-07 0)
(0.00100057 4.27366e-07 0)
(0.00100079 4.6605e-07 0)
(0.00100103 4.93057e-07 0)
(0.00100127 4.02429e-07 0)
(0.00100147 1.53269e-07 0)
(0.00100156 -1.72348e-07 0)
(0.00100149 -4.76379e-07 0)
(0.00100127 -6.83428e-07 0)
(0.00100093 -7.93632e-07 0)
(0.00100056 -7.95537e-07 0)
(0.00100017 -7.48877e-07 0)
(0.000999913 -6.7131e-07 0)
(0.00099964 -6.30664e-07 0)
(0.000999589 -5.33935e-07 0)
(0.000999366 -6.61005e-07 0)
(0.001 3.79435e-08 0)
(0.00100001 1.09286e-07 0)
(0.00100007 2.13958e-07 0)
(0.00100021 2.94646e-07 0)
(0.00100036 3.12582e-07 0)
(0.00100052 3.14393e-07 0)
(0.00100069 3.46524e-07 0)
(0.00100089 3.78833e-07 0)
(0.00100107 3.42991e-07 0)
(0.00100121 2.19486e-07 0)
(0.00100126 4.85285e-08 0)
(0.00100119 -1.12598e-07 0)
(0.00100103 -2.16242e-07 0)
(0.00100077 -2.72769e-07 0)
(0.00100048 -2.80255e-07 0)
(0.00100014 -2.69164e-07 0)
(0.000999874 -2.26122e-07 0)
(0.000999563 -1.91665e-07 0)
(0.000999476 -9.98457e-08 0)
(0.000999231 -1.82709e-07 0)
(0.001 -2.095e-09 0)
(0.00100001 -8.48447e-09 0)
(0.00100007 -2.33217e-09 0)
(0.00100022 1.68052e-09 0)
(0.00100037 -1.20911e-08 0)
(0.00100051 -3.33918e-08 0)
(0.00100068 -4.46447e-08 0)
(0.00100085 -5.3526e-08 0)
(0.00100103 -7.68508e-08 0)
(0.00100115 -1.24287e-07 0)
(0.00100119 -1.8453e-07 0)
(0.0010011 -2.42692e-07 0)
(0.00100095 -2.87399e-07 0)
(0.00100072 -3.26889e-07 0)
(0.00100047 -3.45146e-07 0)
(0.00100015 -3.62084e-07 0)
(0.000999916 -3.50106e-07 0)
(0.000999557 -3.59899e-07 0)
(0.000999479 -3.19203e-07 0)
(0.000999113 -4.03759e-07 0)
)
;

boundaryField
{
    sides
    {
        type            slip;
    }
    inlet
    {
        type            fixedValue;
        value           uniform (0.001 0 0);
    }
    outlet
    {
        type            zeroGradient;
    }
    frontAndBack
    {
        type            empty;
    }
}


// ************************************************************************* //
