/*--------------------------------*- C++ -*----------------------------------*\
  =========                 |
  \\      /  F ield         | OpenFOAM: The Open Source CFD Toolbox
   \\    /   O peration     | Website:  https://openfoam.org
    \\  /    A nd           | Version:  9
     \\/     M anipulation  |
\*---------------------------------------------------------------------------*/
FoamFile
{
    format      ascii;
    class       surfaceScalarField;
    location    "28";
    object      phi;
}
// * * * * * * * * * * * * * * * * * * * * * * * * * * * * * * * * * * * * * //

dimensions      [0 4 -1 0 0 0 0];

internalField   nonuniform List<scalar> 
760
(
5.00001e-06
-9.97513e-11
5.0002e-06
-3.09278e-10
5.00071e-06
-6.26326e-10
5.00149e-06
-8.55365e-10
5.00234e-06
-8.76654e-10
5.00318e-06
-8.55181e-10
5.00411e-06
-9.41057e-10
5.00511e-06
-1.03501e-09
5.00599e-06
-9.05326e-10
5.00651e-06
-5.05765e-10
5.0066e-06
-1.58176e-11
5.00616e-06
5.42613e-10
5.00537e-06
8.84028e-10
5.0044e-06
1.03336e-09
5.00335e-06
1.09674e-09
5.00242e-06
9.63735e-10
5.00162e-06
8.3945e-10
5.0013e-06
3.49539e-10
5.00133e-06
1.13098e-11
-4.7705e-10
5.00003e-06
-2.12099e-10
5.00025e-06
-6.23376e-10
5.00079e-06
-1.24898e-09
5.0016e-06
-1.71851e-09
5.0025e-06
-1.8008e-09
5.00343e-06
-1.7985e-09
5.00447e-06
-2.01087e-09
5.00563e-06
-2.23165e-09
5.0067e-06
-2.01154e-09
5.00736e-06
-1.17825e-09
5.00725e-06
1.07405e-10
5.00675e-06
1.114e-09
5.00582e-06
1.89444e-09
5.00463e-06
2.286e-09
5.00346e-06
2.30377e-09
5.00259e-06
1.85453e-09
5.00202e-06
1.43585e-09
5.00166e-06
7.40428e-10
5.00147e-06
2.39419e-10
-3.46004e-10
5.00003e-06
-3.03309e-10
5.00026e-06
-9.1801e-10
5.00079e-06
-1.82554e-09
5.00159e-06
-2.55867e-09
5.00256e-06
-2.78985e-09
5.00365e-06
-2.91116e-09
5.00489e-06
-3.30435e-09
5.00624e-06
-3.65962e-09
5.00745e-06
-3.29454e-09
5.00822e-06
-1.99348e-09
5.0084e-06
-5.35814e-11
5.00771e-06
1.8553e-09
5.0064e-06
3.26641e-09
5.00482e-06
3.93261e-09
5.00328e-06
3.88432e-09
5.00209e-06
3.05998e-09
5.00137e-06
2.17867e-09
5.00113e-06
1.00754e-09
5.00129e-06
1.11344e-10
-4.3595e-10
5.00003e-06
-3.72392e-10
5.00027e-06
-1.18358e-09
5.0008e-06
-2.37609e-09
5.00161e-06
-3.39288e-09
5.00268e-06
-3.8664e-09
5.00399e-06
-4.26108e-09
5.00558e-06
-4.98727e-09
5.00744e-06
-5.63459e-09
5.0093e-06
-5.25237e-09
5.01049e-06
-3.26408e-09
5.01058e-06
-1.7697e-10
5.0094e-06
3.08002e-09
5.00713e-06
5.58495e-09
5.00475e-06
6.38633e-09
5.00318e-06
5.50301e-09
5.00248e-06
3.80141e-09
5.00229e-06
2.38789e-09
5.00215e-06
1.16762e-09
5.00181e-06
4.67786e-10
6.84627e-11
5.00003e-06
-4.19006e-10
5.00024e-06
-1.3977e-09
5.00071e-06
-2.84294e-09
5.00149e-06
-4.17884e-09
5.00266e-06
-5.06218e-09
5.00428e-06
-5.94994e-09
5.00637e-06
-7.20201e-09
5.00887e-06
-8.26117e-09
5.01174e-06
-8.26841e-09
5.01411e-06
-5.71419e-09
5.01411e-06
-2.02749e-10
5.01218e-06
5.00891e-09
5.00811e-06
9.71914e-09
5.00416e-06
1.04071e-08
5.0019e-06
7.8237e-09
5.00146e-06
4.3074e-09
5.00175e-06
2.13833e-09
5.00196e-06
9.91226e-10
5.00182e-06
6.31785e-10
2.9192e-10
5.00001e-06
-4.30415e-10
5.00015e-06
-1.5152e-09
5.00044e-06
-3.12968e-09
5.00105e-06
-4.79423e-09
5.00219e-06
-6.23498e-09
5.00421e-06
-8.07629e-09
5.00717e-06
-1.0299e-08
5.01109e-06
-1.23484e-08
5.0148e-06
-1.21146e-08
5.01817e-06
-9.24017e-09
5.01945e-06
-1.48955e-09
5.01533e-06
9.11268e-09
5.00891e-06
1.61899e-08
5.00371e-06
1.57064e-08
5.00175e-06
9.87042e-09
5.00216e-06
3.96668e-09
5.00305e-06
1.30956e-09
5.00326e-06
8.33263e-10
5.00266e-06
1.26569e-09
1.11227e-09
4.99997e-06
-3.99649e-10
4.99993e-06
-1.45652e-09
4.99996e-06
-3.15343e-09
5.00019e-06
-5.04061e-09
5.00097e-06
-7.08443e-09
5.00261e-06
-9.83243e-09
5.00636e-06
-1.42126e-08
5.01329e-06
-1.94506e-08
5.02292e-06
-2.19437e-08
5.03002e-06
-1.64354e-08
5.02782e-06
6.34798e-10
5.01599e-06
2.10852e-08
5.00357e-06
2.87073e-08
4.99823e-06
2.11634e-08
5.00015e-06
8.0756e-09
5.00249e-06
1.72654e-09
5.00349e-06
3.7031e-10
5.0035e-06
8.81525e-10
5.0029e-06
1.90511e-09
1.387e-09
4.99987e-06
-2.78876e-10
4.99958e-06
-1.15321e-09
4.99908e-06
-2.65681e-09
4.99867e-06
-4.67152e-09
4.99905e-06
-7.55523e-09
5.00004e-06
-1.09629e-08
5.00324e-06
-1.75905e-08
5.00918e-06
-2.5601e-08
5.02394e-06
-3.69031e-08
5.05511e-06
-4.75956e-08
5.04903e-06
6.95248e-09
5.02238e-06
4.78591e-08
4.99753e-06
5.37537e-08
4.99292e-06
2.59577e-08
4.99901e-06
2.15771e-09
5.00372e-06
-2.85159e-09
5.00469e-06
-4.83747e-10
5.00362e-06
2.01196e-09
5.00339e-06
2.18377e-09
7.17699e-10
4.99979e-06
-8.64879e-11
4.99921e-06
-5.76198e-10
4.99789e-06
-1.35345e-09
4.99591e-06
-2.75283e-09
4.99372e-06
-5.4691e-09
4.9934e-06
-1.07975e-08
4.99898e-06
-2.33877e-08
5.01643e-06
-4.32488e-08
5.05477e-06
-7.53771e-08
5.0657e-06
-5.86981e-08
5.04877e-06
2.36703e-08
4.99569e-06
1.0104e-07
4.98865e-06
6.09555e-08
4.99536e-06
1.9485e-08
4.9997e-06
-1.97189e-09
5.00255e-06
-5.53807e-09
5.00231e-06
-1.30424e-10
5.00176e-06
2.62861e-09
5.00242e-06
1.56647e-09
-1.34925e-10
4.99988e-06
4.53783e-12
4.99927e-06
1.49152e-11
4.99789e-06
2.0553e-12
4.9951e-06
-3.13323e-11
4.98959e-06
-7.4982e-11
4.97876e-06
-1.48447e-10
4.95539e-06
-2.28052e-10
4.91226e-06
-3.32635e-10
4.83719e-06
-4.23455e-10
4.77891e-06
-5.01054e-10
4.8033e-06
-6.17676e-10
4.90516e-06
-7.6633e-10
4.96709e-06
-7.17603e-10
4.98767e-06
-8.11844e-10
4.98696e-06
-1.03105e-09
4.98287e-06
-1.27284e-09
4.98434e-06
-1.46847e-09
4.98883e-06
-1.77859e-09
4.99239e-06
-1.94805e-09
-2.70871e-09
4.99987e-06
9.37477e-11
4.99927e-06
6.03546e-10
4.99789e-06
1.35909e-09
4.9951e-06
2.69292e-09
4.98957e-06
5.32564e-09
4.97873e-06
1.05137e-08
4.95533e-06
2.29494e-08
4.9122e-06
4.26072e-08
4.83708e-06
7.45351e-08
4.77868e-06
5.78593e-08
4.80323e-06
-2.52264e-08
4.90515e-06
-1.02482e-07
4.96707e-06
-6.24166e-08
4.98749e-06
-2.09848e-08
4.98686e-06
-1.62801e-10
4.98254e-06
3.22554e-09
4.9842e-06
-3.00129e-09
4.98882e-06
-6.29926e-09
4.99226e-06
-5.3387e-09
-5.03124e-09
4.99978e-06
2.85456e-10
4.9992e-06
1.1754e-09
4.99789e-06
2.65685e-09
4.99592e-06
4.60704e-09
4.99373e-06
7.3875e-09
4.9934e-06
1.06747e-08
4.99898e-06
1.71654e-08
5.01639e-06
2.49969e-08
5.05468e-06
3.60977e-08
5.06605e-06
4.64075e-08
5.04838e-06
-8.13703e-09
4.99523e-06
-4.92399e-08
4.98818e-06
-5.51687e-08
4.9951e-06
-2.76869e-08
4.99954e-06
-4.40453e-09
5.00193e-06
1.00948e-09
5.00145e-06
-2.39288e-09
5.00085e-06
-5.60554e-09
5.0016e-06
-6.03414e-09
-5.92104e-09
4.99986e-06
4.08233e-10
4.99956e-06
1.47421e-09
4.99907e-06
3.1534e-09
4.99866e-06
4.98241e-09
4.99901e-06
6.93875e-09
4.99996e-06
9.56986e-09
5.00307e-06
1.38669e-08
5.00895e-06
1.89071e-08
5.02367e-06
2.12189e-08
5.05445e-06
1.54959e-08
5.04881e-06
-1.87428e-09
5.02203e-06
-2.23321e-08
4.99718e-06
-3.01666e-08
4.99255e-06
-2.28637e-08
4.99818e-06
-9.86408e-09
5.00307e-06
-3.74847e-09
5.00352e-06
-2.72627e-09
5.00227e-06
-4.28121e-09
5.00205e-06
-5.77933e-09
-6.44697e-09
4.99996e-06
4.42752e-10
4.99991e-06
1.52861e-09
4.99994e-06
3.13097e-09
5.00015e-06
4.75439e-09
5.00089e-06
6.12113e-09
5.00249e-06
7.8474e-09
5.00626e-06
9.93324e-09
5.01316e-06
1.18093e-08
5.02274e-06
1.14462e-08
5.02977e-06
8.36681e-09
5.02747e-06
4.2706e-10
5.01542e-06
-1.02499e-08
5.00282e-06
-1.74264e-08
4.99724e-06
-1.71391e-08
4.99897e-06
-1.14725e-08
5.00125e-06
-5.93095e-09
5.00219e-06
-3.57972e-09
5.00201e-06
-4.04856e-09
5.00107e-06
-4.80789e-09
-5.84806e-09
5e-06
4.29983e-10
5.00012e-06
1.40582e-09
5.00041e-06
2.84217e-09
5.001e-06
4.14551e-09
5.00211e-06
4.96471e-09
5.00411e-06
5.75447e-09
5.00701e-06
6.88453e-09
5.01082e-06
7.81744e-09
5.01438e-06
7.70079e-09
5.0177e-06
4.92857e-09
5.01869e-06
-6.58111e-10
5.01448e-06
-5.99483e-09
5.00791e-06
-1.08003e-08
5.00258e-06
-1.17306e-08
5.00044e-06
-9.2539e-09
5.00067e-06
-6.096e-09
5.00132e-06
-4.18191e-09
5.00116e-06
-3.84358e-09
5.00021e-06
-3.83503e-09
-4.82745e-09
5.00002e-06
3.81921e-10
5.00022e-06
1.19123e-09
5.00067e-06
2.37723e-09
5.00144e-06
3.36601e-09
5.00257e-06
3.79231e-09
5.00413e-06
4.1203e-09
5.00615e-06
4.75307e-09
5.00855e-06
5.26512e-09
5.01138e-06
4.71639e-09
5.01365e-06
2.52705e-09
5.01343e-06
-4.7432e-10
5.01138e-06
-3.94779e-09
5.00711e-06
-6.50169e-09
5.00297e-06
-7.5344e-09
5.00054e-06
-6.77883e-09
4.99985e-06
-5.35808e-09
4.99988e-06
-4.17026e-09
4.99969e-06
-3.62069e-09
4.99903e-06
-3.14714e-09
-4.02193e-09
5.00003e-06
3.07106e-10
5.00026e-06
9.18363e-10
5.00076e-06
1.83428e-09
5.00155e-06
2.54192e-09
5.00258e-06
2.72633e-09
5.00384e-06
2.79317e-09
5.00537e-06
3.12871e-09
5.00712e-06
3.40394e-09
5.00875e-06
2.97418e-09
5.00963e-06
1.55223e-09
5.00971e-06
-5.85615e-10
5.00833e-06
-2.5532e-09
5.0059e-06
-4.0395e-09
5.00323e-06
-4.81295e-09
5.00122e-06
-4.73431e-09
5.0001e-06
-4.20684e-09
4.99949e-06
-3.52102e-09
4.99896e-06
-3.06635e-09
4.9983e-06
-2.45605e-09
-3.08132e-09
5.00002e-06
2.18561e-10
5.00024e-06
6.21105e-10
5.00076e-06
1.23697e-09
5.00156e-06
1.69438e-09
5.00248e-06
1.76022e-09
5.00349e-06
1.72554e-09
5.00466e-06
1.88348e-09
5.00596e-06
2.01799e-09
5.00715e-06
1.70198e-09
5.00784e-06
8.08591e-10
5.00763e-06
-3.74669e-10
5.00671e-06
-1.59408e-09
5.00513e-06
-2.39747e-09
5.00324e-06
-2.87174e-09
5.00149e-06
-2.94672e-09
5.00012e-06
-2.8131e-09
4.9991e-06
-2.47392e-09
4.9983e-06
-2.23481e-09
4.99758e-06
-1.70969e-09
-2.17935e-09
5.00001e-06
1.25778e-10
5.0002e-06
3.1977e-10
5.00069e-06
6.2965e-10
5.00145e-06
8.58721e-10
5.00228e-06
8.70852e-10
5.00314e-06
8.25803e-10
5.00407e-06
8.91596e-10
5.00505e-06
9.6429e-10
5.00588e-06
8.13908e-10
5.00632e-06
3.42472e-10
5.00622e-06
-2.58636e-10
5.00546e-06
-7.64085e-10
5.00426e-06
-1.11975e-09
5.00279e-06
-1.34348e-09
5.00128e-06
-1.3917e-09
4.99988e-06
-1.3919e-09
4.99869e-06
-1.25807e-09
4.9977e-06
-1.20572e-09
4.99692e-06
-9.1281e-10
-1.37019e-09
5.00003e-06
5.00022e-06
5.00072e-06
5.00148e-06
5.0023e-06
5.00308e-06
5.00393e-06
5.00483e-06
5.0056e-06
5.00593e-06
5.00572e-06
5.00505e-06
5.00402e-06
5.00274e-06
5.00138e-06
5.00001e-06
4.99878e-06
4.99761e-06
4.99672e-06
)
;

boundaryField
{
    sides
    {
        type            calculated;
        value           uniform 0;
    }
    inlet
    {
        type            calculated;
        value           nonuniform List<scalar> 
20
(
-5e-06
-5e-06
-5e-06
-5e-06
-5e-06
-5e-06
-5e-06
-5e-06
-5e-06
-5e-06
-5e-06
-5e-06
-5e-06
-5e-06
-5e-06
-5e-06
-5e-06
-5e-06
-5e-06
-5e-06
)
;
    }
    outlet
    {
        type            calculated;
        value           nonuniform List<scalar> 
20
(
5.00181e-06
5.00135e-06
5.00139e-06
5.00132e-06
5.00161e-06
5.00185e-06
5.00264e-06
5.00407e-06
5.00329e-06
4.99498e-06
4.9946e-06
5.0025e-06
5.00259e-06
5.00048e-06
4.9992e-06
4.99823e-06
4.99737e-06
4.99669e-06
4.99612e-06
4.99536e-06
)
;
    }
    frontAndBack
    {
        type            empty;
        value           nonuniform List<scalar> 0();
    }
}


// ************************************************************************* //
