/*--------------------------------*- C++ -*----------------------------------*\
  =========                 |
  \\      /  F ield         | OpenFOAM: The Open Source CFD Toolbox
   \\    /   O peration     | Website:  https://openfoam.org
    \\  /    A nd           | Version:  9
     \\/     M anipulation  |
\*---------------------------------------------------------------------------*/
FoamFile
{
    format      ascii;
    class       surfaceScalarField;
    location    "28";
    object      phi_0;
}
// * * * * * * * * * * * * * * * * * * * * * * * * * * * * * * * * * * * * * //

dimensions      [0 4 -1 0 0 0 0];

internalField   nonuniform List<scalar> 
760
(
5.00003e-06
-9.08917e-11
5.00025e-06
-3.16886e-10
5.00078e-06
-6.54451e-10
5.00155e-06
-8.68963e-10
5.00236e-06
-8.80394e-10
5.0032e-06
-8.8452e-10
5.00416e-06
-1.00592e-09
5.0052e-06
-1.10046e-09
5.00607e-06
-9.43383e-10
5.00653e-06
-5.23889e-10
5.00656e-06
-3.46362e-11
5.00611e-06
5.0179e-10
5.00533e-06
8.44293e-10
5.00437e-06
1.00962e-09
5.00331e-06
1.09361e-09
5.00237e-06
9.71901e-10
5.00155e-06
8.36947e-10
5.00126e-06
3.15759e-10
5.0013e-06
-1.49272e-11
-4.78705e-10
5.00005e-06
-1.9538e-10
5.00029e-06
-6.44189e-10
5.00085e-06
-1.30451e-09
5.00164e-06
-1.74356e-09
5.00252e-06
-1.8048e-09
5.00345e-06
-1.85281e-09
5.00453e-06
-2.12913e-09
5.00571e-06
-2.34934e-09
5.00677e-06
-2.07314e-09
5.00739e-06
-1.20041e-09
5.00723e-06
8.42316e-11
5.0067e-06
1.05566e-09
5.00578e-06
1.82014e-09
5.00459e-06
2.2401e-09
5.00342e-06
2.29464e-09
5.00255e-06
1.86491e-09
5.00197e-06
1.42915e-09
5.00162e-06
6.91036e-10
5.00144e-06
1.95567e-10
-3.43935e-10
5.00004e-06
-2.8113e-10
5.00029e-06
-9.50022e-10
5.00083e-06
-1.90355e-09
5.00162e-06
-2.58981e-09
5.00257e-06
-2.78978e-09
5.00367e-06
-2.97636e-09
5.00494e-06
-3.45289e-09
5.00632e-06
-3.80501e-09
5.00752e-06
-3.37612e-09
5.00825e-06
-2.02111e-09
5.00839e-06
-9.15969e-11
5.00767e-06
1.76605e-09
5.00637e-06
3.16159e-09
5.00479e-06
3.86114e-09
5.00324e-06
3.86867e-09
5.00204e-06
3.08111e-09
5.00132e-06
2.17766e-09
5.0011e-06
9.22905e-10
5.00128e-06
4.33279e-11
-4.37467e-10
5.00004e-06
-3.47771e-10
5.00028e-06
-1.22737e-09
5.00081e-06
-2.46654e-09
5.00163e-06
-3.42448e-09
5.00268e-06
-3.85913e-09
5.004e-06
-4.32617e-09
5.00563e-06
-5.1442e-09
5.0075e-06
-5.79771e-09
5.00936e-06
-5.33805e-09
5.01052e-06
-3.29833e-09
5.01059e-06
-2.0973e-10
5.00938e-06
2.96725e-09
5.0071e-06
5.46016e-09
5.00472e-06
6.30196e-09
5.00315e-06
5.47537e-09
5.00244e-06
3.81108e-09
5.00226e-06
2.37853e-09
5.00212e-06
1.0881e-09
5.00179e-06
3.96899e-10
6.93708e-11
5.00002e-06
-3.93355e-10
5.00023e-06
-1.44524e-09
5.0007e-06
-2.93644e-09
5.00148e-06
-4.20637e-09
5.00266e-06
-5.04344e-09
5.00429e-06
-6.0007e-09
5.0064e-06
-7.35526e-09
5.00892e-06
-8.42875e-09
5.01179e-06
-8.34631e-09
5.01415e-06
-5.73555e-09
5.01412e-06
-2.67177e-10
5.01218e-06
4.92356e-09
5.0081e-06
9.58516e-09
5.00414e-06
1.03211e-08
5.00189e-06
7.80018e-09
5.00143e-06
4.3192e-09
5.00172e-06
2.12647e-09
5.00195e-06
8.92481e-10
5.00183e-06
5.42504e-10
2.93214e-10
5e-06
-4.06717e-10
5.00012e-06
-1.56327e-09
5.00041e-06
-3.2164e-09
5.00102e-06
-4.8138e-09
5.00217e-06
-6.2066e-09
5.00422e-06
-8.11563e-09
5.00719e-06
-1.04423e-08
5.01113e-06
-1.24912e-08
5.01484e-06
-1.21913e-08
5.01822e-06
-9.2215e-09
5.01946e-06
-1.55697e-09
5.01533e-06
9.03608e-09
5.0089e-06
1.60911e-08
5.0037e-06
1.56259e-08
5.00175e-06
9.84462e-09
5.00217e-06
3.97526e-09
5.00306e-06
1.29171e-09
5.00326e-06
7.42035e-10
5.00265e-06
1.18075e-09
1.11022e-09
4.99995e-06
-3.79213e-10
4.99989e-06
-1.49956e-09
4.9999e-06
-3.2261e-09
5.00014e-06
-5.0533e-09
5.00095e-06
-7.05518e-09
5.00261e-06
-9.86191e-09
5.00637e-06
-1.43273e-08
5.01331e-06
-1.95709e-08
5.02298e-06
-2.19807e-08
5.03002e-06
-1.64487e-08
5.0279e-06
6.56688e-10
5.016e-06
2.09811e-08
5.00356e-06
2.86091e-08
4.99822e-06
2.11047e-08
5.00015e-06
8.05585e-09
5.00251e-06
1.73382e-09
5.00352e-06
3.88213e-10
5.00352e-06
8.01547e-10
5.00291e-06
1.8253e-09
1.38427e-09
4.99985e-06
-2.62e-10
4.99952e-06
-1.18399e-09
4.999e-06
-2.70831e-09
4.9986e-06
-4.67855e-09
4.99902e-06
-7.53222e-09
5.00004e-06
-1.09847e-08
5.00325e-06
-1.76695e-08
5.00919e-06
-2.56708e-08
5.02399e-06
-3.69531e-08
5.05514e-06
-4.76266e-08
5.04913e-06
6.78552e-09
5.02244e-06
4.78499e-08
4.99754e-06
5.36636e-08
4.99292e-06
2.59011e-08
4.99902e-06
2.14056e-09
5.00375e-06
-2.84979e-09
5.00472e-06
-4.96212e-10
5.00365e-06
1.94621e-09
5.0034e-06
2.12321e-09
7.13713e-10
4.99976e-06
-7.45344e-11
4.99915e-06
-5.90146e-10
4.9978e-06
-1.37998e-09
4.99584e-06
-2.75733e-09
4.99369e-06
-5.45788e-09
4.9934e-06
-1.08088e-08
4.999e-06
-2.34319e-08
5.01645e-06
-4.32959e-08
5.05479e-06
-7.53822e-08
5.06577e-06
-5.87268e-08
5.04877e-06
2.36994e-08
4.99571e-06
1.00977e-07
4.98868e-06
6.09144e-08
4.99538e-06
1.94618e-08
4.99973e-06
-1.98252e-09
5.0026e-06
-5.54356e-09
5.00236e-06
-1.42672e-10
5.0018e-06
2.58782e-09
5.00244e-06
1.53137e-09
-1.39014e-10
4.99985e-06
1.02889e-11
4.99921e-06
1.98712e-11
4.99779e-06
2.64788e-12
4.99502e-06
-3.68501e-11
4.98955e-06
-8.25048e-11
4.97877e-06
-1.54163e-10
4.9554e-06
-2.34517e-10
4.91227e-06
-3.40032e-10
4.83718e-06
-4.46129e-10
4.779e-06
-4.73113e-10
4.80331e-06
-6.63161e-10
4.90521e-06
-7.39149e-10
4.96714e-06
-6.94952e-10
4.9877e-06
-8.05885e-10
4.987e-06
-1.029e-09
4.98293e-06
-1.28064e-09
4.9844e-06
-1.48173e-09
4.98887e-06
-1.79116e-09
4.99241e-06
-1.96237e-09
-2.71344e-09
4.99985e-06
9.11849e-11
4.9992e-06
6.25406e-10
4.99779e-06
1.38569e-09
4.99502e-06
2.68874e-09
4.98954e-06
5.29945e-09
4.97873e-06
1.05117e-08
4.95534e-06
2.29786e-08
4.9122e-06
4.2632e-08
4.83711e-06
7.45444e-08
4.77871e-06
5.78382e-08
4.8033e-06
-2.5199e-08
4.9052e-06
-1.02449e-07
4.9671e-06
-6.23678e-08
4.98753e-06
-2.09453e-08
4.9869e-06
-1.43437e-10
4.9826e-06
3.21805e-09
4.98427e-06
-3.01304e-09
4.98886e-06
-6.28712e-09
4.99228e-06
-5.33066e-09
-5.03667e-09
4.99975e-06
2.7334e-10
4.99913e-06
1.20841e-09
4.99779e-06
2.70447e-09
4.99584e-06
4.60585e-09
4.9937e-06
7.35186e-09
4.9934e-06
1.06763e-08
4.99899e-06
1.72236e-08
5.0164e-06
2.50576e-08
5.0547e-06
3.61255e-08
5.06609e-06
4.64223e-08
5.04844e-06
-6.77385e-09
4.99528e-06
-4.91455e-08
4.9882e-06
-5.5069e-08
4.99512e-06
-2.76097e-08
4.99958e-06
-4.37213e-09
5.00199e-06
9.92557e-10
5.00152e-06
-2.4006e-09
5.00089e-06
-5.5684e-09
5.00161e-06
-6.00554e-09
-5.92815e-09
4.99983e-06
3.86079e-10
4.99951e-06
1.5127e-09
4.99899e-06
3.21775e-09
4.99859e-06
4.98585e-09
4.99899e-06
6.89823e-09
4.99997e-06
9.58085e-09
5.00308e-06
1.39594e-08
5.00897e-06
1.90032e-08
5.0237e-06
2.1257e-08
5.05451e-06
1.54844e-08
5.04888e-06
-1.78292e-09
5.02204e-06
-2.22611e-08
4.99719e-06
-3.00322e-08
4.99255e-06
-2.2769e-08
4.9982e-06
-9.82678e-09
5.00312e-06
-3.75503e-09
5.00356e-06
-2.73037e-09
5.00229e-06
-4.22685e-09
5.00206e-06
-5.73514e-09
-6.45528e-09
4.99993e-06
4.13791e-10
4.99987e-06
1.57044e-09
4.99988e-06
3.20892e-09
5.0001e-06
4.76324e-09
5.00088e-06
6.08296e-09
5.0025e-06
7.87646e-09
5.00628e-06
1.00569e-08
5.01319e-06
1.19351e-08
5.02277e-06
1.14897e-08
5.02983e-06
8.38476e-09
5.02748e-06
4.39513e-10
5.01545e-06
-1.01321e-08
5.00283e-06
-1.72891e-08
4.99723e-06
-1.70409e-08
4.99898e-06
-1.14354e-08
5.00128e-06
-5.94182e-09
5.00222e-06
-3.58215e-09
5.00202e-06
-3.97964e-09
5.00106e-06
-4.75131e-09
-5.85599e-09
4.99998e-06
3.9882e-10
5.0001e-06
1.44541e-09
5.00038e-06
2.92628e-09
5.00098e-06
4.15955e-09
5.0021e-06
4.93213e-09
5.00411e-06
5.7977e-09
5.00704e-06
7.03342e-09
5.01086e-06
7.97028e-09
5.01443e-06
7.77341e-09
5.01773e-06
4.93446e-09
5.01873e-06
-6.11111e-10
5.01448e-06
-5.89035e-09
5.00789e-06
-1.06613e-08
5.00256e-06
-1.16303e-08
5.00043e-06
-9.22114e-09
5.00068e-06
-6.11194e-09
5.00133e-06
-4.18283e-09
5.00116e-06
-3.76732e-09
5.0002e-06
-3.77229e-09
-4.83503e-09
5.00002e-06
3.50473e-10
5.00022e-06
1.22244e-09
5.00067e-06
2.45651e-09
5.00143e-06
3.38543e-09
5.00257e-06
3.76824e-09
5.00414e-06
4.16907e-09
5.00618e-06
4.90548e-09
5.0086e-06
5.42625e-09
5.01143e-06
4.79758e-09
5.01369e-06
2.54788e-09
5.01344e-06
-4.14916e-10
5.01136e-06
-3.84053e-09
5.00709e-06
-6.3675e-09
5.00295e-06
-7.44301e-09
5.00053e-06
-6.74957e-09
4.99984e-06
-5.37115e-09
4.99986e-06
-4.17038e-09
4.99967e-06
-3.54984e-09
4.99901e-06
-3.08781e-09
-4.0296e-09
5.00003e-06
2.80041e-10
5.00027e-06
9.41853e-10
5.00078e-06
1.90245e-09
5.00157e-06
2.56399e-09
5.00259e-06
2.71486e-09
5.00386e-06
2.84363e-09
5.00542e-06
3.26535e-09
5.00718e-06
3.54877e-09
5.0088e-06
3.0559e-09
5.00965e-06
1.58957e-09
5.00971e-06
-5.42445e-10
5.00831e-06
-2.45345e-09
5.00588e-06
-3.91859e-09
5.00321e-06
-4.72748e-09
5.0012e-06
-4.7043e-09
5.00008e-06
-4.21764e-09
4.99946e-06
-3.52268e-09
4.99893e-06
-3.00749e-09
4.99827e-06
-2.40804e-09
-3.08916e-09
5.00004e-06
1.98191e-10
5.00027e-06
6.36011e-10
5.00081e-06
1.28618e-09
5.0016e-06
1.71301e-09
5.0025e-06
1.7576e-09
5.00352e-06
1.76907e-09
5.00472e-06
1.98757e-09
5.00604e-06
2.12554e-09
5.00722e-06
1.76291e-09
5.00788e-06
8.32645e-10
5.00761e-06
-3.2749e-10
5.00667e-06
-1.51658e-09
5.00509e-06
-2.30829e-09
5.00321e-06
-2.81102e-09
5.00146e-06
-2.92712e-09
5.00009e-06
-2.823e-09
4.99906e-06
-2.47676e-09
4.99826e-06
-2.19329e-09
4.99755e-06
-1.67677e-09
-2.18623e-09
5.00003e-06
1.14478e-10
5.00025e-06
3.28711e-10
5.00076e-06
6.57573e-10
5.0015e-06
8.71621e-10
5.00231e-06
8.72069e-10
5.00317e-06
8.51253e-10
5.00413e-06
9.49415e-10
5.00514e-06
1.02206e-09
5.00594e-06
8.4791e-10
5.00633e-06
3.60984e-10
5.0062e-06
-2.40274e-10
5.00542e-06
-7.24311e-10
5.00423e-06
-1.07288e-09
5.00277e-06
-1.31009e-09
5.00124e-06
-1.37977e-09
4.99983e-06
-1.39639e-09
4.99863e-06
-1.26027e-09
4.99765e-06
-1.18572e-09
4.99689e-06
-8.9685e-10
-1.37451e-09
5.00006e-06
5.00028e-06
5.0008e-06
5.00155e-06
5.00233e-06
5.00311e-06
5.00399e-06
5.00492e-06
5.00567e-06
5.00596e-06
5.00569e-06
5.00499e-06
5.00397e-06
5.0027e-06
5.00134e-06
4.99995e-06
4.99871e-06
4.99756e-06
4.99669e-06
)
;

boundaryField
{
    sides
    {
        type            calculated;
        value           uniform 0;
    }
    inlet
    {
        type            calculated;
        value           nonuniform List<scalar> 
20
(
-5e-06
-5e-06
-5e-06
-5e-06
-5e-06
-5e-06
-5e-06
-5e-06
-5e-06
-5e-06
-5e-06
-5e-06
-5e-06
-5e-06
-5e-06
-5e-06
-5e-06
-5e-06
-5e-06
-5e-06
)
;
    }
    outlet
    {
        type            calculated;
        value           nonuniform List<scalar> 
20
(
5.00179e-06
5.00132e-06
5.00138e-06
5.00129e-06
5.00161e-06
5.00184e-06
5.00265e-06
5.00409e-06
5.00331e-06
4.995e-06
4.99462e-06
5.00251e-06
5.0026e-06
5.00047e-06
4.99919e-06
4.99821e-06
4.99734e-06
4.99665e-06
4.99609e-06
4.99533e-06
)
;
    }
    frontAndBack
    {
        type            empty;
        value           nonuniform List<scalar> 0();
    }
}


// ************************************************************************* //
