/*--------------------------------*- C++ -*----------------------------------*\
  =========                 |
  \\      /  F ield         | OpenFOAM: The Open Source CFD Toolbox
   \\    /   O peration     | Website:  https://openfoam.org
    \\  /    A nd           | Version:  9
     \\/     M anipulation  |
\*---------------------------------------------------------------------------*/
FoamFile
{
    format      ascii;
    class       volVectorField;
    location    "28";
    object      U;
}
// * * * * * * * * * * * * * * * * * * * * * * * * * * * * * * * * * * * * * //

dimensions      [0 1 -1 0 0 0 0];

internalField   nonuniform List<vector> 
400
(
(0.0999983 -2.46358e-06 0)
(0.0999986 -7.1193e-06 0)
(0.100004 -1.28303e-05 0)
(0.100019 -1.70508e-05 0)
(0.100036 -1.86972e-05 0)
(0.100053 -2.00177e-05 0)
(0.100072 -2.26131e-05 0)
(0.100093 -2.51542e-05 0)
(0.100114 -2.48098e-05 0)
(0.100131 -2.09985e-05 0)
(0.100139 -1.50341e-05 0)
(0.100137 -1.13047e-05 0)
(0.100125 -9.33979e-06 0)
(0.100108 -9.77019e-06 0)
(0.100085 -1.06341e-05 0)
(0.100063 -1.33276e-05 0)
(0.10004 -1.44791e-05 0)
(0.100026 -1.89479e-05 0)
(0.100018 -1.8056e-05 0)
(0.100031 -2.67066e-05 0)
(0.0999989 -2.77291e-06 0)
(0.0999997 -7.83186e-06 0)
(0.100007 -1.62166e-05 0)
(0.100022 -2.2001e-05 0)
(0.10004 -2.15334e-05 0)
(0.100059 -1.96764e-05 0)
(0.10008 -2.11757e-05 0)
(0.100104 -2.29069e-05 0)
(0.100128 -1.79992e-05 0)
(0.100148 -4.65838e-06 0)
(0.100157 1.29786e-05 0)
(0.100153 2.86568e-05 0)
(0.100139 3.97936e-05 0)
(0.100117 4.56778e-05 0)
(0.100091 4.83837e-05 0)
(0.100065 4.53031e-05 0)
(0.100044 4.12195e-05 0)
(0.100031 2.83785e-05 0)
(0.100028 1.69792e-05 0)
(0.100027 4.57954e-06 0)
(0.0999987 -5.09893e-06 0)
(0.1 -1.53926e-05 0)
(0.100007 -3.11887e-05 0)
(0.100023 -4.37809e-05 0)
(0.100041 -4.73021e-05 0)
(0.100062 -4.85908e-05 0)
(0.100087 -5.47956e-05 0)
(0.100115 -6.08762e-05 0)
(0.100143 -5.57137e-05 0)
(0.100166 -3.54869e-05 0)
(0.100179 -6.39417e-06 0)
(0.100177 2.15874e-05 0)
(0.100159 4.0984e-05 0)
(0.10013 4.8603e-05 0)
(0.100094 4.64055e-05 0)
(0.100059 3.53706e-05 0)
(0.100031 2.50995e-05 0)
(0.100017 8.80224e-06 0)
(0.100014 -3.28714e-06 0)
(0.100027 -1.53095e-05 0)
(0.0999981 -6.63469e-06 0)
(0.0999999 -2.10081e-05 0)
(0.100008 -4.27396e-05 0)
(0.100023 -6.06258e-05 0)
(0.100043 -6.74244e-05 0)
(0.100068 -7.19324e-05 0)
(0.100099 -8.20963e-05 0)
(0.100135 -9.04937e-05 0)
(0.100173 -8.12922e-05 0)
(0.100207 -4.86846e-05 0)
(0.100228 3.3478e-06 0)
(0.100224 5.53272e-05 0)
(0.100195 9.41922e-05 0)
(0.100147 0.00010938 0)
(0.100095 0.00010068 0)
(0.100054 7.41721e-05 0)
(0.100036 4.8385e-05 0)
(0.100031 2.19147e-05 0)
(0.100037 5.45349e-06 0)
(0.100032 -5.57308e-06 0)
(0.0999972 -7.74551e-06 0)
(0.0999993 -2.57e-05 0)
(0.100007 -5.2776e-05 0)
(0.100021 -7.71624e-05 0)
(0.100042 -9.10268e-05 0)
(0.100071 -0.000103857 0)
(0.10011 -0.000122637 0)
(0.100158 -0.000136272 0)
(0.100211 -0.000124288 0)
(0.100265 -7.97874e-05 0)
(0.100302 -1.24837e-05 0)
(0.100299 6.36431e-05 0)
(0.100252 0.000123178 0)
(0.100169 0.000145873 0)
(0.100081 0.000132072 0)
(0.100022 9.58824e-05 0)
(0.100003 6.42948e-05 0)
(0.100012 3.64088e-05 0)
(0.10003 1.93683e-05 0)
(0.100041 9.80394e-06 0)
(0.0999959 -8.34351e-06 0)
(0.0999976 -2.89245e-05 0)
(0.100004 -6.05405e-05 0)
(0.100015 -9.14942e-05 0)
(0.100033 -0.000115656 0)
(0.100065 -0.000142203 0)
(0.100116 -0.000178624 0)
(0.100183 -0.000208326 0)
(0.100263 -0.000198893 0)
(0.100339 -0.000123256 0)
(0.100395 1.1967e-05 0)
(0.100398 0.000158633 0)
(0.100324 0.000242087 0)
(0.100195 0.000224091 0)
(0.100074 0.000137098 0)
(0.100006 4.87167e-05 0)
(0.100006 7.20854e-06 0)
(0.100032 -3.28049e-06 0)
(0.100062 1.57559e-06 0)
(0.100052 -5.43857e-07 0)
(0.0999945 -7.88356e-06 0)
(0.0999944 -2.9857e-05 0)
(0.0999964 -6.32785e-05 0)
(0.100001 -0.000101788 0)
(0.100013 -0.000137189 0)
(0.100042 -0.000185041 0)
(0.100098 -0.000242224 0)
(0.100192 -0.000310748 0)
(0.100334 -0.000330002 0)
(0.100501 -0.000291524 0)
(0.100613 -6.42011e-05 0)
(0.100572 0.000258961 0)
(0.100368 0.000481275 0)
(0.100105 0.000467372 0)
(0.0999379 0.000296677 0)
(0.0999132 0.000125746 0)
(0.0999863 4.89338e-05 0)
(0.100052 3.74447e-05 0)
(0.100092 5.02736e-05 0)
(0.100064 4.66512e-05 0)
(0.0999927 -6.94058e-06 0)
(0.0999897 -2.53281e-05 0)
(0.0999833 -5.92407e-05 0)
(0.0999772 -9.93237e-05 0)
(0.0999742 -0.000155569 0)
(0.0999969 -0.000226435 0)
(0.100043 -0.000334848 0)
(0.100152 -0.000414985 0)
(0.100319 -0.00044374 0)
(0.100638 -0.000258246 0)
(0.100985 7.62312e-05 0)
(0.100995 0.000429096 0)
(0.100591 0.000470856 0)
(0.100059 0.000274063 0)
(0.0997715 6.96888e-05 0)
(0.0997885 -2.70615e-05 0)
(0.0999612 -2.31683e-05 0)
(0.100087 3.29493e-06 0)
(0.100137 1.7203e-05 0)
(0.100084 5.13627e-06 0)
(0.0999918 -3.02311e-06 0)
(0.0999834 -1.73523e-05 0)
(0.0999663 -3.87747e-05 0)
(0.0999381 -7.49844e-05 0)
(0.0999072 -0.000131728 0)
(0.0998977 -0.000242377 0)
(0.0999519 -0.000464834 0)
(0.100135 -0.000808389 0)
(0.100521 -0.00133345 0)
(0.10104 -0.00149521 0)
(0.101301 0.000384517 0)
(0.100978 0.00187537 0)
(0.100227 0.00157663 0)
(0.0997081 0.000571193 0)
(0.0996343 -3.30839e-05 0)
(0.0998135 -0.00012544 0)
(0.100018 -5.8374e-06 0)
(0.100105 6.63125e-05 0)
(0.100112 6.19558e-05 0)
(0.100053 1.9961e-05 0)
(0.0999727 -9.49046e-07 0)
(0.100009 -4.68106e-06 0)
(0.0999116 -1.40384e-05 0)
(0.0999722 -2.41388e-05 0)
(0.099722 -5.72343e-05 0)
(0.0998399 -0.000110168 0)
(0.0992726 -0.000286255 0)
(0.0996664 -0.000558915 0)
(0.099102 -0.00115439 0)
(0.101981 -0.00141619 0)
(0.106257 3.00789e-05 0)
(0.101248 0.00146703 0)
(0.0989921 0.00130704 0)
(0.0982106 0.000513282 0)
(0.0988455 2.01855e-05 0)
(0.0995966 -7.62445e-05 0)
(0.0999294 -8.95705e-06 0)
(0.0999504 2.63204e-05 0)
(0.0998665 1.53921e-05 0)
(0.0998466 -2.16746e-05 0)
(0.0999734 1.14668e-06 0)
(0.100009 5.2811e-06 0)
(0.0999122 1.4152e-05 0)
(0.0999729 2.29947e-05 0)
(0.0997225 5.45203e-05 0)
(0.09984 0.00010487 0)
(0.0992722 0.000278156 0)
(0.0996657 0.000547121 0)
(0.0991007 0.00113896 0)
(0.101978 0.00139687 0)
(0.106253 -5.31507e-05 0)
(0.101246 -0.00149468 0)
(0.0989927 -0.00133811 0)
(0.0982099 -0.000548637 0)
(0.0988437 -5.98406e-05 0)
(0.099593 2.88424e-05 0)
(0.0999252 -4.58542e-05 0)
(0.099946 -9.99054e-05 0)
(0.0998654 -9.9079e-05 0)
(0.0998418 -9.05806e-05 0)
(0.0999939 3.19191e-06 0)
(0.0999852 1.78629e-05 0)
(0.0999681 3.88562e-05 0)
(0.0999403 7.38167e-05 0)
(0.0999093 0.000128881 0)
(0.0998999 0.000237031 0)
(0.0999537 0.000456646 0)
(0.100137 0.000796261 0)
(0.100521 0.00131702 0)
(0.101043 0.00147396 0)
(0.101303 -0.000409978 0)
(0.100975 -0.00190406 0)
(0.100219 -0.00160727 0)
(0.0997001 -0.000605699 0)
(0.0996275 -1.77365e-06 0)
(0.0998076 8.25678e-05 0)
(0.100009 -4.22008e-05 0)
(0.100091 -0.000131363 0)
(0.100093 -0.000136727 0)
(0.100035 -0.000125228 0)
(0.0999963 7.07139e-06 0)
(0.0999927 2.57339e-05 0)
(0.0999864 5.92616e-05 0)
(0.0999805 9.82118e-05 0)
(0.0999771 0.000152445 0)
(0.099999 0.000220633 0)
(0.100044 0.000325534 0)
(0.100151 0.000401896 0)
(0.100317 0.000426461 0)
(0.100632 0.000237944 0)
(0.100978 -0.000101882 0)
(0.100989 -0.000457576 0)
(0.100585 -0.000499951 0)
(0.100053 -0.000305576 0)
(0.0997638 -0.000104781 0)
(0.0997763 -1.90771e-05 0)
(0.0999452 -3.27246e-05 0)
(0.100064 -7.60025e-05 0)
(0.10011 -9.39466e-05 0)
(0.100054 -0.000106084 0)
(0.0999995 8.08616e-06 0)
(0.0999989 3.01627e-05 0)
(0.100001 6.33036e-05 0)
(0.100005 0.00010079 0)
(0.100017 0.000134438 0)
(0.100045 0.000179852 0)
(0.1001 0.000234588 0)
(0.100194 0.000300283 0)
(0.100336 0.000317408 0)
(0.1005 0.00027512 0)
(0.100611 4.79065e-05 0)
(0.100567 -0.000279265 0)
(0.100358 -0.000505561 0)
(0.100091 -0.000497643 0)
(0.0999199 -0.000333798 0)
(0.0998903 -0.000173033 0)
(0.099962 -0.000104003 0)
(0.100023 -0.000108729 0)
(0.100063 -0.000126883 0)
(0.100022 -0.000149227 0)
(0.100003 8.57647e-06 0)
(0.100004 2.91431e-05 0)
(0.100009 6.05427e-05 0)
(0.100021 9.07115e-05 0)
(0.100038 0.000113499 0)
(0.10007 0.000137909 0)
(0.100119 0.000171877 0)
(0.100185 0.000198327 0)
(0.100262 0.000185269 0)
(0.100336 0.000105175 0)
(0.100388 -3.35828e-05 0)
(0.100387 -0.000183187 0)
(0.10031 -0.000267919 0)
(0.100177 -0.000253015 0)
(0.100053 -0.000167368 0)
(0.09998 -8.40339e-05 0)
(0.0999772 -4.54759e-05 0)
(0.0999942 -4.83197e-05 0)
(0.100021 -5.74893e-05 0)
(0.0999988 -8.1942e-05 0)
(0.100005 7.9355e-06 0)
(0.100007 2.5832e-05 0)
(0.100014 5.28084e-05 0)
(0.100029 7.6656e-05 0)
(0.100048 8.93204e-05 0)
(0.100076 0.000100466 0)
(0.100114 0.000116964 0)
(0.10016 0.000128047 0)
(0.100211 0.000113423 0)
(0.100262 6.63981e-05 0)
(0.100297 -4.37969e-06 0)
(0.100291 -8.34443e-05 0)
(0.100239 -0.000144506 0)
(0.100151 -0.000170027 0)
(0.100061 -0.000158143 0)
(0.0999951 -0.000130426 0)
(0.0999733 -0.000106574 0)
(0.0999715 -9.76389e-05 0)
(0.0999858 -9.02212e-05 0)
(0.0999747 -0.000107728 0)
(0.100008 6.8118e-06 0)
(0.100009 2.09679e-05 0)
(0.100017 4.24154e-05 0)
(0.100032 5.99006e-05 0)
(0.100051 6.61089e-05 0)
(0.100074 6.95876e-05 0)
(0.100104 7.82573e-05 0)
(0.100138 8.47974e-05 0)
(0.100173 7.43307e-05 0)
(0.100203 4.08003e-05 0)
(0.100217 -1.06965e-05 0)
(0.10021 -6.39389e-05 0)
(0.100178 -0.00010337 0)
(0.100125 -0.000121281 0)
(0.100067 -0.000115117 0)
(0.100016 -9.5888e-05 0)
(0.0999893 -7.40637e-05 0)
(0.0999707 -5.95226e-05 0)
(0.0999726 -4.47384e-05 0)
(0.0999541 -5.68221e-05 0)
(0.10001 5.25047e-06 0)
(0.100011 1.54328e-05 0)
(0.100018 3.08328e-05 0)
(0.100033 4.20499e-05 0)
(0.100051 4.35965e-05 0)
(0.10007 4.27423e-05 0)
(0.100094 4.66121e-05 0)
(0.10012 4.93142e-05 0)
(0.100146 4.02505e-05 0)
(0.100167 1.533e-05 0)
(0.100177 -1.72383e-05 0)
(0.100169 -4.76476e-05 0)
(0.100145 -6.83554e-05 0)
(0.100108 -7.93752e-05 0)
(0.100067 -7.95625e-05 0)
(0.100024 -7.48931e-05 0)
(0.0999955 -6.71338e-05 0)
(0.0999664 -6.3068e-05 0)
(0.0999603 -5.33942e-05 0)
(0.0999372 -6.61009e-05 0)
(0.100012 3.79477e-06 0)
(0.100012 1.09298e-05 0)
(0.100018 2.13981e-05 0)
(0.100032 2.94679e-05 0)
(0.100048 3.1262e-05 0)
(0.100065 3.14436e-05 0)
(0.100085 3.46576e-05 0)
(0.100105 3.78895e-05 0)
(0.100125 3.4305e-05 0)
(0.10014 2.19525e-05 0)
(0.100145 4.85374e-06 0)
(0.100137 -1.12619e-05 0)
(0.10012 -2.16278e-05 0)
(0.100091 -2.72808e-05 0)
(0.100059 -2.80286e-05 0)
(0.100021 -2.69185e-05 0)
(0.0999923 -2.26134e-05 0)
(0.0999593 -1.9167e-05 0)
(0.0999493 -9.98474e-06 0)
(0.0999237 -1.8271e-05 0)
(0.100013 -2.09526e-07 0)
(0.100013 -8.48551e-07 0)
(0.100019 -2.33245e-07 0)
(0.100034 1.68073e-07 0)
(0.10005 -1.20927e-06 0)
(0.100066 -3.33966e-06 0)
(0.100083 -4.46517e-06 0)
(0.100102 -5.3535e-06 0)
(0.10012 -7.68644e-06 0)
(0.100133 -1.2431e-05 0)
(0.100137 -1.84563e-05 0)
(0.100128 -2.42735e-05 0)
(0.100112 -2.87447e-05 0)
(0.100086 -3.26938e-05 0)
(0.10006 -3.45187e-05 0)
(0.100024 -3.62118e-05 0)
(0.0999982 -3.50129e-05 0)
(0.0999602 -3.59915e-05 0)
(0.0999506 -3.19211e-05 0)
(0.0999124 -4.03763e-05 0)
)
;

boundaryField
{
    sides
    {
        type            calculated;
        value           nonuniform List<vector> 
40
(
(0.100013 0 0)
(0.100013 0 0)
(0.100019 0 0)
(0.100034 0 0)
(0.10005 0 0)
(0.100066 0 0)
(0.100083 0 0)
(0.100102 0 0)
(0.10012 0 0)
(0.100133 0 0)
(0.100137 0 0)
(0.100128 0 0)
(0.100112 0 0)
(0.100086 0 0)
(0.10006 0 0)
(0.100024 0 0)
(0.0999982 0 0)
(0.0999602 0 0)
(0.0999506 0 0)
(0.0999124 0 0)
(0.0999983 0 0)
(0.0999986 0 0)
(0.100004 0 0)
(0.100019 0 0)
(0.100036 0 0)
(0.100053 0 0)
(0.100072 0 0)
(0.100093 0 0)
(0.100114 0 0)
(0.100131 0 0)
(0.100139 0 0)
(0.100137 0 0)
(0.100125 0 0)
(0.100108 0 0)
(0.100085 0 0)
(0.100063 0 0)
(0.10004 0 0)
(0.100026 0 0)
(0.100018 0 0)
(0.100031 0 0)
)
;
    }
    inlet
    {
        type            calculated;
        value           nonuniform List<vector> 
20
(
(0.0999978 0 0)
(0.0999981 0 0)
(0.0999979 0 0)
(0.0999972 0 0)
(0.0999962 0 0)
(0.0999949 0 0)
(0.0999934 0 0)
(0.0999921 0 0)
(0.0999912 0 0)
(0.0999913 0 0)
(0.099992 0 0)
(0.0999933 0 0)
(0.0999957 0 0)
(0.0999985 0 0)
(0.100002 0 0)
(0.100004 0 0)
(0.100007 0 0)
(0.100009 0 0)
(0.100011 0 0)
(0.100013 0 0)
)
;
    }
    outlet
    {
        type            calculated;
        value           nonuniform List<vector> 
20
(
(0.100031 -2.67068e-05 0)
(0.100027 4.57955e-06 0)
(0.100028 -1.53096e-05 0)
(0.100032 -5.57307e-06 0)
(0.100041 9.80394e-06 0)
(0.100052 -5.43852e-07 0)
(0.100063 4.66506e-05 0)
(0.100082 5.13618e-06 0)
(0.100051 1.99607e-05 0)
(0.0998479 -2.16749e-05 0)
(0.0998429 -9.05816e-05 0)
(0.100034 -0.000125226 0)
(0.100052 -0.000106082 0)
(0.100021 -0.000149224 0)
(0.0999976 -8.1941e-05 0)
(0.0999741 -0.000107728 0)
(0.0999535 -5.68217e-05 0)
(0.0999366 -6.61005e-05 0)
(0.0999231 -1.82709e-05 0)
(0.0999113 -4.03759e-05 0)
)
;
    }
    frontAndBack
    {
        type            empty;
    }
}


// ************************************************************************* //
