2.80937e-05    56.7362
8.78022e-05    340.825
0.000154994    855.152
0.000230608    978.773
0.000315699    846.348
0.000411455    682.327
0.000519212    545.727
0.000640475     440.65
0.000776937    360.565
0.000930502    298.841
0.00110331    250.473
0.00129779    211.928
0.00151663    180.731
0.00176291    155.132
0.00204005    133.872
0.00235193    116.029
 0.0027029    100.916
0.00309785    88.0137
0.00354231     76.921
0.00404248    67.3258
0.00460533     58.981
0.00523873    51.6892
0.00595151    45.2908
0.00675364    39.6552
 0.0076563    34.6749
0.00867209    30.2601
 0.0098152    26.3358
 0.0111016    22.8383
 0.0125492    19.7135
 0.0141782    16.9152
 0.0160115     14.404
 0.0180745    12.1464
  0.020396     10.115
 0.0230086     8.2887
 0.0259485    6.65405
  0.029257    5.20838
 0.0329801    3.96368
 0.0371699    2.95023
 0.0418848    2.21446
 0.0471906    1.81069
 0.0528094    1.81444
 0.0581152    2.22534
 0.0628301    2.96722
 0.0670199    3.98539
  0.070743    5.23352
 0.0740515    6.68167
 0.0769914    8.31816
  0.079604    10.1459
 0.0819255    12.1784
 0.0839885    14.4368
 0.0858218    16.9486
 0.0874508    19.7471
 0.0888984    22.8717
 0.0901848    26.3685
 0.0913279    30.2916
 0.0923437    34.7044
 0.0932464    39.6821
 0.0940485     45.314
 0.0947613    51.7077
 0.0953947    58.9934
 0.0959575    67.3307
 0.0964577    76.9167
 0.0969021     87.998
 0.0972971    100.887
 0.0976481    115.983
   0.09796    133.806
 0.0982371    155.043
 0.0984834    180.613
 0.0987022    211.776
 0.0988967     250.28
 0.0990695    298.598
 0.0992231    360.261
 0.0993595    440.268
 0.0994808    545.249
 0.0995885    681.722
 0.0996843    845.572
 0.0997694    977.776
  0.099845    854.056
 0.0999122    340.331
 0.0999719    56.6593
