2.80937e-05    22597.5
8.78022e-05    19855.5
0.000154994    14133.9
0.000230608    8861.32
0.000315699    5725.25
0.000411455    3938.51
0.000519212     2864.1
0.000640475    2179.43
0.000776937    1717.59
0.000930502    1390.19
0.00110331    1148.28
0.00129779    963.418
0.00151663     818.26
0.00176291    701.739
0.00204005    606.515
0.00235193    527.547
 0.0027029    461.264
0.00309785    405.066
0.00354231    357.016
0.00404248    315.638
0.00460533    279.787
0.00523873    248.561
0.00595151    221.237
0.00675364    197.227
 0.0076563    176.048
0.00867209    157.299
 0.0098152    140.639
 0.0111016    125.779
 0.0125492    112.466
 0.0141782    100.476
 0.0160115    89.6011
 0.0180745    79.6463
  0.020396    70.4127
 0.0230086    61.6858
 0.0259485    53.2183
  0.029257    44.7167
 0.0329801    35.8548
 0.0371699    26.3666
 0.0418848    16.2012
 0.0471906    5.42799
 0.0528094    5.63675
 0.0581152    16.3981
 0.0628301     26.537
 0.0670199    35.9907
  0.070743    44.8197
 0.0740515     53.295
 0.0769914    61.7423
  0.079604    70.4536
 0.0819255    79.6744
 0.0839885     89.618
 0.0858218    100.482
 0.0874508    112.462
 0.0888984    125.764
 0.0901848    140.611
 0.0913279    157.257
 0.0923437     175.99
 0.0932464    197.151
 0.0940485    221.139
 0.0947613    248.439
 0.0953947    279.637
 0.0959575    315.455
 0.0964577    356.795
 0.0969021    404.801
 0.0972971    460.948
 0.0976481    527.172
   0.09796    606.073
 0.0982371    701.219
 0.0984834    817.651
 0.0987022    962.707
 0.0988967    1147.45
 0.0990695    1389.23
 0.0992231    1716.49
 0.0993595    2178.16
 0.0994808    2862.66
 0.0995885     3936.9
 0.0996843    5723.41
 0.0997694    8858.97
  0.099845    14129.5
 0.0999122    19846.8
 0.0999719    22585.7
