2.80937e-05  0.0083434
8.78022e-05   0.159415
0.000154994   0.486139
0.000230608   0.671557
0.000315699   0.742722
0.000411455   0.767927
0.000519212   0.775358
0.000640475   0.775989
0.000776937   0.774088
0.000930502    0.77133
0.00110331   0.768344
0.00129779   0.765323
0.00151663   0.762264
0.00176291   0.759084
0.00204005   0.755662
0.00235193   0.751864
 0.0027029    0.74755
0.00309785   0.742578
0.00354231   0.736811
0.00404248   0.730108
0.00460533   0.722328
0.00523873    0.71333
0.00595151   0.702966
0.00675364   0.691084
 0.0076563   0.677522
0.00867209    0.66211
 0.0098152   0.644666
 0.0111016   0.624995
 0.0125492   0.602891
 0.0141782   0.578138
 0.0160115   0.550521
 0.0180745   0.519838
  0.020396   0.485939
 0.0230086   0.448794
 0.0259485    0.40862
  0.029257   0.366121
 0.0329801   0.322889
 0.0371699   0.281953
 0.0418848   0.248145
 0.0471906   0.227768
 0.0528094    0.22803
 0.0581152    0.24887
 0.0628301    0.28301
 0.0670199   0.324145
  0.070743   0.367472
 0.0740515   0.410002
 0.0769914   0.450166
  0.079604   0.487279
 0.0819255   0.521132
 0.0839885   0.551761
 0.0858218   0.579319
 0.0874508   0.604009
 0.0888984   0.626047
 0.0901848    0.64565
 0.0913279   0.663024
 0.0923437   0.678365
 0.0932464   0.691855
 0.0940485   0.703665
 0.0947613   0.713955
 0.0953947    0.72288
 0.0959575   0.730587
 0.0964577   0.737217
 0.0969021   0.742913
 0.0972971   0.747813
 0.0976481   0.752059
   0.09796   0.755789
 0.0982371   0.759145
 0.0984834   0.762261
 0.0987022   0.765258
 0.0988967   0.768221
 0.0990695   0.771151
 0.0992231   0.773857
 0.0993595    0.77571
 0.0994808   0.775036
 0.0995885   0.767566
 0.0996843   0.742327
 0.0997694   0.671138
  0.099845   0.485736
 0.0999122    0.15924
 0.0999719 0.00833415
