2.80937e-05 -8.46735e-05
8.78022e-05 -0.0101493
0.000154994 -0.0858073
0.000230608  -0.146322
0.000315699   -0.17696
0.000411455  -0.194037
0.000519212  -0.203868
0.000640475  -0.210012
0.000776937  -0.214178
0.000930502  -0.217198
0.00110331  -0.219489
0.00129779   -0.22126
0.00151663   -0.22262
0.00176291  -0.223621
0.00204005  -0.224283
0.00235193  -0.224609
 0.0027029  -0.224587
0.00309785  -0.224201
0.00354231  -0.223426
0.00404248  -0.222236
0.00460533  -0.220598
0.00523873  -0.218478
0.00595151  -0.215836
0.00675364  -0.212629
 0.0076563  -0.208809
0.00867209  -0.204321
 0.0098152  -0.199103
 0.0111016  -0.193085
 0.0125492  -0.186187
 0.0141782  -0.178316
 0.0160115  -0.169366
 0.0180745  -0.159214
  0.020396   -0.14772
 0.0230086  -0.134721
 0.0259485  -0.120031
  0.029257  -0.103448
 0.0329801 -0.0847785
 0.0371699 -0.0638711
 0.0418848 -0.0405018
 0.0471906 -0.0139826
 0.0528094  0.0145237
 0.0581152  0.0410321
 0.0628301  0.0643963
 0.0670199  0.0852961
  0.070743   0.103952
 0.0740515   0.120519
 0.0769914   0.135191
  0.079604   0.148171
 0.0819255   0.159645
 0.0839885   0.169776
 0.0858218   0.178706
 0.0874508   0.186555
 0.0888984   0.193432
 0.0901848   0.199427
 0.0913279   0.204621
 0.0923437   0.209085
 0.0932464   0.212881
 0.0940485   0.216063
 0.0947613    0.21868
 0.0953947   0.220775
 0.0959575   0.222388
 0.0964577   0.223554
 0.0969021   0.224304
 0.0972971   0.224666
 0.0976481   0.224665
   0.09796   0.224317
 0.0982371   0.223633
 0.0984834   0.222612
 0.0987022   0.221234
 0.0988967   0.219446
 0.0990695   0.217141
 0.0992231   0.214108
 0.0993595   0.209932
 0.0994808    0.20378
 0.0995885   0.193941
 0.0996843   0.176858
 0.0997694   0.146221
  0.099845  0.0857161
 0.0999122  0.0101322
 0.0999719 8.4555e-05
