2.80937e-05 0.00556227
8.78022e-05   0.106277
0.000154994   0.324093
0.000230608   0.447704
0.000315699   0.495148
0.000411455   0.511951
0.000519212   0.516905
0.000640475   0.517326
0.000776937   0.516059
0.000930502    0.51422
0.00110331    0.51223
0.00129779   0.510215
0.00151663   0.508176
0.00176291   0.506056
0.00204005   0.503775
0.00235193   0.501243
 0.0027029   0.498366
0.00309785   0.495052
0.00354231   0.491207
0.00404248   0.486738
0.00460533   0.481552
0.00523873   0.475553
0.00595151   0.468644
0.00675364   0.460723
 0.0076563   0.451681
0.00867209   0.441407
 0.0098152   0.429777
 0.0111016   0.416663
 0.0125492   0.401927
 0.0141782   0.385426
 0.0160115   0.367014
 0.0180745   0.346558
  0.020396   0.323959
 0.0230086   0.299196
 0.0259485   0.272413
  0.029257    0.24408
 0.0329801    0.21526
 0.0371699   0.187969
 0.0418848    0.16543
 0.0471906   0.151845
 0.0528094    0.15202
 0.0581152   0.165914
 0.0628301   0.188674
 0.0670199   0.216097
  0.070743   0.244982
 0.0740515   0.273334
 0.0769914   0.300111
  0.079604   0.324853
 0.0819255   0.347421
 0.0839885   0.367841
 0.0858218   0.386213
 0.0874508   0.402673
 0.0888984   0.417365
 0.0901848   0.430433
 0.0913279   0.442016
 0.0923437   0.452243
 0.0932464   0.461237
 0.0940485    0.46911
 0.0947613    0.47597
 0.0953947    0.48192
 0.0959575   0.487058
 0.0964577   0.491478
 0.0969021   0.495275
 0.0972971   0.498542
 0.0976481   0.501372
   0.09796   0.503859
 0.0982371   0.506096
 0.0984834   0.508174
 0.0987022   0.510172
 0.0988967   0.512147
 0.0990695   0.514101
 0.0992231   0.515905
 0.0993595    0.51714
 0.0994808   0.516691
 0.0995885   0.511711
 0.0996843   0.494885
 0.0997694   0.447425
  0.099845   0.323824
 0.0999122    0.10616
 0.0999719  0.0055561
