2.80937e-05  0.0745806
8.78022e-05   0.326001
0.000154994   0.569291
0.000230608   0.669107
0.000315699   0.703668
0.000411455   0.715508
0.000519212   0.718961
0.000640475   0.719254
0.000776937   0.718372
0.000930502   0.717091
0.00110331   0.715702
0.00129779   0.714293
0.00151663   0.712865
0.00176291   0.711376
0.00204005   0.709771
0.00235193   0.707985
 0.0027029   0.705951
0.00309785   0.703599
0.00354231   0.700862
0.00404248   0.697666
0.00460533    0.69394
0.00523873   0.689604
0.00595151   0.684576
0.00675364   0.678765
 0.0076563   0.672072
0.00867209   0.664385
 0.0098152   0.655574
 0.0111016   0.645495
 0.0125492   0.633977
 0.0141782   0.620827
 0.0160115   0.605817
 0.0180745   0.588692
  0.020396   0.569174
 0.0230086   0.546988
 0.0259485   0.521932
  0.029257   0.494045
 0.0329801   0.463961
 0.0371699   0.433554
 0.0418848   0.406731
 0.0471906   0.389673
 0.0528094   0.389897
 0.0581152   0.407325
 0.0628301   0.434366
 0.0670199   0.464862
  0.070743   0.494956
 0.0740515   0.522814
 0.0769914   0.547824
  0.079604   0.569959
 0.0819255   0.589425
 0.0839885   0.606499
 0.0858218    0.62146
 0.0874508   0.634565
 0.0888984   0.646038
 0.0901848   0.656074
 0.0913279   0.664843
 0.0923437    0.67249
 0.0932464   0.679144
 0.0940485   0.684916
 0.0947613   0.689906
 0.0953947   0.694205
 0.0959575   0.697895
 0.0964577   0.701055
 0.0969021   0.703758
 0.0972971   0.706075
 0.0976481   0.708077
   0.09796    0.70983
 0.0982371   0.711405
 0.0984834   0.712863
 0.0987022   0.714263
 0.0988967   0.715645
 0.0990695   0.717008
 0.0992231   0.718265
 0.0993595   0.719125
 0.0994808   0.718812
 0.0995885    0.71534
 0.0996843   0.703481
 0.0997694   0.668898
  0.099845   0.569055
 0.0999122   0.325822
 0.0999719  0.0745392
