2.80937e-05   0.642757
8.78022e-05    1.97521
0.000154994    3.14402
0.000230608    3.96614
0.000315699    4.54901
0.000411455    4.98954
0.000519212     5.3426
0.000640475    5.63991
0.000776937    5.90016
0.000930502    6.13481
0.00110331    6.35123
0.00129779    6.55431
0.00151663    6.74746
0.00176291    6.93313
0.00204005    7.11315
0.00235193    7.28889
 0.0027029    7.46143
0.00309785    7.63162
0.00354231    7.80016
0.00404248    7.96763
0.00460533    8.13449
0.00523873    8.30115
0.00595151    8.46794
0.00675364    8.63516
 0.0076563    8.80304
0.00867209    8.97178
 0.0098152    9.14151
 0.0111016    9.31233
 0.0125492    9.48426
 0.0141782    9.65721
 0.0160115    9.83097
 0.0180745    10.0051
  0.020396     10.179
 0.0230086    10.3513
 0.0259485    10.5201
  0.029257    10.6822
 0.0329801    10.8327
 0.0371699    10.9638
 0.0418848    11.0649
 0.0471906    11.1231
 0.0528094    11.1225
 0.0581152    11.0632
 0.0628301    10.9613
 0.0670199    10.8295
  0.070743    10.6786
 0.0740515    10.5161
 0.0769914    10.3471
  0.079604    10.1747
 0.0819255    10.0008
 0.0839885    9.82659
 0.0858218     9.6528
 0.0874508    9.47985
 0.0888984    9.30794
 0.0901848    9.13714
 0.0913279    8.96745
 0.0923437    8.79876
 0.0932464    8.63094
 0.0940485    8.46379
 0.0947613    8.29708
 0.0953947     8.1305
 0.0959575    7.96373
 0.0964577    7.79637
 0.0969021    7.62793
 0.0972971    7.45785
 0.0976481    7.28543
   0.09796    7.10982
 0.0982371    6.92994
 0.0984834     6.7444
 0.0987022    6.55139
 0.0988967    6.34847
 0.0990695    6.13221
 0.0992231    5.89771
 0.0993595    5.63762
 0.0994808    5.34048
 0.0995885    4.98758
 0.0996843    4.54721
 0.0997694    3.96452
  0.099845     3.1426
 0.0999122    1.97419
 0.0999719   0.642411
