# vtk DataFile Version 2.0
track0
ASCII
DATASET POLYDATA
POINTS 1720 float
-1.001 -0.05 0.0011
-1.0008 -0.05 0.0011
-1.0006 -0.05 0.0011
-1.0004 -0.05 0.0011
-1.0002 -0.05 0.0011
-1 -0.05 0.0011
-0.8 -0.05 0.0011
-0.6 -0.05 0.0011
-0.4 -0.05 0.0011
-0.2 -0.05 0.0011
0 -0.05 0.0011
0.2 -0.05 0.0011
0.4 -0.05 0.0011
0.6 -0.05 0.0011
0.8 -0.05 0.0011
1 -0.05 0.0011
1.2 -0.05 0.0011
1.4 -0.05 0.0011
1.6 -0.05 0.0011
1.8 -0.05 0.0011
2 -0.05 0.0011
2.2 -0.05 0.0011
2.4 -0.05 0.0011
2.6 -0.05 0.0011
2.8 -0.05 0.0011
3 -0.05 0.0011
3.2 -0.05 0.0011
3.4 -0.05 0.0011
3.6 -0.05 0.0011
3.8 -0.05 0.0011
4 -0.05 0.0011
4.2 -0.05 0.0011
4.4 -0.05 0.0011
4.6 -0.05 0.0011
4.8 -0.05 0.0011
5 -0.05 0.0011
5.2 -0.05 0.0011
5.4 -0.05 0.0011
5.6 -0.05 0.0011
5.8 -0.05 0.0011
6 -0.05 0.0011
6.2 -0.05 0.0011
6.4 -0.05 0.0011
6.6 -0.05 0.0011
6.8 -0.05 0.0011
7 -0.05 0.0011
7.2 -0.05 0.0011
7.4 -0.05 0.0011
7.6 -0.05 0.0011
7.8 -0.05 0.0011
8 -0.05 0.0011
8.2 -0.05 0.0011
8.4 -0.05 0.0011
8.6 -0.05 0.0011
8.8 -0.05 0.0011
9 -0.05 0.0011
9.2 -0.05 0.0011
9.4 -0.05 0.0011
9.6 -0.05 0.0011
9.8 -0.05 0.0011
10 -0.05 0.0011
10.2 -0.05 0.0011
10.4 -0.05 0.0011
10.6 -0.05 0.0011
10.8 -0.05 0.0011
11 -0.05 0.0011
11.2 -0.05 0.0011
11.4 -0.05 0.0011
11.6 -0.05 0.0011
11.8 -0.05 0.0011
12 -0.05 0.0011
12.2 -0.05 0.0011
12.4 -0.05 0.0011
12.6 -0.05 0.0011
12.8 -0.05 0.0011
13 -0.05 0.0011
13.2 -0.05 0.0011
13.4 -0.05 0.0011
13.6 -0.05 0.0011
13.8 -0.05 0.0011
14 -0.05 0.0011
14.2 -0.05 0.0011
14.4 -0.05 0.0011
14.6 -0.05 0.0011
14.8 -0.05 0.0011
15 -0.05 0.0011
-1.001 -0.05 0.0537316
-1.0008 -0.05 0.0537316
-1.0006 -0.05 0.0537316
-1.0004 -0.05 0.0537316
-1.0002 -0.05 0.0537316
-1 -0.05 0.0537316
-0.8 -0.05 0.0537316
-0.6 -0.05 0.0537316
-0.4 -0.05 0.0537316
-0.2 -0.05 0.0537316
0 -0.05 0.0537316
0.2 -0.05 0.0537316
0.4 -0.05 0.0537316
0.6 -0.05 0.0537316
0.8 -0.05 0.0537316
1 -0.05 0.0537316
1.2 -0.05 0.0537316
1.4 -0.05 0.0537316
1.6 -0.05 0.0537316
1.8 -0.05 0.0537316
2 -0.05 0.0537316
2.2 -0.05 0.0537316
2.4 -0.05 0.0537316
2.6 -0.05 0.0537316
2.8 -0.05 0.0537316
3 -0.05 0.0537316
3.2 -0.05 0.0537316
3.4 -0.05 0.0537316
3.6 -0.05 0.0537316
3.8 -0.05 0.0537316
4 -0.05 0.0537316
4.2 -0.05 0.0537316
4.4 -0.05 0.0537316
4.6 -0.05 0.0537316
4.8 -0.05 0.0537316
5 -0.05 0.0537316
5.2 -0.05 0.0537316
5.4 -0.05 0.0537316
5.6 -0.05 0.0537316
5.8 -0.05 0.0537316
6 -0.05 0.0537316
6.2 -0.05 0.0537316
6.4 -0.05 0.0537316
6.6 -0.05 0.0537316
6.8 -0.05 0.0537316
7 -0.05 0.0537316
7.2 -0.05 0.0537316
7.4 -0.05 0.0537316
7.6 -0.05 0.0537316
7.8 -0.05 0.0537316
8 -0.05 0.0537316
8.2 -0.05 0.0537316
8.4 -0.05 0.0537316
8.6 -0.05 0.0537316
8.8 -0.05 0.0537316
9 -0.05 0.0537316
9.2 -0.05 0.0537316
9.4 -0.05 0.0537316
9.6 -0.05 0.0537316
9.8 -0.05 0.0537316
10 -0.05 0.0537316
10.2 -0.05 0.0537316
10.4 -0.05 0.0537316
10.6 -0.05 0.0537316
10.8 -0.05 0.0537316
11 -0.05 0.0537316
11.2 -0.05 0.0537316
11.4 -0.05 0.0537316
11.6 -0.05 0.0537316
11.8 -0.05 0.0537316
12 -0.05 0.0537316
12.2 -0.05 0.0537316
12.4 -0.05 0.0537316
12.6 -0.05 0.0537316
12.8 -0.05 0.0537316
13 -0.05 0.0537316
13.2 -0.05 0.0537316
13.4 -0.05 0.0537316
13.6 -0.05 0.0537316
13.8 -0.05 0.0537316
14 -0.05 0.0537316
14.2 -0.05 0.0537316
14.4 -0.05 0.0537316
14.6 -0.05 0.0537316
14.8 -0.05 0.0537316
15 -0.05 0.0537316
-1.001 -0.05 0.106363
-1.0008 -0.05 0.106363
-1.0006 -0.05 0.106363
-1.0004 -0.05 0.106363
-1.0002 -0.05 0.106363
-1 -0.05 0.106363
-0.8 -0.05 0.106363
-0.6 -0.05 0.106363
-0.4 -0.05 0.106363
-0.2 -0.05 0.106363
0 -0.05 0.106363
0.2 -0.05 0.106363
0.4 -0.05 0.106363
0.6 -0.05 0.106363
0.8 -0.05 0.106363
1 -0.05 0.106363
1.2 -0.05 0.106363
1.4 -0.05 0.106363
1.6 -0.05 0.106363
1.8 -0.05 0.106363
2 -0.05 0.106363
2.2 -0.05 0.106363
2.4 -0.05 0.106363
2.6 -0.05 0.106363
2.8 -0.05 0.106363
3 -0.05 0.106363
3.2 -0.05 0.106363
3.4 -0.05 0.106363
3.6 -0.05 0.106363
3.8 -0.05 0.106363
4 -0.05 0.106363
4.2 -0.05 0.106363
4.4 -0.05 0.106363
4.6 -0.05 0.106363
4.8 -0.05 0.106363
5 -0.05 0.106363
5.2 -0.05 0.106363
5.4 -0.05 0.106363
5.6 -0.05 0.106363
5.8 -0.05 0.106363
6 -0.05 0.106363
6.2 -0.05 0.106363
6.4 -0.05 0.106363
6.6 -0.05 0.106363
6.8 -0.05 0.106363
7 -0.05 0.106363
7.2 -0.05 0.106363
7.4 -0.05 0.106363
7.6 -0.05 0.106363
7.8 -0.05 0.106363
8 -0.05 0.106363
8.2 -0.05 0.106363
8.4 -0.05 0.106363
8.6 -0.05 0.106363
8.8 -0.05 0.106363
9 -0.05 0.106363
9.2 -0.05 0.106363
9.4 -0.05 0.106363
9.6 -0.05 0.106363
9.8 -0.05 0.106363
10 -0.05 0.106363
10.2 -0.05 0.106363
10.4 -0.05 0.106363
10.6 -0.05 0.106363
10.8 -0.05 0.106363
11 -0.05 0.106363
11.2 -0.05 0.106363
11.4 -0.05 0.106363
11.6 -0.05 0.106363
11.8 -0.05 0.106363
12 -0.05 0.106363
12.2 -0.05 0.106363
12.4 -0.05 0.106363
12.6 -0.05 0.106363
12.8 -0.05 0.106363
13 -0.05 0.106363
13.2 -0.05 0.106363
13.4 -0.05 0.106363
13.6 -0.05 0.106363
13.8 -0.05 0.106363
14 -0.05 0.106363
14.2 -0.05 0.106363
14.4 -0.05 0.106363
14.6 -0.05 0.106363
14.8 -0.05 0.106363
15 -0.05 0.106363
-1.001 -0.05 0.158995
-1.0008 -0.05 0.158995
-1.0006 -0.05 0.158995
-1.0004 -0.05 0.158995
-1.0002 -0.05 0.158995
-1 -0.05 0.158995
-0.8 -0.05 0.158995
-0.6 -0.05 0.158995
-0.4 -0.05 0.158995
-0.2 -0.05 0.158995
0 -0.05 0.158995
0.2 -0.05 0.158995
0.4 -0.05 0.158995
0.6 -0.05 0.158995
0.8 -0.05 0.158995
1 -0.05 0.158995
1.2 -0.05 0.158995
1.4 -0.05 0.158995
1.6 -0.05 0.158995
1.8 -0.05 0.158995
2 -0.05 0.158995
2.2 -0.05 0.158995
2.4 -0.05 0.158995
2.6 -0.05 0.158995
2.8 -0.05 0.158995
3 -0.05 0.158995
3.2 -0.05 0.158995
3.4 -0.05 0.158995
3.6 -0.05 0.158995
3.8 -0.05 0.158995
4 -0.05 0.158995
4.2 -0.05 0.158995
4.4 -0.05 0.158995
4.6 -0.05 0.158995
4.8 -0.05 0.158995
5 -0.05 0.158995
5.2 -0.05 0.158995
5.4 -0.05 0.158995
5.6 -0.05 0.158995
5.8 -0.05 0.158995
6 -0.05 0.158995
6.2 -0.05 0.158995
6.4 -0.05 0.158995
6.6 -0.05 0.158995
6.8 -0.05 0.158995
7 -0.05 0.158995
7.2 -0.05 0.158995
7.4 -0.05 0.158995
7.6 -0.05 0.158995
7.8 -0.05 0.158995
8 -0.05 0.158995
8.2 -0.05 0.158995
8.4 -0.05 0.158995
8.6 -0.05 0.158995
8.8 -0.05 0.158995
9 -0.05 0.158995
9.2 -0.05 0.158995
9.4 -0.05 0.158995
9.6 -0.05 0.158995
9.8 -0.05 0.158995
10 -0.05 0.158995
10.2 -0.05 0.158995
10.4 -0.05 0.158995
10.6 -0.05 0.158995
10.8 -0.05 0.158995
11 -0.05 0.158995
11.2 -0.05 0.158995
11.4 -0.05 0.158995
11.6 -0.05 0.158995
11.8 -0.05 0.158995
12 -0.05 0.158995
12.2 -0.05 0.158995
12.4 -0.05 0.158995
12.6 -0.05 0.158995
12.8 -0.05 0.158995
13 -0.05 0.158995
13.2 -0.05 0.158995
13.4 -0.05 0.158995
13.6 -0.05 0.158995
13.8 -0.05 0.158995
14 -0.05 0.158995
14.2 -0.05 0.158995
14.4 -0.05 0.158995
14.6 -0.05 0.158995
14.8 -0.05 0.158995
15 -0.05 0.158995
-1.001 -0.05 0.211626
-1.0008 -0.05 0.211626
-1.0006 -0.05 0.211626
-1.0004 -0.05 0.211626
-1.0002 -0.05 0.211626
-1 -0.05 0.211626
-0.8 -0.05 0.211626
-0.6 -0.05 0.211626
-0.4 -0.05 0.211626
-0.2 -0.05 0.211626
0 -0.05 0.211626
0.2 -0.05 0.211626
0.4 -0.05 0.211626
0.6 -0.05 0.211626
0.8 -0.05 0.211626
1 -0.05 0.211626
1.2 -0.05 0.211626
1.4 -0.05 0.211626
1.6 -0.05 0.211626
1.8 -0.05 0.211626
2 -0.05 0.211626
2.2 -0.05 0.211626
2.4 -0.05 0.211626
2.6 -0.05 0.211626
2.8 -0.05 0.211626
3 -0.05 0.211626
3.2 -0.05 0.211626
3.4 -0.05 0.211626
3.6 -0.05 0.211626
3.8 -0.05 0.211626
4 -0.05 0.211626
4.2 -0.05 0.211626
4.4 -0.05 0.211626
4.6 -0.05 0.211626
4.8 -0.05 0.211626
5 -0.05 0.211626
5.2 -0.05 0.211626
5.4 -0.05 0.211626
5.6 -0.05 0.211626
5.8 -0.05 0.211626
6 -0.05 0.211626
6.2 -0.05 0.211626
6.4 -0.05 0.211626
6.6 -0.05 0.211626
6.8 -0.05 0.211626
7 -0.05 0.211626
7.2 -0.05 0.211626
7.4 -0.05 0.211626
7.6 -0.05 0.211626
7.8 -0.05 0.211626
8 -0.05 0.211626
8.2 -0.05 0.211626
8.4 -0.05 0.211626
8.6 -0.05 0.211626
8.8 -0.05 0.211626
9 -0.05 0.211626
9.2 -0.05 0.211626
9.4 -0.05 0.211626
9.6 -0.05 0.211626
9.8 -0.05 0.211626
10 -0.05 0.211626
10.2 -0.05 0.211626
10.4 -0.05 0.211626
10.6 -0.05 0.211626
10.8 -0.05 0.211626
11 -0.05 0.211626
11.2 -0.05 0.211626
11.4 -0.05 0.211626
11.6 -0.05 0.211626
11.8 -0.05 0.211626
12 -0.05 0.211626
12.2 -0.05 0.211626
12.4 -0.05 0.211626
12.6 -0.05 0.211626
12.8 -0.05 0.211626
13 -0.05 0.211626
13.2 -0.05 0.211626
13.4 -0.05 0.211626
13.6 -0.05 0.211626
13.8 -0.05 0.211626
14 -0.05 0.211626
14.2 -0.05 0.211626
14.4 -0.05 0.211626
14.6 -0.05 0.211626
14.8 -0.05 0.211626
15 -0.05 0.211626
-1.001 -0.05 0.264258
-1.0008 -0.05 0.264258
-1.0006 -0.05 0.264258
-1.0004 -0.05 0.264258
-1.0002 -0.05 0.264258
-1 -0.05 0.264258
-0.8 -0.05 0.264258
-0.6 -0.05 0.264258
-0.4 -0.05 0.264258
-0.2 -0.05 0.264258
0 -0.05 0.264258
0.2 -0.05 0.264258
0.4 -0.05 0.264258
0.6 -0.05 0.264258
0.8 -0.05 0.264258
1 -0.05 0.264258
1.2 -0.05 0.264258
1.4 -0.05 0.264258
1.6 -0.05 0.264258
1.8 -0.05 0.264258
2 -0.05 0.264258
2.2 -0.05 0.264258
2.4 -0.05 0.264258
2.6 -0.05 0.264258
2.8 -0.05 0.264258
3 -0.05 0.264258
3.2 -0.05 0.264258
3.4 -0.05 0.264258
3.6 -0.05 0.264258
3.8 -0.05 0.264258
4 -0.05 0.264258
4.2 -0.05 0.264258
4.4 -0.05 0.264258
4.6 -0.05 0.264258
4.8 -0.05 0.264258
5 -0.05 0.264258
5.2 -0.05 0.264258
5.4 -0.05 0.264258
5.6 -0.05 0.264258
5.8 -0.05 0.264258
6 -0.05 0.264258
6.2 -0.05 0.264258
6.4 -0.05 0.264258
6.6 -0.05 0.264258
6.8 -0.05 0.264258
7 -0.05 0.264258
7.2 -0.05 0.264258
7.4 -0.05 0.264258
7.6 -0.05 0.264258
7.8 -0.05 0.264258
8 -0.05 0.264258
8.2 -0.05 0.264258
8.4 -0.05 0.264258
8.6 -0.05 0.264258
8.8 -0.05 0.264258
9 -0.05 0.264258
9.2 -0.05 0.264258
9.4 -0.05 0.264258
9.6 -0.05 0.264258
9.8 -0.05 0.264258
10 -0.05 0.264258
10.2 -0.05 0.264258
10.4 -0.05 0.264258
10.6 -0.05 0.264258
10.8 -0.05 0.264258
11 -0.05 0.264258
11.2 -0.05 0.264258
11.4 -0.05 0.264258
11.6 -0.05 0.264258
11.8 -0.05 0.264258
12 -0.05 0.264258
12.2 -0.05 0.264258
12.4 -0.05 0.264258
12.6 -0.05 0.264258
12.8 -0.05 0.264258
13 -0.05 0.264258
13.2 -0.05 0.264258
13.4 -0.05 0.264258
13.6 -0.05 0.264258
13.8 -0.05 0.264258
14 -0.05 0.264258
14.2 -0.05 0.264258
14.4 -0.05 0.264258
14.6 -0.05 0.264258
14.8 -0.05 0.264258
15 -0.05 0.264258
-1.001 -0.05 0.316889
-1.0008 -0.05 0.316889
-1.0006 -0.05 0.316889
-1.0004 -0.05 0.316889
[...]
POINT_DATA 1720
 FIELD attributes 1
U 3 1720 float
20 	-3.56945e-19 	-4.45946e-18 20 	-3.58894e-19 	-3.99093e-18 20 	-3.60844e-19 	-3.52239e-18 20 	-3.62793e-19 	-3.05385e-18 20 	-3.64742e-19 	-2.58532e-18 20 	-3.66692e-19 	-2.11678e-18 20 	1.10656e-18 	-3.36653e-18 20 	1.10656e-18 	-3.36653e-18 20 	1.10656e-18 	-3.36653e-18 20 	1.10656e-18 	-3.36653e-18 20 	-8.71422e-20 	-1.4249e-18 20 	1.40131e-18 	-2.48684e-18 20 	1.40131e-18 	-2.48684e-18 20 	1.40131e-18 	-2.48684e-18 20 	1.40131e-18 	-2.48684e-18 20 	5.35279e-19 	-1.1076e-18 20 	2.49147e-18 	-2.93723e-18 20 	2.49147e-18 	-2.93723e-18 20 	2.49147e-18 	-2.93723e-18 20 	2.49147e-18 	-2.93723e-18 20 	3.33308e-19 	-1.01933e-18 20 	-6.41519e-19 	-2.97488e-18 20 	-6.41519e-19 	-2.97488e-18 20 	-6.41519e-19 	-2.97488e-18 20 	-6.41519e-19 	-2.97488e-18 20 	-2.12689e-19 	-9.81599e-19 20 	-4.65153e-19 	-2.38164e-18 20 	-4.65153e-19 	-2.38164e-18 20 	-4.65153e-19 	-2.38164e-18 20 	-4.65153e-19 	-2.38164e-18 20 	-2.23996e-19 	-1.05055e-18 20 	5.87607e-19 	-3.17129e-18 20 	5.87607e-19 	-3.17129e-18 20 	5.87607e-19 	-3.17129e-18 20 	5.87607e-19 	-3.17129e-18 20 	-2.22105e-19 	-7.67135e-19 20 	-1.07481e-18 	-6.92641e-19 20 	-1.07481e-18 	-6.92641e-19 20 	-1.07481e-18 	-6.92641e-19 20 	-1.07481e-18 	-6.92641e-19 20 	-6.70258e-19 	-1.20204e-19 20 	-3.06152e-18 	6.03171e-19 20 	-3.06152e-18 	6.03171e-19 20 	-3.06152e-18 	6.03171e-19 20 	-3.06152e-18 	6.03171e-19 20 	-8.72756e-19 	5.84997e-19 20 	-3.01232e-18 	2.12914e-18 20 	-3.01232e-18 	2.12914e-18 20 	-3.01232e-18 	2.12914e-18 20 	-3.01232e-18 	2.12914e-18 20 	-5.03883e-19 	7.40262e-19 20 	-6.744e-19 	6.35021e-19 20 	-6.744e-19 	6.35021e-19 20 	-6.744e-19 	6.35021e-19 20 	-6.744e-19 	6.35021e-19 20 	-5.42259e-20 	1.50928e-19 20 	1.11295e-18 	2.3195e-19 20 	1.11295e-18 	2.3195e-19 20 	1.11295e-18 	2.3195e-19 20 	1.11295e-18 	2.3195e-19 20 	3.30474e-20 	-1.67466e-19 20 	-9.41703e-19 	2.43832e-20 20 	-9.41703e-19 	2.43832e-20 20 	-9.41703e-19 	2.43832e-20 20 	-9.41703e-19 	2.43832e-20 20 	-1.9988e-19 	-1.87054e-19 20 	-7.22427e-19 	-1.90596e-19 20 	-7.22427e-19 	-1.90596e-19 20 	-7.22427e-19 	-1.90596e-19 20 	-7.22427e-19 	-1.90596e-19 20 	5.50001e-21 	-2.98186e-19 20 	1.47589e-18 	-5.30065e-19 20 	1.47589e-18 	-5.30065e-19 20 	1.47589e-18 	-5.30065e-19 20 	1.47589e-18 	-5.30065e-19 20 	6.21052e-19 	-1.91449e-19 20 	2.97575e-18 	5.50024e-19 20 	2.97575e-18 	5.50024e-19 20 	2.97575e-18 	5.50024e-19 20 	2.97575e-18 	5.50024e-19 20 	7.90882e-19 	-8.81557e-21 20 	1.15801e-16 	-6.40196e-18 20 	2.29619e-16 	-1.36474e-17 20 	3.43437e-16 	-2.08929e-17 20 	4.57255e-16 	-2.81383e-17 20 	5.57918e-16 	-1.88615e-17
20 	-1.7902e-17 	-1.05741e-16 20 	-1.79039e-17 	-1.05272e-16 20 	-1.79059e-17 	-1.04804e-16 20 	-1.79078e-17 	-1.04335e-16 20 	-1.79098e-17 	-1.03867e-16 20 	-1.79117e-17 	-1.03398e-16 20 	5.00025e-17 	-1.57858e-16 20 	5.00025e-17 	-1.57858e-16 20 	5.00025e-17 	-1.57858e-16 20 	5.00025e-17 	-1.57858e-16 20 	-4.25662e-18 	-6.96019e-17 20 	6.55118e-17 	-1.16796e-16 20 	6.55118e-17 	-1.16796e-16 20 	6.55118e-17 	-1.16796e-16 20 	6.55118e-17 	-1.16796e-16 20 	2.61467e-17 	-5.41028e-17 20 	1.1438e-16 	-1.36968e-16 20 	1.1438e-16 	-1.36968e-16 20 	1.1438e-16 	-1.36968e-16 20 	1.1438e-16 	-1.36968e-16 20 	1.62811e-17 	-4.97913e-17 20 	-2.98814e-17 	-1.38552e-16 20 	-2.98814e-17 	-1.38552e-16 20 	-2.98814e-17 	-1.38552e-16 20 	-2.98814e-17 	-1.38552e-16 20 	-1.03892e-17 	-4.7948e-17 20 	-2.19032e-17 	-1.1182e-16 20 	-2.19032e-17 	-1.1182e-16 20 	-2.19032e-17 	-1.1182e-16 20 	-2.19032e-17 	-1.1182e-16 20 	-1.09415e-17 	-5.13163e-17 20 	2.59559e-17 	-1.46752e-16 20 	2.59559e-17 	-1.46752e-16 20 	2.59559e-17 	-1.46752e-16 20 	2.59559e-17 	-1.46752e-16 20 	-1.08491e-17 	-3.74722e-17 20 	-5.11289e-17 	-3.18914e-17 20 	-5.11289e-17 	-3.18914e-17 20 	-5.11289e-17 	-3.18914e-17 20 	-5.11289e-17 	-3.18914e-17 20 	-3.274e-17 	-5.87159e-18 20 	-1.42121e-16 	2.94014e-17 20 	-1.42121e-16 	2.94014e-17 20 	-1.42121e-16 	2.94014e-17 20 	-1.42121e-16 	2.94014e-17 20 	-4.26314e-17 	2.85753e-17 20 	-1.38633e-16 	9.92905e-17 20 	-1.38633e-16 	9.92905e-17 20 	-1.38633e-16 	9.92905e-17 20 	-1.38633e-16 	9.92905e-17 20 	-2.46131e-17 	3.61595e-17 20 	-3.08385e-17 	2.93766e-17 20 	-3.08385e-17 	2.93766e-17 20 	-3.08385e-17 	2.93766e-17 20 	-3.08385e-17 	2.93766e-17 20 	-2.64877e-18 	7.37238e-18 20 	5.07006e-17 	9.9751e-18 20 	5.07006e-17 	9.9751e-18 20 	5.07006e-17 	9.9751e-18 20 	5.07006e-17 	9.9751e-18 20 	1.61426e-18 	-8.18021e-18 20 	-4.34828e-17 	4.73774e-19 20 	-4.34828e-17 	4.73774e-19 20 	-4.34828e-17 	4.73774e-19 20 	-4.34828e-17 	4.73774e-19 20 	-9.76353e-18 	-9.13702e-18 20 	-3.28189e-17 	-9.67502e-18 20 	-3.28189e-17 	-9.67502e-18 20 	-3.28189e-17 	-9.67502e-18 20 	-3.28189e-17 	-9.67502e-18 20 	2.68658e-19 	-1.45654e-17 20 	6.91926e-17 	-2.47433e-17 20 	6.91926e-17 	-2.47433e-17 20 	6.91926e-17 	-2.47433e-17 20 	6.91926e-17 	-2.47433e-17 20 	3.03365e-17 	-9.35169e-18 20 	1.37945e-16 	2.49712e-17 20 	1.37945e-16 	2.49712e-17 20 	1.37945e-16 	2.49712e-17 20 	1.37945e-16 	2.49712e-17 20 	3.86321e-17 	-4.30613e-19 20 	2.04058e-16 	3.13212e-17 20 	3.17876e-16 	2.40758e-17 20 	4.31694e-16 	1.68303e-17 20 	5.45512e-16 	9.58487e-18 20 	5.59455e-16 	-1.56729e-17
20 	-3.54471e-17 	-2.07022e-16 20 	-3.5449e-17 	-2.06554e-16 20 	-3.5451e-17 	-2.06085e-16 20 	-3.54529e-17 	-2.05616e-16 20 	-3.54548e-17 	-2.05148e-16 20 	-3.54568e-17 	-2.04679e-16 20 	4.5833e-17 	-2.26035e-16 20 	4.5833e-17 	-2.26035e-16 20 	4.5833e-17 	-2.26035e-16 20 	4.5833e-17 	-2.26035e-16 20 	-8.42611e-18 	-1.37779e-16 20 	9.11232e-17 	-1.69791e-16 20 	9.11232e-17 	-1.69791e-16 20 	9.11232e-17 	-1.69791e-16 20 	9.11232e-17 	-1.69791e-16 20 	5.17581e-17 	-1.07098e-16 20 	1.30327e-16 	-1.8574e-16 20 	1.30327e-16 	-1.8574e-16 20 	1.30327e-16 	-1.8574e-16 20 	1.30327e-16 	-1.8574e-16 20 	3.22288e-17 	-9.85632e-17 20 	-4.00579e-17 	-1.85518e-16 20 	-4.00579e-17 	-1.85518e-16 20 	-4.00579e-17 	-1.85518e-16 20 	-4.00579e-17 	-1.85518e-16 20 	-2.05657e-17 	-9.49145e-17 20 	-3.26207e-17 	-1.62086e-16 20 	-3.26207e-17 	-1.62086e-16 20 	-3.26207e-17 	-1.62086e-16 20 	-3.26207e-17 	-1.62086e-16 20 	-2.1659e-17 	-1.01582e-16 20 	1.53289e-17 	-1.83457e-16 20 	1.53289e-17 	-1.83457e-16 20 	1.53289e-17 	-1.83457e-16 20 	1.53289e-17 	-1.83457e-16 20 	-2.14761e-17 	-7.41772e-17 20 	-8.31987e-17 	-3.76428e-17 20 	-8.31987e-17 	-3.76428e-17 20 	-8.31987e-17 	-3.76428e-17 20 	-8.31987e-17 	-3.76428e-17 20 	-6.48098e-17 	-1.1623e-17 20 	-1.83879e-16 	5.73917e-17 20 	-1.83879e-16 	5.73917e-17 20 	-1.83879e-16 	5.73917e-17 20 	-1.83879e-16 	5.73917e-17 20 	-8.43901e-17 	5.65656e-17 20 	-1.62742e-16 	1.3471e-16 20 	-1.62742e-16 	1.3471e-16 20 	-1.62742e-16 	1.3471e-16 20 	-1.62742e-16 	1.3471e-16 20 	-4.87223e-17 	7.15787e-17 20 	-3.3433e-17 	3.6598e-17 20 	-3.3433e-17 	3.6598e-17 20 	-3.3433e-17 	3.6598e-17 20 	-3.3433e-17 	3.6598e-17 20 	-5.24331e-18 	1.45938e-17 20 	5.22818e-17 	1.96235e-18 20 	5.22818e-17 	1.96235e-18 20 	5.22818e-17 	1.96235e-18 20 	5.22818e-17 	1.96235e-18 20 	3.19548e-18 	-1.6193e-17 20 	-5.30464e-17 	-8.4762e-18 20 	-5.30464e-17 	-8.4762e-18 20 	-5.30464e-17 	-8.4762e-18 20 	-5.30464e-17 	-8.4762e-18 20 	-1.93272e-17 	-1.8087e-17 20 	-3.25558e-17 	-2.39423e-17 20 	-3.25558e-17 	-2.39423e-17 20 	-3.25558e-17 	-2.39423e-17 20 	-3.25558e-17 	-2.39423e-17 20 	5.31816e-19 	-2.88327e-17 20 	9.8908e-17 	-3.39036e-17 20 	9.8908e-17 	-3.39036e-17 20 	9.8908e-17 	-3.39036e-17 20 	9.8908e-17 	-3.39036e-17 20 	6.00519e-17 	-1.85119e-17 20 	1.75786e-16 	2.45494e-17 20 	1.75786e-16 	2.45494e-17 20 	1.75786e-16 	2.45494e-17 20 	1.75786e-16 	2.45494e-17 20 	7.64734e-17 	-8.52411e-19 20 	2.05595e-16 	3.45098e-17 20 	3.19413e-16 	2.72644e-17 20 	4.33231e-16 	2.00189e-17 20 	5.47049e-16 	1.27735e-17 20 	5.60992e-16 	-1.24843e-17
20 	-5.29921e-17 	-3.08303e-16 20 	-5.29941e-17 	-3.07835e-16 20 	-5.2996e-17 	-3.07366e-16 20 	-5.2998e-17 	-3.06898e-16 20 	-5.29999e-17 	-3.06429e-16 20 	-5.30019e-17 	-3.05961e-16 20 	4.16635e-17 	-2.94212e-16 20 	4.16635e-17 	-2.94212e-16 20 	4.16635e-17 	-2.94212e-16 20 	4.16635e-17 	-2.94212e-16 20 	-1.25956e-17 	-2.05956e-16 20 	1.16735e-16 	-2.22786e-16 20 	1.16735e-16 	-2.22786e-16 20 	1.16735e-16 	-2.22786e-16 20 	1.16735e-16 	-2.22786e-16 20 	7.73695e-17 	-1.60093e-16 20 	1.46275e-16 	-2.34512e-16 20 	1.46275e-16 	-2.34512e-16 20 	1.46275e-16 	-2.34512e-16 20 	1.46275e-16 	-2.34512e-16 20 	4.81766e-17 	-1.47335e-16 20 	-5.02344e-17 	-2.32484e-16 20 	-5.02344e-17 	-2.32484e-16 20 	-5.02344e-17 	-2.32484e-16 20 	-5.02344e-17 	-2.32484e-16 20 	-3.07422e-17 	-1.41881e-16 20 	-4.33382e-17 	-2.12352e-16 20 	-4.33382e-17 	-2.12352e-16 20 	-4.33382e-17 	-2.12352e-16 20 	-4.33382e-17 	-2.12352e-16 20 	-3.23765e-17 	-1.51848e-16 20 	4.7019e-18 	-2.20162e-16 20 	4.7019e-18 	-2.20162e-16 20 	4.7019e-18 	-2.20162e-16 20 	4.7019e-18 	-2.20162e-16 20 	-3.21032e-17 	-1.10882e-16 20 	-1.15268e-16 	-4.33942e-17 20 	-1.15268e-16 	-4.33942e-17 20 	-1.15268e-16 	-4.33942e-17 20 	-1.15268e-16 	-4.33942e-17 20 	-9.68795e-17 	-1.73744e-17 20 	-2.25638e-16 	8.5382e-17 20 	-2.25638e-16 	8.5382e-17 20 	-2.25638e-16 	8.5382e-17 20 	-2.25638e-16 	8.5382e-17 20 	-1.26149e-16 	8.45559e-17 20 	-1.86851e-16 	1.70129e-16 20 	-1.86851e-16 	1.70129e-16 20 	-1.86851e-16 	1.70129e-16 20 	-1.86851e-16 	1.70129e-16 20 	-7.28315e-17 	1.06998e-16 20 	-3.60276e-17 	4.38195e-17 20 	-3.60276e-17 	4.38195e-17 20 	-3.60276e-17 	4.38195e-17 20 	-3.60276e-17 	4.38195e-17 20 	-7.83785e-18 	2.18153e-17 20 	5.3863e-17 	-6.05039e-18 20 	5.3863e-17 	-6.05039e-18 20 	5.3863e-17 	-6.05039e-18 20 	5.3863e-17 	-6.05039e-18 20 	4.77669e-18 	-2.42057e-17 20 	-6.26101e-17 	-1.74262e-17 20 	-6.26101e-17 	-1.74262e-17 20 	-6.26101e-17 	-1.74262e-17 20 	-6.26101e-17 	-1.74262e-17 20 	-2.88908e-17 	-2.7037e-17 20 	-3.22926e-17 	-3.82095e-17 20 	-3.22926e-17 	-3.82095e-17 20 	-3.22926e-17 	-3.82095e-17 20 	-3.22926e-17 	-3.82095e-17 20 	7.94975e-19 	-4.31e-17 20 	1.28623e-16 	-4.30638e-17 20 	1.28623e-16 	-4.30638e-17 20 	1.28623e-16 	-4.30638e-17 20 	1.28623e-16 	-4.30638e-17 20 	8.97673e-17 	-2.76722e-17 20 	2.13627e-16 	2.41276e-17 20 	2.13627e-16 	2.41276e-17 20 	2.13627e-16 	2.41276e-17 20 	2.13627e-16 	2.41276e-17 20 	1.14315e-16 	-1.27421e-18 20 	2.07131e-16 	3.76984e-17 20 	3.20949e-16 	3.04529e-17 20 	4.34767e-16 	2.32075e-17 20 	5.48585e-16 	1.5962e-17 20 	5.62528e-16 	-9.29572e-18
20 	-7.05372e-17 	-4.09585e-16 20 	-7.05391e-17 	-4.09116e-16 20 	-7.05411e-17 	-4.08648e-16 20 	-7.0543e-17 	-4.08179e-16 20 	-7.0545e-17 	-4.07711e-16 20 	-7.05469e-17 	-4.07242e-16 20 	3.45394e-17 	-3.69701e-16 20 	3.7494e-17 	-3.62389e-16 20 	3.7494e-17 	-3.62389e-16 20 	3.7494e-17 	-3.62389e-16 20 	-1.67651e-17 	-2.74133e-16 20 	1.35767e-16 	-2.79135e-16 20 	1.42346e-16 	-2.75781e-16 20 	1.42346e-16 	-2.75781e-16 20 	1.42346e-16 	-2.75781e-16 20 	1.02981e-16 	-2.13088e-16 20 	1.64357e-16 	-2.84217e-16 20 	1.62223e-16 	-2.83284e-16 20 	1.62223e-16 	-2.83284e-16 20 	1.62223e-16 	-2.83284e-16 20 	6.41243e-17 	-1.96107e-16 20 	-5.46401e-17 	-2.7985e-16 20 	-6.04109e-17 	-2.79451e-16 20 	-6.04109e-17 	-2.79451e-16 20 	-6.04109e-17 	-2.79451e-16 20 	-4.09186e-17 	-1.88847e-16 20 	-5.39362e-17 	-2.61889e-16 20 	-5.40557e-17 	-2.62617e-16 20 	-5.40557e-17 	-2.62617e-16 20 	-5.40557e-17 	-2.62617e-16 20 	-4.3094e-17 	-2.02113e-16 20 	-5.94511e-18 	-2.59863e-16 20 	-5.92512e-18 	-2.56867e-16 20 	-5.92512e-18 	-2.56867e-16 20 	-5.92512e-18 	-2.56867e-16 20 	-4.27302e-17 	-1.47587e-16 20 	-1.42601e-16 	-5.59833e-17 20 	-1.47338e-16 	-4.91456e-17 20 	-1.47338e-16 	-4.91456e-17 20 	-1.47338e-16 	-4.91456e-17 20 	-1.28949e-16 	-2.31257e-17 20 	-2.65256e-16 	1.05919e-16 20 	-2.67397e-16 	1.13372e-16 20 	-2.67397e-16 	1.13372e-16 20 	-2.67397e-16 	1.13372e-16 20 	-1.67907e-16 	1.12546e-16 20 	-2.14859e-16 	2.03907e-16 20 	-2.10961e-16 	2.05548e-16 20 	-2.10961e-16 	2.05548e-16 20 	-2.10961e-16 	2.05548e-16 20 	-9.69408e-17 	1.42417e-16 20 	-4.33747e-17 	5.72698e-17 20 	-3.86221e-17 	5.1041e-17 20 	-3.86221e-17 	5.1041e-17 20 	-3.86221e-17 	5.1041e-17 20 	-1.04324e-17 	2.90368e-17 20 	5.45218e-17 	-1.06979e-17 20 	5.54442e-17 	-1.40631e-17 20 	5.54442e-17 	-1.40631e-17 20 	5.54442e-17 	-1.40631e-17 20 	6.35791e-18 	-3.22184e-17 20 	-6.97118e-17 	-2.61691e-17 20 	-7.21737e-17 	-2.63761e-17 20 	-7.21737e-17 	-2.63761e-17 20 	-7.21737e-17 	-2.63761e-17 20 	-3.84545e-17 	-3.59869e-17 20 	-3.42002e-17 	-5.13022e-17 20 	-3.20294e-17 	-5.24768e-17 20 	-3.20294e-17 	-5.24768e-17 20 	-3.20294e-17 	-5.24768e-17 20 	1.05813e-18 	-5.73672e-17 20 	1.51833e-16 	-5.33522e-17 20 	1.58339e-16 	-5.2224e-17 20 	1.58339e-16 	-5.2224e-17 20 	1.58339e-16 	-5.2224e-17 20 	1.19483e-16 	-3.68324e-17 20 	2.49673e-16 	2.17755e-17 20 	2.51468e-16 	2.37058e-17 20 	2.51468e-16 	2.37058e-17 20 	2.51468e-16 	2.37058e-17 20 	1.52156e-16 	-1.69601e-18 20 	2.16688e-16 	4.00894e-17 20 	3.22486e-16 	3.36415e-17 20 	4.36304e-16 	2.63961e-17 20 	5.50122e-16 	1.91506e-17 20 	5.64065e-16 	-6.10714e-18
20 	-8.80822e-17 	-5.10866e-16 20 	-8.80842e-17 	-5.10397e-16 20 	-8.80861e-17 	-5.09929e-16 20 	-8.80881e-17 	-5.0946e-16 20 	-8.809e-17 	-5.08992e-16 20 	-8.8092e-17 	-5.08523e-16 20 	1.69943e-17 	-4.70983e-16 20 	3.33245e-17 	-4.30566e-16 20 	3.33245e-17 	-4.30566e-16 20 	3.33245e-17 	-4.30566e-16 20 	-2.09346e-17 	-3.4231e-16 20 	1.31598e-16 	-3.47312e-16 20 	1.67957e-16 	-3.28776e-16 20 	1.67957e-16 	-3.28776e-16 20 	1.67957e-16 	-3.28776e-16 20 	1.28592e-16 	-2.66083e-16 20 	1.89969e-16 	-3.37212e-16 20 	1.78171e-16 	-3.32056e-16 20 	1.78171e-16 	-3.32056e-16 20 	1.78171e-16 	-3.32056e-16 20 	8.00721e-17 	-2.44879e-16 20 	-3.86923e-17 	-3.28622e-16 20 	-7.05874e-17 	-3.26417e-16 20 	-7.05874e-17 	-3.26417e-16 20 	-7.05874e-17 	-3.26417e-16 20 	-5.10951e-17 	-2.35814e-16 20 	-6.41127e-17 	-3.08855e-16 20 	-6.47732e-17 	-3.12883e-16 20 	-6.47732e-17 	-3.12883e-16 20 	-6.47732e-17 	-3.12883e-16 20 	-5.38115e-17 	-2.52379e-16 20 	-1.66626e-17 	-3.10128e-16 20 	-1.65521e-17 	-2.93572e-16 20 	-1.65521e-17 	-2.93572e-16 20 	-1.65521e-17 	-2.93572e-16 20 	-5.33572e-17 	-1.84292e-16 20 	-1.53229e-16 	-9.26883e-17 20 	-1.79408e-16 	-5.4897e-17 20 	-1.79408e-16 	-5.4897e-17 20 	-1.79408e-16 	-5.4897e-17 20 	-1.61019e-16 	-2.88771e-17 20 	-2.97326e-16 	1.00167e-16 20 	-3.09155e-16 	1.41363e-16 20 	-3.09155e-16 	1.41363e-16 20 	-3.09155e-16 	1.41363e-16 20 	-2.09666e-16 	1.40536e-16 20 	-2.56618e-16 	2.31897e-16 20 	-2.3507e-16 	2.40967e-16 20 	-2.3507e-16 	2.40967e-16 20 	-2.3507e-16 	2.40967e-16 20 	-1.2105e-16 	1.77836e-16 20 	-6.74839e-17 	9.26891e-17 20 	-4.12167e-17 	5.82624e-17 20 	-4.12167e-17 	5.82624e-17 20 	-4.12167e-17 	5.82624e-17 20 	-1.30269e-17 	3.62582e-17 20 	5.19273e-17 	-3.47644e-18 20 	5.70255e-17 	-2.20759e-17 20 	5.70255e-17 	-2.20759e-17 20 	5.70255e-17 	-2.20759e-17 20 	7.93912e-18 	-4.02312e-17 20 	-6.81306e-17 	-3.41818e-17 20 	-8.17374e-17 	-3.53261e-17 20 	-8.17374e-17 	-3.53261e-17 20 	-8.17374e-17 	-3.53261e-17 20 	-4.80181e-17 	-4.49369e-17 20 	-4.37638e-17 	-6.02522e-17 20 	-3.17663e-17 	-6.67441e-17 20 	-3.17663e-17 	-6.67441e-17 20 	-3.17663e-17 	-6.67441e-17 20 	1.32129e-18 	-7.16345e-17 20 	1.52096e-16 	-6.76194e-17 20 	1.88054e-16 	-6.13843e-17 20 	1.88054e-16 	-6.13843e-17 20 	1.88054e-16 	-6.13843e-17 20 	1.49198e-16 	-4.59927e-17 20 	2.79389e-16 	1.26152e-17 20 	2.8931e-16 	2.3284e-17 20 	2.8931e-16 	2.3284e-17 20 	2.8931e-16 	2.3284e-17 20 	1.89997e-16 	-2.1178e-18 20 	2.54529e-16 	3.96676e-17 20 	3.24023e-16 	3.68301e-17 20 	4.37841e-16 	2.95846e-17 20 	5.51659e-16 	2.23392e-17 20 	5.65602e-16 	-2.91856e-18
20 	-1.05627e-16 	-6.12147e-16 20 	-1.05629e-16 	-6.11679e-16 20 	-1.05631e-16 	-6.1121e-16 20 	-1.05633e-16 	-6.10742e-16 20 	-1.05635e-16 	-6.10273e-16 20 	-1.05637e-16 	-6.09805e-16 20 	-5.50746e-19 	-5.72264e-16 20 	2.91551e-17 	-4.98743e-16 20 	2.91551e-17 	-4.98743e-16 20 	2.91551e-17 	-4.98743e-16 20 	-2.5104e-17 	-4.10487e-16 20 	1.27428e-16 	-4.15489e-16 20 	1.93569e-16 	-3.81772e-16 20 	1.93569e-16 	-3.81772e-16 20 	1.93569e-16 	-3.81772e-16 20 	1.54204e-16 	-3.19079e-16 20 	2.1558e-16 	-3.90207e-16 20 	1.94118e-16 	-3.80828e-16 20 	1.94118e-16 	-3.80828e-16 20 	1.94118e-16 	-3.80828e-16 20 	9.60198e-17 	-2.93651e-16 20 	-2.27446e-17 	-3.77394e-16 20 	-8.07639e-17 	-3.73384e-16 20 	-8.07639e-17 	-3.73384e-16 20 	-8.07639e-17 	-3.73384e-16 20 	-6.12716e-17 	-2.8278e-16 20 	-7.42892e-17 	-3.55821e-16 20 	-7.54907e-17 	-3.63149e-16 20 	-7.54907e-17 	-3.63149e-16 20 	-7.54907e-17 	-3.63149e-16 20 	-6.45291e-17 	-3.02645e-16 20 	-2.73801e-17 	-3.60394e-16 20 	-2.71792e-17 	-3.30277e-16 20 	-2.71792e-17 	-3.30277e-16 20 	-2.71792e-17 	-3.30277e-16 20 	-6.39842e-17 	-2.20997e-16 20 	-1.63856e-16 	-1.29393e-16 20 	-2.11478e-16 	-6.06484e-17 20 	-2.11478e-16 	-6.06484e-17 20 	-2.11478e-16 	-6.06484e-17 20 	-1.93089e-16 	-3.46285e-17 20 	-3.29396e-16 	9.4416e-17 20 	-3.50914e-16 	1.69353e-16 20 	-3.50914e-16 	1.69353e-16 20 	-3.50914e-16 	1.69353e-16 20 	-2.51425e-16 	1.68527e-16 20 	-2.98377e-16 	2.59888e-16 20 	-2.59179e-16 	2.76387e-16 20 	-2.59179e-16 	2.76387e-16 20 	-2.59179e-16 	2.76387e-16 20 	-1.45159e-16 	2.13256e-16 20 	-9.15932e-17 	1.28108e-16 20 	-4.38112e-17 	6.54839e-17 20 	-4.38112e-17 	6.54839e-17 20 	-4.38112e-17 	6.54839e-17 20 	-1.56215e-17 	4.34797e-17 20 	4.93327e-17 	3.74501e-18 20 	5.86067e-17 	-3.00886e-17 20 	5.86067e-17 	-3.00886e-17 20 	5.86067e-17 	-3.00886e-17 20 	9.52034e-18 	-4.82439e-17 20 	-6.65494e-17 	-4.21946e-17 20 	-9.1301e-17 	-4.42761e-17 20 	-9.1301e-17 	-4.42761e-17 20 	-9.1301e-17 	-4.42761e-17 20 	-5.75818e-17 	-5.38869e-17 20 	-5.33275e-17 	-6.92022e-17 20 	-3.15031e-17 	-8.10113e-17 20 	-3.15031e-17 	-8.10113e-17 20 	-3.15031e-17 	-8.10113e-17 20 	1.58445e-18 	-8.59018e-17 20 	1.52359e-16 	-8.18867e-17 20 	2.1777e-16 	-7.05445e-17 20 	2.1777e-16 	-7.05445e-17 20 	2.1777e-16 	-7.05445e-17 20 	1.78914e-16 	-5.51529e-17 20 	3.09104e-16 	3.45497e-18 20 	3.27151e-16 	2.28622e-17 20 	3.27151e-16 	2.28622e-17 20 	3.27151e-16 	2.28622e-17 20 	2.27838e-16 	-2.5396e-18 20 	2.9237e-16 	3.92458e-17 20 	3.25559e-16 	4.00187e-17 20 	4.39378e-16 	3.27732e-17 20 	5.53196e-16 	2.55278e-17 20 	5.67139e-16 	2.70019e-19