/*--------------------------------*- C++ -*----------------------------------*\
  =========                 |
  \\      /  F ield         | OpenFOAM: The Open Source CFD Toolbox
   \\    /   O peration     | Website:  https://openfoam.org
    \\  /    A nd           | Version:  9
     \\/     M anipulation  |
\*---------------------------------------------------------------------------*/
FoamFile
{
    format      ascii;
    class       volScalarField;
    location    "0.3";
    object      delta;
}
// * * * * * * * * * * * * * * * * * * * * * * * * * * * * * * * * * * * * * //

dimensions      [0 0 0 0 0 0 0];

internalField   nonuniform List<scalar> 
500
(
5.67718e-66
6.18398e-63
3.51495e-60
1.22173e-57
2.85553e-55
4.78231e-53
6.00658e-51
5.85582e-49
4.55199e-47
2.88316e-45
1.51469e-43
6.69969e-42
2.52686e-40
8.21614e-39
2.32524e-37
5.77621e-36
1.26895e-34
2.4819e-33
4.34799e-32
6.86018e-31
9.79709e-30
1.27222e-28
1.50857e-27
1.63983e-26
1.63996e-25
1.51402e-24
1.29438e-23
1.02779e-22
7.60087e-22
5.24892e-21
3.39309e-20
2.05802e-19
1.1738e-18
6.30867e-18
3.20145e-17
1.5369e-16
6.99237e-16
3.02018e-15
1.24048e-14
4.85275e-14
1.81086e-13
6.45529e-13
2.20136e-12
7.19111e-12
2.25318e-11
6.78006e-11
1.96171e-10
5.46392e-10
1.46667e-09
3.79829e-09
9.50017e-09
2.29722e-08
5.37566e-08
1.21852e-07
2.67796e-07
5.71137e-07
1.18309e-06
2.38235e-06
4.66723e-06
8.90279e-06
1.6548e-05
2.99947e-05
5.3057e-05
9.16544e-05
0.000154732
0.000255456
0.000412718
0.000652939
0.00101216
0.00153833
0.00229372
0.00335718
0.00482619
0.0068183
0.00947174
0.0129449
0.0174148
0.0230733
0.030123
0.0387702
0.0492182
0.061658
0.0762598
0.0931637
0.112471
0.134239
0.15847
0.185113
0.214061
0.245151
0.278167
0.312846
0.348888
0.385963
0.423722
0.461805
0.499856
0.537529
0.574499
0.610469
0.645175
0.678392
0.709935
0.739662
0.767472
0.793302
0.817128
0.838958
0.858829
0.876803
0.892962
0.907402
0.920234
0.931571
0.941535
0.950246
0.957823
0.964381
0.970031
0.974874
0.979009
0.982523
0.985498
0.988005
0.99011
0.99187
0.993337
0.994555
0.995563
0.996395
0.997078
0.997638
0.998095
0.998468
0.99877
0.999015
0.999213
0.999373
0.999501
0.999604
0.999686
0.999752
0.999804
0.999846
0.999879
0.999905
0.999925
0.999941
0.999954
0.999964
0.999972
0.999978
0.999983
0.999987
0.99999
0.999992
0.999994
0.999995
0.999996
0.999997
0.999998
0.999998
0.999999
0.999999
0.999999
0.999999
1
1
1
1
1
1
1
1
1
1
1
1
1
1
1
1
1
1
1
1
1
1
1
1
1
1
1
1
1
1
1
1
1
1
1
1
1
1
1
1
1
1
1
1
1
1
1
1
1
1
1
1
1
1
1
1
1
1
1
1
1
1
1
1
1
1
1
1
1
1
1
1
1
1
1
1
1
1
1
1
1
1
1
1
1
1
1
1
1
1
1
1
1
1
1
1
1
1
1
1.00001
1.00001
1.00001
1.00001
1.00001
1.00001
1.00002
1.00002
1.00002
1.00003
1.00003
1.00004
1.00004
1.00005
1.00006
1.00007
1.00008
1.00009
1.0001
1.00012
1.00014
1.00016
1.00019
1.00022
1.00025
1.00029
1.00033
1.00038
1.00044
1.00051
1.00058
1.00066
1.00076
1.00087
1.00099
1.00112
1.00128
1.00145
1.00165
1.00187
1.00212
1.00239
1.0027
1.00305
1.00344
1.00387
1.00435
1.00489
1.00549
1.00616
1.0069
1.00772
1.00862
1.00963
1.01074
1.01197
1.01333
1.01482
1.01647
1.01828
1.02027
1.02245
1.02485
1.02748
1.03036
1.0335
1.03694
1.04069
1.04479
1.04925
1.05411
1.05939
1.06513
1.07136
1.07812
1.08545
1.09338
1.10197
1.11124
1.12126
1.13207
1.14372
1.15628
1.16979
1.18431
1.19992
1.21668
1.23465
1.25391
1.27454
1.29661
1.3202
1.34541
1.37232
1.40102
1.43161
1.46418
1.49884
1.53569
1.57485
1.61642
1.66052
1.70726
1.75678
1.80919
1.86462
1.92321
1.98508
2.05039
2.11925
2.19183
2.26827
2.3487
2.43329
2.52218
2.61553
2.71349
2.81623
2.9239
3.03666
3.15467
3.2781
3.4071
3.54185
3.6825
3.82922
3.98216
4.1415
4.30738
4.47998
4.65944
4.84593
5.03959
5.24058
5.44904
5.66512
5.88897
6.12071
6.36049
6.60842
6.86465
7.12927
7.40242
7.6842
7.9747
8.27403
8.58228
8.89952
9.22585
9.56131
9.90598
10.2599
10.6231
10.9957
11.3776
11.769
12.1697
12.5798
12.9994
13.4283
13.8665
14.3141
14.7709
15.237
15.7122
16.1965
16.6898
17.1921
17.7031
18.2228
18.7511
19.2878
19.8328
20.3859
20.9471
21.5161
22.0927
22.6767
23.2681
23.8664
24.4717
25.0835
25.7018
26.3262
26.9566
27.5927
28.2341
28.8808
29.5323
30.1885
30.849
31.5136
32.182
32.8538
33.5289
34.2069
34.8874
35.5703
36.2552
36.9417
37.6297
38.3187
39.0084
39.6986
40.389
41.0791
41.7688
42.4577
43.1455
43.8319
44.5166
45.1992
45.8796
46.5574
47.2323
47.904
48.5723
49.2368
49.8973
50.5535
51.2053
51.8522
52.494
53.1306
53.7616
54.3869
55.0062
55.6192
56.2259
56.8259
57.4191
58.0053
58.5842
59.1558
59.7199
)
;

boundaryField
{
    lowValue
    {
        type            calculated;
        value           uniform 7.81626e-69;
    }
    highValue
    {
        type            calculated;
        value           uniform 60;
    }
    defaultFaces
    {
        type            empty;
    }
}


// ************************************************************************* //
