/*--------------------------------*- C++ -*----------------------------------*\
  =========                 |
  \\      /  F ield         | OpenFOAM: The Open Source CFD Toolbox
   \\    /   O peration     | Website:  https://openfoam.org
    \\  /    A nd           | Version:  9
     \\/     M anipulation  |
\*---------------------------------------------------------------------------*/
FoamFile
{
    format      ascii;
    class       volScalarField;
    location    "0.3";
    object      V;
}
// * * * * * * * * * * * * * * * * * * * * * * * * * * * * * * * * * * * * * //

dimensions      [0 1 0 0 0 0 0];

internalField   nonuniform List<scalar> 
500
(
2.29037e-69
6.61665e-66
7.17119e-63
4.05407e-60
1.40145e-57
3.25765e-55
5.4257e-53
6.77691e-51
6.57006e-49
5.07869e-47
3.19877e-45
1.6711e-43
7.35015e-42
2.75673e-40
8.91379e-39
2.50877e-37
6.19804e-36
1.35426e-34
2.63462e-33
4.59132e-32
7.20687e-31
1.02405e-29
1.32332e-28
1.56174e-27
1.68989e-26
1.68264e-25
1.54697e-24
1.31736e-23
1.04219e-22
7.68107e-22
5.28777e-21
3.4086e-20
2.06231e-19
1.17375e-18
6.29733e-18
3.19135e-17
1.53061e-16
6.96017e-16
3.0061e-15
1.23522e-14
4.83656e-14
1.80739e-13
6.45557e-13
2.20698e-12
7.23171e-12
2.27422e-11
6.87266e-11
1.99825e-10
5.59655e-10
1.51158e-09
3.94153e-09
9.933e-09
2.42175e-08
5.71799e-08
1.30872e-07
2.90631e-07
6.26801e-07
1.31399e-06
2.67979e-06
5.32132e-06
1.02968e-05
1.94305e-05
3.57855e-05
6.43711e-05
0.000113175
0.000194624
0.000327586
0.000540048
0.000872568
0.00138263
0.00214993
0.00328259
0.00492429
0.00726201
0.0105343
0.0150392
0.0211426
0.0292841
0.0399826
0.0538391
0.0715363
0.0938359
0.121571
0.155638
0.196978
0.246565
0.305383
0.374408
0.454579
0.546784
0.65183
0.770432
0.90319
1.05058
1.21293
1.39044
1.58317
1.79103
2.01379
2.25112
2.50255
2.76754
3.04545
3.33558
3.63719
3.9495
4.27171
4.60302
4.94265
5.28983
5.64382
6.00391
6.36945
6.7398
7.11441
7.49275
7.87434
8.25875
8.6456
9.03455
9.4253
9.81757
10.2112
10.6058
11.0014
11.3978
11.7948
12.1924
12.5904
12.9888
13.3874
13.7864
14.1855
14.5848
14.9843
15.3838
15.7834
16.1832
16.5829
16.9827
17.3826
17.7825
18.1824
18.5823
18.9823
19.3822
19.7822
20.1822
20.5821
20.9821
21.3821
21.7821
22.1821
22.5821
22.9821
23.3821
23.7821
24.1821
24.5821
24.9821
25.3821
25.7821
26.1821
26.5821
26.9821
27.3821
27.7821
28.1821
28.5821
28.9821
29.3821
29.7821
30.1821
30.5821
30.9821
31.3821
31.7821
32.1821
32.5821
32.9821
33.3821
33.7821
34.1821
34.5821
34.9821
35.3821
35.7821
36.1821
36.5821
36.9821
37.3821
37.7821
38.1821
38.5821
38.9821
39.3821
39.7821
40.1821
40.5821
40.9821
41.3821
41.7821
42.1821
42.5821
42.9821
43.3821
43.7821
44.1821
44.5821
44.9821
45.3821
45.7821
46.1821
46.5821
46.9821
47.3821
47.7821
48.1821
48.5821
48.9821
49.3821
49.7821
50.1821
50.5821
50.9821
51.3821
51.7821
52.1821
52.5821
52.9821
53.3821
53.7821
54.1821
54.5821
54.9821
55.3821
55.7821
56.1821
56.5821
56.9821
57.3821
57.7821
58.1821
58.5821
58.9821
59.3821
59.7821
60.1821
60.5821
60.9821
61.3821
61.7821
62.1821
62.5821
62.9821
63.3821
63.7821
64.1821
64.5821
64.9821
65.3821
65.7821
66.1821
66.5821
66.9821
67.3821
67.7821
68.1821
68.5821
68.9821
69.3821
69.7821
70.1821
70.5821
70.9821
71.3821
71.7822
72.1822
72.5822
72.9822
73.3822
73.7823
74.1823
74.5824
74.9824
75.3825
75.7825
76.1826
76.5827
76.9828
77.3829
77.783
78.1832
78.5834
78.9836
79.3838
79.7841
80.1844
80.5847
80.9851
81.3856
81.7861
82.1867
82.5873
82.9881
83.3889
83.7899
84.191
84.5922
84.9936
85.3951
85.7969
86.1988
86.601
87.0035
87.4062
87.8093
88.2128
88.6166
89.0209
89.4257
89.831
90.2369
90.6435
91.0508
91.4589
91.8679
92.2778
92.6888
93.1009
93.5143
93.929
94.3452
94.7631
95.1828
95.6043
96.028
96.454
96.8824
97.3136
97.7476
98.1849
98.6255
99.0698
99.5181
99.9707
100.428
100.89
101.358
101.831
102.311
102.797
103.291
103.792
104.301
104.819
105.346
105.884
106.432
106.991
107.563
108.148
108.746
109.359
109.988
110.633
111.295
111.977
112.677
113.399
114.143
114.91
115.701
116.518
117.363
118.237
119.141
120.076
121.046
122.05
123.092
124.173
125.294
126.458
127.667
128.923
130.227
131.583
132.992
134.457
135.98
137.564
139.211
140.924
142.706
144.558
146.485
148.488
150.572
152.737
154.989
157.329
159.761
162.289
164.915
167.642
170.474
173.415
176.468
179.635
182.922
186.331
189.865
193.529
197.327
201.261
205.335
209.553
213.92
218.438
223.111
227.943
232.938
238.1
243.432
248.937
254.621
260.486
266.535
272.774
279.204
285.831
292.657
299.686
306.921
314.367
322.025
329.9
337.994
346.312
354.855
363.628
372.633
381.872
391.35
401.068
411.03
421.237
431.692
442.398
453.357
464.571
476.043
487.773
499.765
512.019
524.538
537.322
550.374
563.695
577.286
591.148
605.281
619.688
634.368
649.321
664.55
680.053
695.831
711.885
728.213
744.817
761.695
778.847
796.273
813.973
831.944
850.187
868.701
887.484
906.535
925.854
945.437
965.284
985.394
1005.76
1026.39
1047.28
1068.42
1089.81
1111.45
1133.34
1155.47
1177.85
1200.47
1223.33
1246.42
1269.74
1293.29
1317.07
)
;

boundaryField
{
    lowValue
    {
        type            fixedValue;
        value           uniform 0;
    }
    highValue
    {
        type            fixedGradient;
        gradient        uniform 60;
    }
    defaultFaces
    {
        type            empty;
    }
}


// ************************************************************************* //
