/*--------------------------------*- C++ -*----------------------------------*\
  =========                 |
  \\      /  F ield         | OpenFOAM: The Open Source CFD Toolbox
   \\    /   O peration     | Website:  https://openfoam.org
    \\  /    A nd           | Version:  9
     \\/     M anipulation  |
\*---------------------------------------------------------------------------*/
FoamFile
{
    format      ascii;
    class       volScalarField;
    location    "71";
    object      ddt0(h);
}
// * * * * * * * * * * * * * * * * * * * * * * * * * * * * * * * * * * * * * //

dimensions      [0 1 -1 0 0 0 0];

internalField   nonuniform List<scalar> 
400
(
2.80567e-08
-4.38719e-09
-1.65563e-08
4.37705e-09
4.15446e-09
6.26391e-09
-1.2402e-08
-1.94128e-08
-1.98945e-08
3.9706e-09
4.80787e-09
4.9632e-09
4.30511e-09
9.65222e-09
3.53839e-09
-1.70851e-08
-1.47592e-09
1.09154e-08
-1.18429e-08
-1.19326e-08
1.08349e-08
1.9581e-09
8.03931e-09
-1.48151e-09
-4.30514e-09
1.70002e-09
-1.02117e-08
-1.29238e-08
-1.32026e-09
-3.65471e-09
1.0856e-08
2.82228e-09
1.32971e-08
1.4078e-08
-4.55809e-10
-8.23267e-09
-3.33907e-09
8.51266e-09
1.36226e-08
4.29505e-09
-6.39945e-09
1.92458e-08
2.38785e-08
-1.36894e-08
-6.63038e-09
-5.28026e-09
1.56141e-09
2.28522e-09
1.5416e-08
1.15302e-08
-1.08044e-08
2.53211e-08
4.21681e-09
8.5015e-09
1.08265e-09
-3.26652e-09
-4.38726e-09
4.77016e-09
2.33182e-08
1.57918e-08
-4.70337e-09
2.26693e-08
1.08098e-08
-1.19816e-08
-4.71016e-09
5.04542e-09
6.98202e-09
3.99424e-08
-2.10014e-09
4.13313e-08
-3.9713e-08
-3.17161e-08
2.45668e-08
-2.11446e-08
-9.13042e-09
4.76005e-09
-5.49506e-09
-8.61257e-09
8.35327e-09
9.79322e-09
7.00712e-09
1.04054e-08
-8.18198e-09
-9.53366e-09
1.48587e-08
6.00423e-09
3.94188e-08
4.20621e-09
7.17826e-08
-1.26538e-07
1.07016e-07
-1.40866e-07
-5.84563e-08
1.27787e-08
-1.78893e-08
-4.93275e-09
-7.34823e-10
-1.05466e-08
-8.84893e-09
-2.30288e-09
1.16787e-08
-2.18553e-09
-1.77231e-08
6.97341e-09
1.70786e-08
1.7943e-08
1.26886e-08
3.39858e-08
-6.09819e-09
-1.09383e-07
-6.23064e-08
1.13903e-07
-1.62644e-07
-7e-08
1.42927e-08
1.37872e-08
2.47653e-09
-1.70248e-08
-2.95209e-08
-1.51082e-08
5.12715e-09
-9.43132e-09
-4.08933e-09
1.65616e-08
1.87913e-08
-6.80286e-09
1.07721e-08
3.8426e-08
-2.27921e-07
3.38657e-07
-5.62476e-07
1.07705e-07
1.20011e-07
-7.14013e-08
-3.5651e-08
1.84472e-08
1.81941e-08
-8.01955e-09
-2.80606e-08
-1.60522e-08
-5.70975e-09
-4.84292e-09
1.3251e-08
2.51331e-08
-2.13596e-09
-1.10456e-08
7.19377e-09
-3.31266e-08
4.93902e-08
-9.51039e-08
5.64455e-07
-4.93802e-07
3.5796e-08
4.01004e-08
-7.75889e-09
2.07272e-08
2.72637e-08
6.2933e-09
-1.17193e-08
-6.46316e-09
-1.06715e-08
3.82856e-09
2.79287e-08
1.54783e-08
-5.58294e-09
-2.09459e-08
1.88655e-10
3.19224e-08
-9.23609e-09
1.60701e-07
-5.68261e-07
5.12713e-07
-1.34044e-08
3.48587e-09
2.42237e-08
1.87778e-08
3.7668e-08
1.78243e-08
5.97753e-09
3.05023e-09
-7.87096e-09
1.00512e-08
2.65734e-08
6.46482e-09
-1.43078e-08
1.1695e-08
-9.83558e-09
-9.60002e-09
2.111e-07
-2.95263e-07
5.12552e-07
-1.45752e-07
-1.42235e-07
3.59731e-08
1.71826e-08
-3.47818e-09
-2.15169e-09
1.85648e-08
1.26178e-08
1.88279e-09
-1.20775e-09
6.66571e-09
1.76328e-08
7.65728e-10
-3.56001e-09
1.39677e-08
2.24956e-08
-3.79396e-08
1.82112e-08
-6.85747e-08
3.23176e-07
-1.81176e-07
1.3546e-07
2.60245e-08
-2.27037e-08
-2.34221e-08
-7.25716e-09
2.52118e-09
2.67339e-09
-1.16748e-09
6.47542e-09
-2.63878e-09
7.13695e-09
5.82592e-09
2.62823e-09
2.15466e-08
1.60905e-09
2.49304e-08
-1.17866e-07
1.5685e-07
1.44721e-07
3.01811e-07
-2.66725e-08
-4.06054e-08
-1.24385e-08
-1.74336e-08
-1.17892e-08
-3.36542e-09
-5.82705e-09
-5.05273e-09
1.03751e-08
-7.75685e-09
-4.57448e-09
1.76597e-08
8.23017e-09
6.95618e-09
7.84039e-09
-6.89437e-09
3.99014e-08
-8.90228e-08
-1.92519e-07
-2.06479e-07
4.77032e-08
2.71221e-08
1.29462e-08
7.46919e-10
-1.34863e-09
1.05981e-09
-9.84049e-09
-9.25852e-09
1.13042e-08
-6.75829e-09
-1.13908e-08
2.19369e-08
1.81167e-08
-8.23368e-09
4.17507e-10
5.83047e-09
1.27645e-08
1.50016e-07
-3.56948e-07
1.43126e-07
6.37585e-09
2.5649e-08
2.22493e-08
8.71551e-09
-8.97711e-11
-1.51038e-09
-1.24602e-08
-1.00867e-08
9.19112e-09
1.66223e-09
-1.60357e-08
1.60167e-08
2.92633e-08
-9.49822e-09
-1.55262e-08
1.06924e-08
1.83206e-08
-6.15605e-09
4.56335e-08
-8.74689e-09
2.91575e-08
2.11988e-08
1.81572e-08
9.85008e-09
-7.80916e-09
-1.06702e-08
-8.68832e-09
-4.92195e-09
7.96799e-09
8.6538e-09
-1.26825e-08
-2.95276e-09
3.27939e-08
1.18296e-08
-1.25561e-08
1.86941e-09
7.67021e-10
9.97595e-09
4.4316e-08
9.32638e-09
-3.89792e-10
1.64182e-09
4.58886e-09
-7.68116e-09
-2.92097e-08
-2.38275e-08
-8.80027e-10
4.60247e-09
9.90246e-09
1.2311e-08
-8.62942e-09
-1.77579e-08
1.74356e-08
3.73745e-08
1.30571e-08
-5.21343e-09
-4.71268e-09
-2.24655e-08
-2.69488e-08
-1.99886e-08
-2.00499e-08
-2.25551e-08
-2.68553e-08
-3.1169e-08
-4.14027e-08
-2.60057e-08
6.77095e-09
1.07789e-08
9.54186e-09
1.42662e-08
-1.6293e-11
-1.63292e-08
-1.50437e-09
3.29085e-08
3.04136e-08
8.07993e-09
-9.99573e-09
-9.89305e-09
-6.38943e-09
-1.73508e-08
-2.53804e-08
-3.63968e-08
-3.54922e-08
-3.2175e-08
-2.73949e-08
-9.88571e-09
1.34077e-08
1.14739e-08
-9.57031e-10
1.3722e-08
1.90137e-08
5.09618e-09
-7.50126e-09
-2.26383e-10
7.41676e-09
-2.10229e-09
-9.69028e-09
2.36457e-09
1.46713e-08
5.08055e-09
-9.67768e-09
-1.03369e-08
-5.52871e-09
4.29492e-10
8.40652e-09
1.30994e-08
1.80548e-08
1.03778e-08
-1.30536e-08
8.95029e-09
3.56397e-08
2.84709e-08
-2.42427e-09
-2.63537e-08
-2.65676e-08
-2.51396e-08
-2.03998e-08
-2.42748e-09
1.79869e-08
1.49696e-08
6.87453e-09
1.64805e-08
2.46825e-08
2.84589e-08
2.83123e-08
1.88222e-08
1.46212e-08
8.69467e-09
)
;

boundaryField
{
    sides
    {
        type            calculated;
        value           nonuniform List<scalar> 
40
(
-1.30536e-08
8.95029e-09
3.56397e-08
2.84709e-08
-2.42427e-09
-2.63537e-08
-2.65676e-08
-2.51396e-08
-2.03998e-08
-2.42748e-09
1.79869e-08
1.49696e-08
6.87453e-09
1.64805e-08
2.46825e-08
2.84589e-08
2.83123e-08
1.88222e-08
1.46212e-08
8.69467e-09
2.80567e-08
-4.38719e-09
-1.65563e-08
4.37705e-09
4.15446e-09
6.26391e-09
-1.2402e-08
-1.94128e-08
-1.98945e-08
3.9706e-09
4.80787e-09
4.9632e-09
4.30511e-09
9.65222e-09
3.53839e-09
-1.70851e-08
-1.47592e-09
1.09154e-08
-1.18429e-08
-1.19326e-08
)
;
    }
    inlet
    {
        type            calculated;
        value           nonuniform List<scalar> 
20
(
2.80567e-08
1.08349e-08
-6.39945e-09
-4.70337e-09
7.00712e-09
1.16787e-08
5.12715e-09
-5.70975e-09
-1.06715e-08
-7.87096e-09
-1.20775e-09
6.47542e-09
1.03751e-08
1.13042e-08
9.19112e-09
7.96799e-09
9.90246e-09
9.54186e-09
-9.57031e-10
-1.30536e-08
)
;
    }
    outlet
    {
        type            calculated;
        value           uniform 0;
    }
    frontAndBack
    {
        type            empty;
    }
}


// ************************************************************************* //
