/*--------------------------------*- C++ -*----------------------------------*\
  =========                 |
  \\      /  F ield         | OpenFOAM: The Open Source CFD Toolbox
   \\    /   O peration     | Website:  https://openfoam.org
    \\  /    A nd           | Version:  9
     \\/     M anipulation  |
\*---------------------------------------------------------------------------*/
FoamFile
{
    format      ascii;
    class       volVectorField;
    location    "71";
    object      ddt0(hU);
}
// * * * * * * * * * * * * * * * * * * * * * * * * * * * * * * * * * * * * * //

dimensions      [0 2 -2 0 0 0 0];

internalField   nonuniform List<vector> 
400
(
(1.89245e-09 -4.21065e-10 0)
(-1.8234e-09 1.25081e-09 0)
(-3.42022e-09 1.77538e-10 0)
(-3.32429e-09 -6.29473e-10 0)
(-1.28952e-09 7.58906e-10 0)
(1.06168e-09 4.20594e-12 0)
(1.70803e-09 1.1192e-09 0)
(2.26131e-09 -1.38878e-10 0)
(-2.04862e-10 1.05055e-10 0)
(4.49001e-10 -1.04077e-09 0)
(3.08112e-10 -2.1021e-09 0)
(3.31323e-09 -4.82424e-10 0)
(3.80641e-09 -2.23648e-09 0)
(2.49388e-09 -1.39781e-09 0)
(2.38228e-09 -2.17984e-09 0)
(-1.08067e-09 -2.60479e-09 0)
(-2.42629e-09 -1.71604e-09 0)
(-1.12133e-09 -2.15713e-10 0)
(-2.76656e-09 -9.70248e-11 0)
(-3.21325e-09 3.89974e-10 0)
(1.45476e-09 2.50112e-10 0)
(-4.43057e-10 1.953e-09 0)
(-2.85653e-09 -4.94374e-10 0)
(-2.78423e-09 1.42314e-11 0)
(-1.02747e-09 2.04033e-09 0)
(6.86266e-10 9.89048e-10 0)
(1.15259e-09 1.74661e-09 0)
(1.42723e-09 1.29721e-10 0)
(1.1409e-09 -1.9307e-09 0)
(-1.78423e-09 -2.38486e-09 0)
(1.73276e-09 -3.87106e-09 0)
(2.52057e-09 -3.28186e-09 0)
(3.02076e-09 -4.20799e-09 0)
(3.02378e-09 -4.30409e-09 0)
(1.42578e-09 -4.59408e-09 0)
(9.14542e-10 -5.78313e-09 0)
(-4.11454e-10 -5.32183e-09 0)
(-6.37953e-10 -2.24969e-09 0)
(1.5066e-10 5.08359e-10 0)
(-1.22232e-09 6.76918e-10 0)
(-6.46209e-10 2.64431e-10 0)
(-3.45238e-10 7.20188e-11 0)
(-1.34152e-09 3.98027e-10 0)
(-1.1801e-09 3.20545e-09 0)
(-2.46207e-10 2.78666e-09 0)
(-9.42741e-10 1.89629e-09 0)
(6.20022e-10 1.20803e-09 0)
(-3.79424e-10 -6.35157e-10 0)
(1.56032e-09 -2.74524e-09 0)
(1.1867e-09 -7.36052e-09 0)
(-1.36567e-09 2.23931e-10 0)
(3.82825e-09 -8.07503e-09 0)
(1.01276e-09 -4.00508e-09 0)
(1.85194e-09 -3.15798e-09 0)
(2.24907e-09 -4.34501e-09 0)
(1.29212e-09 -5.8838e-09 0)
(4.552e-10 -7.0705e-09 0)
(1.62855e-09 -5.12767e-09 0)
(3.11186e-09 -1.94182e-09 0)
(7.70736e-10 -1.01709e-09 0)
(-1.34323e-09 -2.01957e-09 0)
(4.62498e-10 -1.22815e-09 0)
(6.73626e-10 3.58154e-09 0)
(6.68838e-10 5.93374e-09 0)
(-8.36411e-10 2.85147e-09 0)
(-1.23865e-09 1.10441e-09 0)
(-2.04927e-09 8.23475e-10 0)
(1.12075e-09 -1.97858e-09 0)
(-4.59982e-09 -3.95864e-10 0)
(8.21997e-09 -6.86622e-09 0)
(-2.42079e-09 -4.05595e-09 0)
(-7.26802e-09 5.42233e-09 0)
(6.77141e-09 -5.43875e-09 0)
(-1.12516e-09 -2.78783e-10 0)
(5.50527e-11 -1.29673e-10 0)
(2.01499e-09 -4.17154e-09 0)
(-3.40081e-10 -6.32594e-09 0)
(-7.71241e-10 -5.13066e-09 0)
(2.08231e-09 -3.20579e-09 0)
(3.71885e-09 -1.53769e-09 0)
(2.34927e-11 -2.87621e-09 0)
(2.05133e-09 3.11978e-11 0)
(2.92978e-09 5.36112e-09 0)
(1.18808e-09 5.32728e-09 0)
(-1.06444e-09 9.10741e-10 0)
(-2.73471e-09 2.99971e-10 0)
(-1.69886e-09 -7.59199e-10 0)
(-3.55284e-09 3.92133e-09 0)
(3.8362e-09 -6.07305e-09 0)
(-1.31396e-08 2.0523e-08 0)
(2.43889e-08 -1.08355e-08 0)
(-1.60332e-08 1.52814e-08 0)
(-1.46248e-08 1.26745e-08 0)
(7.55433e-09 1.19648e-10 0)
(-6.54285e-10 9.73313e-10 0)
(-1.97827e-09 -5.23805e-10 0)
(-7.86537e-10 -2.7798e-09 0)
(-1.24669e-09 -1.66198e-09 0)
(1.03649e-09 8.20949e-10 0)
(5.06692e-09 6.01628e-10 0)
(1.51308e-09 -9.85021e-10 0)
(3.72737e-09 2.77871e-09 0)
(3.56028e-09 4.86818e-09 0)
(1.01674e-09 1.40621e-09 0)
(-1.66587e-09 -1.79944e-09 0)
(-2.57677e-09 -1.19054e-09 0)
(-1.33755e-09 2.36674e-09 0)
(-6.85388e-09 1.16267e-09 0)
(1.2434e-08 1.22363e-08 0)
(-6.64584e-09 1.80976e-08 0)
(-9.65604e-09 2.60673e-08 0)
(2.9692e-08 -1.2572e-08 0)
(-3.085e-08 2.40423e-08 0)
(-1.84609e-08 1.40698e-08 0)
(5.13646e-09 9.98823e-10 0)
(2.68752e-09 -2.90393e-10 0)
(-1.43591e-09 4.28551e-10 0)
(-3.05319e-09 3.16093e-09 0)
(-1.89352e-09 6.36122e-09 0)
(2.46314e-09 3.3384e-09 0)
(1.93969e-09 2.25317e-09 0)
(3.84305e-09 4.9495e-09 0)
(2.58291e-09 2.94783e-09 0)
(-8.60777e-11 -2.21516e-09 0)
(-1.23859e-09 -3.25012e-09 0)
(-8.7215e-10 -6.83313e-10 0)
(-5.53939e-09 2.50259e-09 0)
(7.13008e-09 2.85315e-09 0)
(-7.66245e-09 2.07901e-08 0)
(5.1354e-08 -2.85431e-08 0)
(-7.12457e-08 2.0108e-07 0)
(2.96886e-09 1.45185e-08 0)
(2.82174e-08 -1.18553e-08 0)
(-2.4841e-08 7.47056e-09 0)
(-1.39214e-08 3.16073e-09 0)
(3.39545e-09 -1.20551e-09 0)
(3.83349e-09 1.07083e-09 0)
(-1.65925e-11 6.00967e-09 0)
(-2.83028e-09 9.37604e-09 0)
(-2.52393e-09 4.76378e-09 0)
(1.03941e-09 4.56067e-09 0)
(2.49664e-09 5.2744e-09 0)
(2.92888e-10 9.55923e-10 0)
(-9.55649e-10 -2.96142e-09 0)
(-2.30316e-10 -2.17909e-09 0)
(-6.45774e-10 -1.15503e-10 0)
(-1.47281e-09 1.65133e-09 0)
(2.28582e-09 9.56607e-09 0)
(-1.17553e-08 -9.55667e-09 0)
(1.74283e-07 4.46501e-09 0)
(1.08812e-07 -2.22149e-07 0)
(-2.54674e-07 -2.63099e-08 0)
(-2.02128e-08 -1.92828e-08 0)
(8.61044e-09 -1.72061e-08 0)
(-3.31506e-09 -2.60585e-09 0)
(4.25195e-09 -5.92968e-10 0)
(7.62049e-09 9.09172e-10 0)
(3.11672e-09 3.32704e-09 0)
(-2.71235e-09 6.07466e-09 0)
(-5.85351e-09 2.72106e-09 0)
(-2.30947e-11 4.27379e-09 0)
(7.32109e-11 3.45433e-09 0)
(-1.58818e-09 -2.22546e-10 0)
(-1.46419e-09 -1.72781e-09 0)
(6.06275e-10 5.09069e-10 0)
(7.62797e-10 -6.41082e-10 0)
(4.88905e-10 -5.60063e-10 0)
(-5.90332e-09 5.44649e-09 0)
(1.01425e-08 -1.24327e-08 0)
(-1.73205e-07 4.19381e-09 0)
(-1.1277e-07 -2.13965e-07 0)
(2.53767e-07 -2.24768e-08 0)
(1.98336e-08 -1.69183e-08 0)
(-1.37479e-09 -1.3517e-08 0)
(1.13251e-08 -1.85291e-09 0)
(9.20704e-09 -1.84241e-10 0)
(9.03106e-09 -4.03889e-09 0)
(3.99407e-09 -2.61363e-09 0)
(-1.01209e-09 2.1025e-10 0)
(-5.11818e-09 1.42172e-09 0)
(-6.88014e-10 1.55687e-09 0)
(-1.83891e-09 5.40505e-10 0)
(-2.83867e-09 -5.20605e-10 0)
(-8.9425e-10 9.0973e-11 0)
(6.11551e-10 1.28558e-09 0)
(-1.51963e-10 -2.71875e-10 0)
(1.15102e-09 -3.57571e-09 0)
(-7.87237e-09 -4.28415e-09 0)
(3.95845e-09 1.35149e-08 0)
(-4.21367e-08 -2.04524e-08 0)
(6.70148e-08 1.8412e-07 0)
(-1.38512e-08 2.97023e-08 0)
(-3.13013e-08 -5.1416e-09 0)
(2.27033e-08 1.1035e-08 0)
(1.41678e-08 4.39973e-09 0)
(1.03281e-09 -8.3288e-11 0)
(1.56215e-09 -4.27556e-09 0)
(6.11503e-09 -4.29013e-09 0)
(2.81076e-09 -3.25257e-09 0)
(-3.73247e-09 -4.14616e-10 0)
(-3.1329e-10 -1.18088e-09 0)
(-2.54131e-09 -1.98834e-09 0)
(-2.71438e-09 -4.15416e-10 0)
(-7.00296e-10 7.04294e-10 0)
(7.35519e-10 3.92366e-10 0)
(-1.02735e-09 -7.66086e-10 0)
(-2.3216e-09 -2.50803e-10 0)
(3.87294e-09 -5.2357e-09 0)
(-5.16467e-09 4.85166e-09 0)
(-8.86433e-09 3.22989e-08 0)
(4.36479e-08 6.52682e-08 0)
(-3.4191e-08 6.73969e-09 0)
(1.48111e-08 3.40664e-08 0)
(1.21384e-08 1.47296e-08 0)
(-4.30436e-09 1.79596e-09 0)
(-3.43503e-09 -3.08188e-10 0)
(-1.73343e-10 7.00166e-10 0)
(2.32708e-09 -1.88139e-09 0)
(1.58033e-09 -3.16989e-09 0)
(-1.00339e-09 -1.9993e-09 0)
(3.46424e-10 -1.99601e-09 0)
(-2.32866e-09 -3.63771e-09 0)
(-2.16605e-09 -9.79142e-10 0)
(-5.85776e-10 1.47783e-10 0)
(2.66899e-10 -1.65968e-09 0)
(9.99662e-11 -3.5446e-10 0)
(-1.78626e-09 9.51851e-10 0)
(-1.5359e-10 3.71663e-09 0)
(1.22352e-08 -4.39961e-09 0)
(7.11737e-08 -6.62563e-09 0)
(1.46433e-09 -4.16206e-08 0)
(-9.9224e-09 -9.52602e-09 0)
(-8.77926e-09 3.70476e-09 0)
(-1.73572e-08 -1.94592e-09 0)
(-4.47117e-09 -7.45514e-10 0)
(-2.32348e-09 1.1123e-09 0)
(-1.28488e-09 3.02115e-09 0)
(1.14702e-10 1.21128e-09 0)
(2.32474e-10 -1.69129e-09 0)
(-8.89272e-11 -1.13326e-09 0)
(3.47209e-10 -1.47523e-09 0)
(-1.96677e-09 -4.30927e-09 0)
(-1.56875e-09 -2.35812e-09 0)
(-9.79728e-10 -2.81206e-10 0)
(1.5873e-10 -2.63106e-09 0)
(1.11076e-09 -1.09088e-09 0)
(1.52789e-09 1.58654e-09 0)
(2.59117e-09 2.17898e-09 0)
(-1.42229e-08 2.31795e-09 0)
(-4.96323e-08 -2.14786e-08 0)
(-1.36016e-08 -6.33974e-08 0)
(1.19391e-08 -1.80727e-08 0)
(1.57266e-08 -1.36913e-08 0)
(8.0663e-09 -4.91042e-09 0)
(1.0804e-09 -9.31263e-10 0)
(7.22581e-10 1.63312e-09 0)
(1.7457e-10 4.4289e-09 0)
(-1.10126e-09 2.40873e-09 0)
(-2.0261e-09 -2.05518e-09 0)
(-2.90369e-10 -1.58358e-09 0)
(-2.82494e-10 -1.14914e-09 0)
(-1.75422e-09 -4.21639e-09 0)
(-6.67917e-10 -3.60522e-09 0)
(-1.23928e-09 8.87788e-11 0)
(-7.60727e-10 -7.21733e-10 0)
(1.75403e-09 -2.33664e-09 0)
(3.44087e-09 -2.08475e-10 0)
(2.6341e-11 -1.81142e-09 0)
(1.34089e-09 -2.71682e-09 0)
(1.57861e-09 1.64605e-08 0)
(-4.89735e-08 3.59616e-08 0)
(2.80206e-08 1.15298e-08 0)
(1.09392e-08 4.28786e-09 0)
(2.70564e-09 -1.67468e-09 0)
(3.3227e-09 -1.1051e-09 0)
(2.66855e-09 1.46282e-09 0)
(4.96388e-10 3.25895e-09 0)
(-3.45111e-09 2.54611e-10 0)
(-3.93163e-09 -4.33807e-09 0)
(1.06269e-09 -2.47399e-09 0)
(-9.71896e-10 -1.63275e-09 0)
(-1.05684e-09 -3.57899e-09 0)
(7.54445e-10 -4.16729e-09 0)
(-7.86461e-10 4.42196e-10 0)
(-2.25912e-09 2.94339e-09 0)
(4.84561e-10 -1.00236e-09 0)
(2.45026e-09 -3.90065e-09 0)
(3.34468e-09 -4.82876e-09 0)
(-2.39879e-10 -3.79217e-09 0)
(-5.32946e-09 -2.77649e-09 0)
(5.69121e-09 1.53657e-08 0)
(1.88398e-09 1.14714e-08 0)
(4.30114e-09 3.25991e-10 0)
(2.86218e-09 -9.86359e-10 0)
(2.00107e-09 -8.38988e-11 0)
(2.39888e-09 1.2329e-09 0)
(-1.75093e-09 2.07639e-10 0)
(-6.27648e-09 -3.17883e-09 0)
(-3.70247e-09 -5.70695e-09 0)
(4.37224e-09 -2.46711e-09 0)
(-9.55408e-10 -1.83258e-09 0)
(-1.12515e-10 -2.78863e-09 0)
(2.34966e-09 -3.94723e-09 0)
(5.54268e-10 -8.79e-10 0)
(-2.92163e-09 5.11564e-09 0)
(-2.50249e-09 2.41501e-09 0)
(1.26962e-09 -4.69503e-09 0)
(1.66121e-09 -7.6122e-09 0)
(4.11113e-10 -8.28953e-09 0)
(2.75868e-09 -2.4251e-09 0)
(5.09235e-09 1.70875e-09 0)
(2.27995e-09 7.16631e-10 0)
(1.57704e-09 -8.05947e-10 0)
(7.84511e-10 -1.81501e-09 0)
(6.90084e-10 -5.18158e-11 0)
(-2.61061e-09 -3.14161e-10 0)
(-6.84896e-09 -2.60863e-09 0)
(-7.49182e-09 -4.69691e-09 0)
(-7.57247e-10 -4.10646e-09 0)
(7.9974e-09 -8.47019e-10 0)
(-5.64117e-10 -6.54922e-10 0)
(4.07872e-10 -1.56506e-09 0)
(2.66172e-09 -3.43984e-09 0)
(1.97691e-09 -3.57321e-09 0)
(-2.24158e-09 1.84344e-09 0)
(-3.96788e-09 4.55298e-09 0)
(-1.81515e-09 -9.62931e-10 0)
(1.13054e-10 -6.32309e-09 0)
(9.01298e-10 -5.86427e-09 0)
(-5.31526e-10 -4.94164e-09 0)
(2.46731e-10 -3.45273e-09 0)
(1.13639e-09 -2.23427e-09 0)
(8.63959e-10 -3.78707e-09 0)
(-7.54182e-11 -3.19192e-09 0)
(-4.0516e-09 -2.59956e-09 0)
(-8.18905e-09 -2.12994e-09 0)
(-9.47914e-09 -1.89278e-09 0)
(-5.08653e-09 -1.05863e-09 0)
(3.24105e-09 1.34246e-09 0)
(8.67083e-09 1.95997e-09 0)
(-5.59441e-10 1.07709e-09 0)
(-5.67953e-11 4.63944e-10 0)
(1.11563e-09 -2.42952e-09 0)
(1.77605e-09 -6.11348e-09 0)
(-1.57619e-10 -4.61168e-09 0)
(-2.44521e-09 1.65707e-09 0)
(-2.67234e-09 3.05354e-09 0)
(-9.30156e-10 7.59894e-10 0)
(-6.95018e-10 -3.41317e-10 0)
(-1.667e-10 5.17681e-10 0)
(1.45008e-09 -4.80109e-10 0)
(1.95405e-09 -1.85936e-09 0)
(1.69362e-09 -2.58718e-09 0)
(-1.19112e-09 -3.72089e-09 0)
(-5.08104e-09 -3.45407e-09 0)
(-7.87373e-09 -7.66535e-10 0)
(-5.52466e-09 3.52305e-09 0)
(1.0587e-09 6.76735e-09 0)
(5.35091e-09 7.95356e-09 0)
(4.31127e-09 4.35049e-09 0)
(-1.09402e-09 1.67019e-09 0)
(-7.19947e-10 2.04941e-09 0)
(-1.47342e-09 -7.30422e-10 0)
(-2.20759e-10 -5.97537e-09 0)
(1.40618e-09 -7.77503e-09 0)
(6.71166e-10 -2.80397e-09 0)
(-1.0356e-09 3.15855e-09 0)
(-1.64322e-09 4.80999e-09 0)
(-1.11383e-09 4.9465e-09 0)
(-8.25122e-10 5.93791e-09 0)
(1.0736e-09 5.96585e-09 0)
(3.70323e-09 3.49546e-09 0)
(2.9453e-09 1.24974e-09 0)
(6.6257e-10 -2.51088e-10 0)
(-1.31681e-09 -4.17423e-10 0)
(-8.32504e-10 2.80937e-09 0)
(3.24704e-09 8.26499e-09 0)
(6.53915e-09 1.1058e-08 0)
(3.48473e-09 9.95246e-09 0)
(-3.58393e-09 4.48643e-09 0)
(-1.47572e-09 7.5875e-10 0)
(-1.05767e-09 1.22773e-09 0)
(-3.45969e-09 1.14976e-10 0)
(-2.2563e-09 -2.45005e-09 0)
(1.84692e-09 -3.81944e-09 0)
(2.98569e-09 -2.1552e-09 0)
(6.98989e-10 1.03112e-09 0)
(-1.62285e-09 2.53785e-09 0)
(-1.39299e-09 3.06601e-09 0)
(-2.95109e-11 3.51755e-09 0)
(8.64368e-10 4.84179e-09 0)
(1.75079e-09 3.15599e-09 0)
(2.94049e-09 1.59794e-09 0)
(2.69157e-09 9.68047e-10 0)
(2.54589e-09 8.03686e-10 0)
(5.16726e-09 2.20716e-09 0)
(8.45108e-09 4.52361e-09 0)
(7.70782e-09 5.42728e-09 0)
(-1.29941e-11 4.48947e-09 0)
(-9.94085e-09 1.87941e-09 0)
)
;

boundaryField
{
    sides
    {
        type            calculated;
        value           nonuniform List<vector> 
40
(
(-1.47572e-09 0 0)
(-1.05767e-09 0 0)
(-3.45969e-09 0 0)
(-2.2563e-09 0 0)
(1.84692e-09 0 0)
(2.98569e-09 0 0)
(6.98989e-10 0 0)
(-1.62285e-09 0 0)
(-1.39299e-09 0 0)
(-2.95109e-11 0 0)
(8.64368e-10 0 0)
(1.75079e-09 0 0)
(2.94049e-09 0 0)
(2.69157e-09 0 0)
(2.54589e-09 0 0)
(5.16726e-09 0 0)
(8.45108e-09 0 0)
(7.70782e-09 0 0)
(-1.29941e-11 0 0)
(-9.94085e-09 0 0)
(1.89245e-09 0 0)
(-1.8234e-09 0 0)
(-3.42022e-09 0 0)
(-3.32429e-09 0 0)
(-1.28952e-09 0 0)
(1.06168e-09 0 0)
(1.70803e-09 0 0)
(2.26131e-09 0 0)
(-2.04862e-10 0 0)
(4.49001e-10 0 0)
(3.08112e-10 0 0)
(3.31323e-09 0 0)
(3.80641e-09 0 0)
(2.49388e-09 0 0)
(2.38228e-09 0 0)
(-1.08067e-09 0 0)
(-2.42629e-09 0 0)
(-1.12133e-09 0 0)
(-2.76656e-09 0 0)
(-3.21325e-09 0 0)
)
;
    }
    inlet
    {
        type            calculated;
        value           uniform (0 0 0);
    }
    outlet
    {
        type            calculated;
        value           nonuniform List<vector> 
20
(
(-3.21325e-09 3.89974e-10 0)
(-1.22232e-09 6.76918e-10 0)
(7.70736e-10 -1.01709e-09 0)
(3.71885e-09 -1.53769e-09 0)
(5.06692e-09 6.01628e-10 0)
(2.46314e-09 3.3384e-09 0)
(-2.52393e-09 4.76378e-09 0)
(-5.85351e-09 2.72106e-09 0)
(-5.11818e-09 1.42172e-09 0)
(-3.73247e-09 -4.14616e-10 0)
(-1.00339e-09 -1.9993e-09 0)
(-8.89272e-11 -1.13326e-09 0)
(-2.90369e-10 -1.58358e-09 0)
(1.06269e-09 -2.47399e-09 0)
(4.37224e-09 -2.46711e-09 0)
(7.9974e-09 -8.47019e-10 0)
(8.67083e-09 1.95997e-09 0)
(4.31127e-09 4.35049e-09 0)
(-3.58393e-09 4.48643e-09 0)
(-9.94085e-09 1.87941e-09 0)
)
;
    }
    frontAndBack
    {
        type            empty;
    }
}


// ************************************************************************* //
