/*--------------------------------*- C++ -*----------------------------------*\
  =========                 |
  \\      /  F ield         | OpenFOAM: The Open Source CFD Toolbox
   \\    /   O peration     | Website:  https://openfoam.org
    \\  /    A nd           | Version:  9
     \\/     M anipulation  |
\*---------------------------------------------------------------------------*/
FoamFile
{
    format      ascii;
    class       volVectorField;
    location    "71";
    object      hU;
}
// * * * * * * * * * * * * * * * * * * * * * * * * * * * * * * * * * * * * * //

dimensions      [0 2 -1 0 0 0 0];

internalField   nonuniform List<vector> 
400
(
(0.001 -2.43906e-08 0)
(0.00100004 -7.03878e-08 0)
(0.00100012 -1.13159e-07 0)
(0.00100024 -1.52513e-07 0)
(0.00100039 -1.87236e-07 0)
(0.00100058 -2.16476e-07 0)
(0.00100078 -2.36388e-07 0)
(0.00100099 -2.4489e-07 0)
(0.00100118 -2.36061e-07 0)
(0.00100132 -2.11294e-07 0)
(0.0010014 -1.68604e-07 0)
(0.0010014 -1.28431e-07 0)
(0.00100129 -9.90481e-08 0)
(0.00100111 -9.32054e-08 0)
(0.00100087 -1.00006e-07 0)
(0.00100064 -1.35943e-07 0)
(0.00100044 -1.56675e-07 0)
(0.00100034 -2.01062e-07 0)
(0.00100026 -1.88509e-07 0)
(0.00100033 -2.68371e-07 0)
(0.001 -2.68342e-08 0)
(0.00100005 -7.84604e-08 0)
(0.00100013 -1.28207e-07 0)
(0.00100026 -1.74292e-07 0)
(0.00100042 -2.13125e-07 0)
(0.00100062 -2.39573e-07 0)
(0.00100084 -2.44558e-07 0)
(0.00100108 -2.19184e-07 0)
(0.00100129 -1.54107e-07 0)
(0.00100147 -4.79381e-08 0)
(0.00100156 9.33229e-08 0)
(0.00100154 2.47443e-07 0)
(0.00100141 3.89486e-07 0)
(0.00100119 4.76271e-07 0)
(0.00100092 5.04316e-07 0)
(0.00100067 4.51185e-07 0)
(0.00100048 3.78313e-07 0)
(0.00100036 2.57859e-07 0)
(0.00100033 2.0597e-07 0)
(0.00100028 8.1053e-08 0)
(0.001 -5.24824e-08 0)
(0.00100004 -1.58838e-07 0)
(0.00100013 -2.67041e-07 0)
(0.00100026 -3.73868e-07 0)
(0.00100043 -4.73229e-07 0)
(0.00100064 -5.54396e-07 0)
(0.0010009 -6.01837e-07 0)
(0.00100117 -5.96209e-07 0)
(0.00100143 -5.17717e-07 0)
(0.00100164 -3.5267e-07 0)
(0.00100176 -1.10315e-07 0)
(0.00100175 1.62064e-07 0)
(0.00100159 4.01773e-07 0)
(0.0010013 5.19646e-07 0)
(0.00100094 4.98691e-07 0)
(0.00100062 3.53155e-07 0)
(0.00100037 2.0305e-07 0)
(0.00100026 4.66792e-08 0)
(0.00100022 -2.96046e-09 0)
(0.00100029 -1.17466e-07 0)
(0.001 -7.33748e-08 0)
(0.00100004 -2.22374e-07 0)
(0.00100013 -3.75192e-07 0)
(0.00100026 -5.30554e-07 0)
(0.00100045 -6.80256e-07 0)
(0.00100069 -8.08778e-07 0)
(0.00100099 -8.87327e-07 0)
(0.00100134 -8.84495e-07 0)
(0.00100171 -7.55644e-07 0)
(0.00100203 -4.76457e-07 0)
(0.00100221 -2.36321e-08 0)
(0.00100219 4.93441e-07 0)
(0.00100192 9.36843e-07 0)
(0.00100146 1.13945e-06 0)
(0.00100097 1.05408e-06 0)
(0.00100058 7.42529e-07 0)
(0.00100041 4.24078e-07 0)
(0.00100035 1.7097e-07 0)
(0.0010004 1.02129e-07 0)
(0.00100034 -2.72875e-10 0)
(0.001 -9.06941e-08 0)
(0.00100004 -2.77933e-07 0)
(0.00100012 -4.77159e-07 0)
(0.00100025 -6.94075e-07 0)
(0.00100044 -9.20619e-07 0)
(0.00100072 -1.13834e-06 0)
(0.00100109 -1.29758e-06 0)
(0.00100155 -1.33623e-06 0)
(0.00100206 -1.17605e-06 0)
(0.00100256 -7.77897e-07 0)
(0.0010029 -1.71071e-07 0)
(0.00100288 5.81224e-07 0)
(0.00100244 1.23294e-06 0)
(0.00100167 1.51205e-06 0)
(0.00100086 1.37494e-06 0)
(0.00100031 9.6439e-07 0)
(0.00100013 5.81975e-07 0)
(0.00100021 3.15836e-07 0)
(0.00100036 2.6277e-07 0)
(0.00100043 1.67403e-07 0)
(0.001 -1.02868e-07 0)
(0.00100003 -3.18032e-07 0)
(0.00100009 -5.6199e-07 0)
(0.00100019 -8.44991e-07 0)
(0.00100038 -1.17317e-06 0)
(0.00100068 -1.5248e-06 0)
(0.00100115 -1.85821e-06 0)
(0.00100178 -2.05356e-06 0)
(0.00100254 -1.9115e-06 0)
(0.00100326 -1.19805e-06 0)
(0.00100377 8.74342e-08 0)
(0.00100378 1.54546e-06 0)
(0.00100309 2.43816e-06 0)
(0.00100192 2.30688e-06 0)
(0.00100082 1.43018e-06 0)
(0.00100019 4.92301e-07 0)
(0.00100017 1.39188e-08 0)
(0.00100037 -8.38447e-08 0)
(0.00100064 6.12068e-08 0)
(0.00100054 4.97954e-08 0)
(0.001 -1.0192e-07 0)
(0.001 -3.32624e-07 0)
(0.00100002 -6.01554e-07 0)
(0.00100008 -9.62556e-07 0)
(0.00100021 -1.39327e-06 0)
(0.00100048 -1.94644e-06 0)
(0.001001 -2.48851e-06 0)
(0.00100188 -3.08321e-06 0)
(0.00100321 -3.23192e-06 0)
(0.00100473 -2.88012e-06 0)
(0.00100573 -6.59848e-07 0)
(0.00100535 2.55808e-06 0)
(0.00100349 4.82937e-06 0)
(0.00100112 4.73829e-06 0)
(0.000999606 3.02876e-06 0)
(0.000999371 1.264e-06 0)
(0.001 4.32086e-07 0)
(0.00100056 3.28849e-07 0)
(0.00100092 5.63713e-07 0)
(0.00100066 5.34014e-07 0)
(0.000999996 -9.17264e-08 0)
(0.000999969 -2.87763e-07 0)
(0.000999907 -5.76636e-07 0)
(0.000999875 -9.57406e-07 0)
(0.000999877 -1.57832e-06 0)
(0.00100009 -2.34501e-06 0)
(0.0010005 -3.40163e-06 0)
(0.00100152 -4.12244e-06 0)
(0.00100308 -4.37139e-06 0)
(0.00100602 -2.55106e-06 0)
(0.00100911 7.41561e-07 0)
(0.00100913 4.26334e-06 0)
(0.0010055 4.71747e-06 0)
(0.00100073 2.78199e-06 0)
(0.000998149 7.3547e-07 0)
(0.000998273 -2.74512e-07 0)
(0.000999796 -2.84988e-07 0)
(0.00100087 -7.99173e-09 0)
(0.00100133 2.13474e-07 0)
(0.00100085 1.02991e-07 0)
(0.000999995 -4.84342e-08 0)
(0.000999915 -2.03033e-07 0)
(0.000999756 -3.86323e-07 0)
(0.00099953 -7.35412e-07 0)
(0.000999286 -1.33885e-06 0)
(0.000999209 -2.48128e-06 0)
(0.000999706 -4.68682e-06 0)
(0.00100139 -8.06671e-06 0)
(0.00100491 -1.32847e-05 0)
(0.00100957 -1.49147e-05 0)
(0.00101188 3.82958e-06 0)
(0.00100894 1.87256e-05 0)
(0.00100221 1.57795e-05 0)
(0.000997566 5.74096e-06 0)
(0.000996885 -3.16295e-07 0)
(0.00099846 -1.26364e-06 0)
(0.00100027 -9.42139e-08 0)
(0.001001 6.35453e-07 0)
(0.00100107 6.52617e-07 0)
(0.00100054 2.43738e-07 0)
(0.000999804 -1.93181e-08 0)
(0.00100017 -6.63113e-08 0)
(0.000999215 -1.51338e-07 0)
(0.000999903 -2.48728e-07 0)
(0.00099752 -5.92049e-07 0)
(0.000998842 -1.131e-06 0)
(0.000993346 -2.88349e-06 0)
(0.00099753 -5.59303e-06 0)
(0.000991665 -1.15419e-05 0)
(0.000915828 -1.27059e-05 0)
(0.000951468 2.83211e-07 0)
(0.00101022 1.46419e-05 0)
(0.000990949 1.30848e-05 0)
(0.000983976 5.14177e-06 0)
(0.000989586 1.94277e-07 0)
(0.00099628 -7.81737e-07 0)
(0.000999235 -1.11825e-07 0)
(0.000999411 2.48324e-07 0)
(0.000998646 1.74337e-07 0)
(0.000998503 -1.85099e-07 0)
(0.000999804 1.31238e-08 0)
(0.00100017 4.58369e-08 0)
(0.000999215 1.17505e-07 0)
(0.000999902 2.00331e-07 0)
(0.000997517 5.29844e-07 0)
(0.000998836 1.05159e-06 0)
(0.000993337 2.78635e-06 0)
(0.000997518 5.47266e-06 0)
(0.000991649 1.13963e-05 0)
(0.000915808 1.25511e-05 0)
(0.00095143 -4.69078e-07 0)
(0.0010102 -1.49048e-05 0)
(0.000990945 -1.34054e-05 0)
(0.000983965 -5.5344e-06 0)
(0.000989565 -6.47885e-07 0)
(0.000996241 2.48384e-07 0)
(0.000999193 -4.72459e-07 0)
(0.000999365 -1.00272e-06 0)
(0.000998632 -9.88795e-07 0)
(0.000998453 -8.88794e-07 0)
(0.000999995 4.23767e-08 0)
(0.000999915 1.83453e-07 0)
(0.000999755 3.53454e-07 0)
(0.00099953 6.8797e-07 0)
(0.000999284 1.27703e-06 0)
(0.000999209 2.40148e-06 0)
(0.000999701 4.58868e-06 0)
(0.00100139 7.94261e-06 0)
(0.0010049 1.31315e-05 0)
(0.00100958 1.47177e-05 0)
(0.00101189 -4.06792e-06 0)
(0.0010089 -1.90071e-05 0)
(0.00100214 -1.60965e-05 0)
(0.000997474 -6.12317e-06 0)
(0.000996812 -8.39247e-08 0)
(0.000998398 7.7604e-07 0)
(0.00100016 -4.26833e-07 0)
(0.00100085 -1.30529e-06 0)
(0.00100088 -1.37945e-06 0)
(0.00100037 -1.25076e-06 0)
(0.000999996 8.57837e-08 0)
(0.000999967 2.69398e-07 0)
(0.000999905 5.44848e-07 0)
(0.000999871 9.11095e-07 0)
(0.000999869 1.51425e-06 0)
(0.00100008 2.26125e-06 0)
(0.00100048 3.29321e-06 0)
(0.00100148 3.99102e-06 0)
(0.00100303 4.21196e-06 0)
(0.00100594 2.36334e-06 0)
(0.00100901 -9.82472e-07 0)
(0.00100906 -4.54284e-06 0)
(0.00100543 -5.02221e-06 0)
(0.00100066 -3.13031e-06 0)
(0.000998056 -1.13105e-06 0)
(0.000998132 -2.50579e-07 0)
(0.00099962 -3.22199e-07 0)
(0.00100064 -7.41836e-07 0)
(0.00100106 -9.67357e-07 0)
(0.00100055 -1.07375e-06 0)
(0.001 9.60569e-08 0)
(0.001 3.14939e-07 0)
(0.00100002 5.71588e-07 0)
(0.00100007 9.18491e-07 0)
(0.0010002 1.3344e-06 0)
(0.00100046 1.87054e-06 0)
(0.00100097 2.39802e-06 0)
(0.00100185 2.97463e-06 0)
(0.00100317 3.11179e-06 0)
(0.00100468 2.7337e-06 0)
(0.00100568 5.08565e-07 0)
(0.00100527 -2.75274e-06 0)
(0.00100338 -5.07812e-06 0)
(0.00100096 -5.07116e-06 0)
(0.000999408 -3.44912e-06 0)
(0.00099912 -1.79343e-06 0)
(0.000999742 -1.02083e-06 0)
(0.00100025 -1.05995e-06 0)
(0.00100061 -1.30742e-06 0)
(0.00100024 -1.51528e-06 0)
(0.001 9.72848e-08 0)
(0.00100003 3.01969e-07 0)
(0.00100008 5.35372e-07 0)
(0.00100018 8.06521e-07 0)
(0.00100036 1.12241e-06 0)
(0.00100066 1.45908e-06 0)
(0.00100112 1.77714e-06 0)
(0.00100174 1.95007e-06 0)
(0.00100248 1.78237e-06 0)
(0.00100317 1.03532e-06 0)
(0.00100365 -2.78251e-07 0)
(0.00100363 -1.78202e-06 0)
(0.00100292 -2.71179e-06 0)
(0.00100171 -2.63257e-06 0)
(0.00100058 -1.77893e-06 0)
(0.000999902 -8.95025e-07 0)
(0.000999857 -4.2752e-07 0)
(0.00099998 -4.4924e-07 0)
(0.00100022 -6.16925e-07 0)
(0.00100001 -8.48298e-07 0)
(0.001 8.55657e-08 0)
(0.00100004 2.63727e-07 0)
(0.00100011 4.54113e-07 0)
(0.00100024 6.61983e-07 0)
(0.00100043 8.78437e-07 0)
(0.00100069 1.08427e-06 0)
(0.00100105 1.22877e-06 0)
(0.0010015 1.2516e-06 0)
(0.00100199 1.07285e-06 0)
(0.00100248 6.56567e-07 0)
(0.0010028 1.73874e-08 0)
(0.00100274 -7.71908e-07 0)
(0.00100227 -1.452e-06 0)
(0.00100146 -1.77572e-06 0)
(0.00100062 -1.66839e-06 0)
(0.001 -1.34803e-06 0)
(0.000999792 -1.02994e-06 0)
(0.000999765 -9.38459e-07 0)
(0.000999884 -9.45802e-07 0)
(0.000999767 -1.10804e-06 0)
(0.001 6.89897e-08 0)
(0.00100004 2.09592e-07 0)
(0.00100012 3.54197e-07 0)
(0.00100025 5.0152e-07 0)
(0.00100043 6.44094e-07 0)
(0.00100066 7.65304e-07 0)
(0.00100095 8.36391e-07 0)
(0.00100128 8.24605e-07 0)
(0.00100163 6.907e-07 0)
(0.00100191 4.06047e-07 0)
(0.00100206 -4.75441e-08 0)
(0.001002 -5.77673e-07 0)
(0.00100171 -1.03762e-06 0)
(0.0010012 -1.28255e-06 0)
(0.00100065 -1.22967e-06 0)
(0.00100016 -9.9386e-07 0)
(0.000999913 -7.02093e-07 0)
(0.00099974 -5.57765e-07 0)
(0.000999752 -4.87347e-07 0)
(0.000999561 -5.9778e-07 0)
(0.001 5.03138e-08 0)
(0.00100004 1.50055e-07 0)
(0.00100012 2.47292e-07 0)
(0.00100025 3.38867e-07 0)
(0.00100041 4.20808e-07 0)
(0.00100062 4.82034e-07 0)
(0.00100086 5.07263e-07 0)
(0.00100112 4.72369e-07 0)
(0.00100137 3.61347e-07 0)
(0.00100157 1.56367e-07 0)
(0.00100167 -1.16639e-07 0)
(0.0010016 -4.21942e-07 0)
(0.00100139 -6.82553e-07 0)
(0.00100103 -8.42587e-07 0)
(0.00100063 -8.49593e-07 0)
(0.00100022 -7.69671e-07 0)
(0.00099995 -6.37143e-07 0)
(0.000999689 -5.9662e-07 0)
(0.000999628 -5.6092e-07 0)
(0.000999387 -6.84032e-07 0)
(0.001 3.45594e-08 0)
(0.00100004 1.05023e-07 0)
(0.00100011 1.75147e-07 0)
(0.00100023 2.4181e-07 0)
(0.00100038 3.01122e-07 0)
(0.00100056 3.48011e-07 0)
(0.00100076 3.73828e-07 0)
(0.00100097 3.68065e-07 0)
(0.00100116 3.20002e-07 0)
(0.0010013 2.2481e-07 0)
(0.00100136 8.67488e-08 0)
(0.00100131 -7.04072e-08 0)
(0.00100115 -2.06138e-07 0)
(0.00100086 -2.96718e-07 0)
(0.00100054 -3.11131e-07 0)
(0.00100017 -2.80309e-07 0)
(0.000999901 -2.01488e-07 0)
(0.000999613 -1.6819e-07 0)
(0.000999516 -1.17939e-07 0)
(0.000999248 -1.97791e-07 0)
(0.001 -4.10119e-09 0)
(0.00100004 -9.7805e-09 0)
(0.00100012 -1.26939e-08 0)
(0.00100023 -1.4768e-08 0)
(0.00100038 -1.76406e-08 0)
(0.00100056 -2.3726e-08 0)
(0.00100075 -3.44897e-08 0)
(0.00100094 -5.38103e-08 0)
(0.00100111 -8.18169e-08 0)
(0.00100123 -1.21976e-07 0)
(0.00100128 -1.69731e-07 0)
(0.00100121 -2.31354e-07 0)
(0.00100107 -2.90391e-07 0)
(0.00100081 -3.40775e-07 0)
(0.00100053 -3.58933e-07 0)
(0.00100018 -3.67202e-07 0)
(0.000999946 -3.41808e-07 0)
(0.000999609 -3.52606e-07 0)
(0.00099952 -3.27683e-07 0)
(0.000999128 -4.10404e-07 0)
)
;

boundaryField
{
    sides
    {
        type            slip;
    }
    inlet
    {
        type            fixedValue;
        value           uniform (0.001 0 0);
    }
    outlet
    {
        type            zeroGradient;
    }
    frontAndBack
    {
        type            empty;
    }
}


// ************************************************************************* //
