/*--------------------------------*- C++ -*----------------------------------*\
  =========                 |
  \\      /  F ield         | OpenFOAM: The Open Source CFD Toolbox
   \\    /   O peration     | Website:  https://openfoam.org
    \\  /    A nd           | Version:  9
     \\/     M anipulation  |
\*---------------------------------------------------------------------------*/
FoamFile
{
    format      ascii;
    class       surfaceScalarField;
    location    "71";
    object      phi_0;
}
// * * * * * * * * * * * * * * * * * * * * * * * * * * * * * * * * * * * * * //

dimensions      [0 4 -1 0 0 0 0];

internalField   nonuniform List<scalar> 
760
(
5.00009e-06
-9.45559e-11
5.00039e-06
-3.04556e-10
5.00091e-06
-5.10752e-10
5.00161e-06
-7.06545e-10
5.00249e-06
-8.75254e-10
5.00349e-06
-1.00151e-09
5.00455e-06
-1.05512e-09
5.00556e-06
-1.00896e-09
5.00639e-06
-8.28801e-10
5.00692e-06
-5.24299e-10
5.00704e-06
-1.25192e-10
5.00664e-06
3.9703e-10
5.00579e-06
8.54784e-10
5.00468e-06
1.10224e-09
5.00351e-06
1.16943e-09
5.00256e-06
9.51e-10
5.00185e-06
7.1503e-10
5.0016e-06
2.46976e-10
5.0015e-06
1.08555e-10
-3.91233e-10
5.00012e-06
-2.14871e-10
5.00044e-06
-6.31324e-10
5.00098e-06
-1.0449e-09
5.00172e-06
-1.44613e-09
5.00265e-06
-1.80641e-09
5.00374e-06
-2.08984e-09
5.00492e-06
-2.23787e-09
5.0061e-06
-2.18364e-09
5.00712e-06
-1.84944e-09
5.00777e-06
-1.16954e-09
5.00774e-06
-9.8545e-11
5.00725e-06
8.86358e-10
5.00626e-06
1.84222e-09
5.00494e-06
2.41155e-09
5.00367e-06
2.44094e-09
5.00277e-06
1.85548e-09
5.00224e-06
1.24451e-09
5.0019e-06
5.81414e-10
5.00164e-06
3.68821e-10
-1.49224e-10
5.00011e-06
-3.20946e-10
5.00042e-06
-9.51964e-10
5.00095e-06
-1.57957e-09
5.00172e-06
-2.20854e-09
5.00272e-06
-2.80485e-09
5.00394e-06
-3.30929e-09
5.00531e-06
-3.61364e-09
5.00671e-06
-3.58356e-09
5.00792e-06
-3.05837e-09
5.00871e-06
-1.96506e-09
5.00893e-06
-3.12621e-10
5.00825e-06
1.56266e-09
5.00686e-06
3.22381e-09
5.00514e-06
4.12758e-09
5.0035e-06
4.08595e-09
5.0023e-06
3.05247e-09
5.00166e-06
1.88956e-09
5.00147e-06
7.72343e-10
5.00143e-06
3.96029e-10
-2.24628e-10
5.0001e-06
-4.18856e-10
5.0004e-06
-1.26229e-09
5.00094e-06
-2.11687e-09
5.00174e-06
-3.01145e-09
5.00285e-06
-3.91034e-09
5.00428e-06
-4.74192e-09
5.00601e-06
-5.34117e-09
5.00794e-06
-5.52364e-09
5.00983e-06
-4.94866e-09
5.01106e-06
-3.20753e-09
5.01119e-06
-4.29567e-10
5.00999e-06
2.76987e-09
5.00764e-06
5.5655e-09
5.00514e-06
6.6357e-09
5.00347e-06
5.75781e-09
5.00269e-06
3.8261e-09
5.00247e-06
2.11306e-09
5.0023e-06
9.41824e-10
5.00199e-06
7.09435e-10
3.35847e-10
5.00008e-06
-5.00225e-10
5.00034e-06
-1.52084e-09
5.00083e-06
-2.60924e-09
5.00163e-06
-3.81264e-09
5.00285e-06
-5.13348e-09
5.00457e-06
-6.46074e-09
5.00679e-06
-7.56996e-09
5.00941e-06
-8.14349e-09
5.01237e-06
-7.92628e-09
5.01478e-06
-5.5909e-09
5.0148e-06
-4.78569e-10
5.01284e-06
4.77e-09
5.00867e-06
9.75099e-09
5.00459e-06
1.07117e-08
5.00223e-06
8.11732e-09
5.00174e-06
4.32481e-09
5.00204e-06
1.81171e-09
5.00225e-06
7.34595e-10
5.00201e-06
9.54929e-10
6.24576e-10
5.00004e-06
-5.42283e-10
5.00019e-06
-1.67583e-09
5.00054e-06
-2.9468e-09
5.00121e-06
-4.4844e-09
5.0024e-06
-6.33456e-09
5.00452e-06
-8.57695e-09
5.00759e-06
-1.0649e-08
5.01166e-06
-1.22181e-08
5.01551e-06
-1.17815e-08
5.019e-06
-9.04547e-09
5.02021e-06
-1.67265e-09
5.01599e-06
8.95333e-09
5.0095e-06
1.62851e-08
5.00421e-06
1.60166e-08
5.00217e-06
1.01595e-08
5.00249e-06
4.0018e-09
5.00326e-06
1.03836e-09
5.00339e-06
6.1058e-10
5.0028e-06
1.5544e-09
1.4223e-09
4.99998e-06
-5.2264e-10
4.99994e-06
-1.63257e-09
5.00003e-06
-3.03749e-09
5.00036e-06
-4.81399e-09
5.00121e-06
-7.19626e-09
5.00291e-06
-1.02772e-08
5.00679e-06
-1.45303e-08
5.0139e-06
-1.93337e-08
5.02376e-06
-2.15897e-08
5.03089e-06
-1.62607e-08
5.02873e-06
6.30974e-10
5.01672e-06
2.09414e-08
5.00416e-06
2.88151e-08
4.99872e-06
2.14675e-08
5.00057e-06
8.31884e-09
5.00284e-06
1.73088e-09
5.0037e-06
1.69203e-10
5.00365e-06
6.6438e-10
5.00304e-06
2.17273e-09
1.68246e-09
4.99987e-06
-3.8805e-10
4.99955e-06
-1.31805e-09
4.99912e-06
-2.61035e-09
4.99885e-06
-4.54466e-09
4.99932e-06
-7.66948e-09
5.00035e-06
-1.1305e-08
5.00364e-06
-1.78191e-08
5.00981e-06
-2.55015e-08
5.02488e-06
-3.66651e-08
5.05612e-06
-4.74824e-08
5.04991e-06
6.70535e-09
5.02317e-06
4.77997e-08
4.99817e-06
5.38089e-08
4.99349e-06
2.61404e-08
4.99946e-06
2.34697e-09
5.00406e-06
-2.87741e-09
5.00489e-06
-6.6665e-10
5.00371e-06
1.84422e-09
5.0035e-06
2.38819e-09
9.70772e-10
4.99977e-06
-1.56033e-10
4.99915e-06
-7.032e-10
4.99792e-06
-1.37889e-09
4.9961e-06
-2.73343e-09
4.99401e-06
-5.57735e-09
4.99373e-06
-1.10238e-08
4.99945e-06
-2.35315e-08
5.01713e-06
-4.31961e-08
5.05569e-06
-7.52223e-08
5.0668e-06
-5.86257e-08
5.04984e-06
2.38058e-08
4.99649e-06
1.01022e-07
4.9893e-06
6.09983e-08
4.9959e-06
1.95369e-08
5.00018e-06
-1.93741e-09
5.00292e-06
-5.61808e-09
5.00251e-06
-2.67591e-10
5.00183e-06
2.52065e-09
5.00253e-06
1.68075e-09
7.72145e-11
4.99986e-06
-1.49113e-11
4.99921e-06
-5.11178e-11
4.99791e-06
-8.64622e-11
4.9953e-06
-1.26858e-10
4.98989e-06
-1.65965e-10
4.97908e-06
-2.15868e-10
4.95582e-06
-2.67142e-10
4.91296e-06
-3.38251e-10
4.83811e-06
-4.18874e-10
4.77999e-06
-4.38277e-10
4.80426e-06
-5.9133e-10
4.90604e-06
-7.15057e-10
4.96779e-06
-7.24442e-10
4.98822e-06
-8.9728e-10
4.98744e-06
-1.16462e-09
4.98325e-06
-1.42908e-09
4.98455e-06
-1.56029e-09
4.98889e-06
-1.82904e-09
4.99247e-06
-1.89575e-09
-2.58561e-09
4.99986e-06
1.25934e-10
4.99921e-06
6.00648e-10
4.9979e-06
1.21144e-09
4.99529e-06
2.48579e-09
4.98987e-06
5.25428e-09
4.97905e-06
1.06029e-08
4.95577e-06
2.30104e-08
4.91289e-06
4.25434e-08
4.83803e-06
7.44449e-08
4.77975e-06
5.78549e-08
4.80422e-06
-2.51397e-08
4.90599e-06
-1.02445e-07
4.96775e-06
-6.25201e-08
4.98805e-06
-2.12035e-08
4.98735e-06
-4.52014e-10
4.98292e-06
2.99905e-09
4.98442e-06
-3.05268e-09
4.98888e-06
-6.2885e-09
4.99234e-06
-5.35963e-09
-4.98455e-09
4.99977e-06
3.56388e-10
4.99915e-06
1.22094e-09
4.99791e-06
2.44381e-09
4.9961e-06
4.30144e-09
4.99401e-06
7.33768e-09
4.99372e-06
1.0886e-08
4.99942e-06
1.73133e-08
5.01706e-06
2.48939e-08
5.05562e-06
3.59226e-08
5.06707e-06
4.63635e-08
5.04946e-06
-7.5679e-09
4.99608e-06
-4.91357e-08
4.98883e-06
-5.52679e-08
4.99568e-06
-2.8044e-08
5.00009e-06
-4.86103e-09
5.0023e-06
7.92642e-10
5.00165e-06
-2.39105e-09
5.0009e-06
-5.53813e-09
5.00168e-06
-6.13949e-09
-5.95164e-09
4.99986e-06
4.90615e-10
4.99955e-06
1.53963e-09
4.99911e-06
2.88051e-09
4.99882e-06
4.58388e-09
4.99927e-06
6.89283e-09
5.00026e-06
9.89175e-09
5.00347e-06
1.41011e-08
5.0096e-06
1.87678e-08
5.02459e-06
2.09182e-08
5.05555e-06
1.54249e-08
5.04975e-06
-1.71564e-09
5.02283e-06
-2.21611e-08
4.99786e-06
-3.03155e-08
4.99315e-06
-2.33369e-08
4.99863e-06
-1.03431e-08
5.00344e-06
-4.01795e-09
5.00372e-06
-2.67215e-09
5.00235e-06
-4.16713e-09
5.00216e-06
-5.94705e-09
-6.53509e-09
4.99998e-06
5.12584e-10
4.99993e-06
1.58993e-09
5.00001e-06
2.80425e-09
5.0003e-06
4.28001e-09
5.00112e-06
6.06828e-09
5.00279e-06
8.23172e-09
5.00667e-06
1.02139e-08
5.01378e-06
1.16639e-08
5.02356e-06
1.11264e-08
5.03068e-06
8.27443e-09
5.0284e-06
6.4741e-10
5.01625e-06
-1.00384e-08
5.00349e-06
-1.75638e-08
4.99776e-06
-1.76136e-08
4.9994e-06
-1.19855e-08
5.0016e-06
-6.21653e-09
5.00239e-06
-3.46887e-09
5.00212e-06
-3.89751e-09
5.00119e-06
-5.01058e-09
-5.97597e-09
5.00004e-06
4.75089e-10
5.00018e-06
1.4455e-09
5.0005e-06
2.4835e-09
5.00115e-06
3.63261e-09
5.00231e-06
4.89753e-09
5.00439e-06
6.15924e-09
5.00741e-06
7.19386e-09
5.01139e-06
7.6841e-09
5.01512e-06
7.38519e-09
5.01852e-06
4.87957e-09
5.01955e-06
-3.91074e-10
5.01522e-06
-5.70979e-09
5.00853e-06
-1.0882e-08
5.0031e-06
-1.21859e-08
5.00086e-06
-9.75577e-09
5.00099e-06
-6.34998e-09
5.00154e-06
-4.01521e-09
5.00131e-06
-3.66077e-09
5.00035e-06
-4.04811e-09
-4.97544e-09
5.00008e-06
3.97495e-10
5.00032e-06
1.19983e-09
5.00079e-06
2.01339e-09
5.00157e-06
2.86013e-09
5.00274e-06
3.71316e-09
5.0044e-06
4.4984e-09
5.00655e-06
5.04766e-09
5.00908e-06
5.1481e-09
5.01202e-06
4.45022e-09
5.01439e-06
2.50656e-09
5.01413e-06
-1.46696e-10
5.01207e-06
-3.65089e-09
5.00774e-06
-6.55078e-09
5.00348e-06
-7.92057e-09
5.00091e-06
-7.19515e-09
5.00012e-06
-5.55273e-09
5.0001e-06
-3.98775e-09
4.99987e-06
-3.42862e-09
4.99917e-06
-3.34332e-09
-4.17081e-09
5.0001e-06
2.98805e-10
5.00039e-06
9.02576e-10
5.0009e-06
1.50377e-09
5.00167e-06
2.09459e-09
5.00273e-06
2.64905e-09
5.00411e-06
3.10918e-09
5.00578e-06
3.37746e-09
5.00762e-06
3.30757e-09
5.00932e-06
2.75351e-09
5.01026e-06
1.57297e-09
5.01042e-06
-3.0453e-10
5.00902e-06
-2.24216e-09
5.00649e-06
-4.01785e-09
5.00366e-06
-5.08588e-09
5.00153e-06
-5.05935e-09
5.00034e-06
-4.34969e-09
4.9997e-06
-3.34118e-09
4.99917e-06
-2.88865e-09
4.99845e-06
-2.62517e-09
-3.21429e-09
5.0001e-06
1.95509e-10
5.00041e-06
5.94411e-10
5.00092e-06
9.89199e-10
5.00166e-06
1.36253e-09
5.00261e-06
1.69311e-09
5.00377e-06
1.94276e-09
5.00508e-06
2.05737e-09
5.00644e-06
1.95042e-09
5.00764e-06
1.55633e-09
5.00838e-06
8.32771e-10
5.00821e-06
-1.27488e-10
5.00733e-06
-1.35862e-09
5.00569e-06
-2.37634e-09
5.00367e-06
-3.06028e-09
5.00178e-06
-3.16068e-09
5.00033e-06
-2.88778e-09
4.99931e-06
-2.31789e-09
4.99852e-06
-2.09133e-09
4.99772e-06
-1.83075e-09
-2.27694e-09
5.00008e-06
1.11859e-10
5.00037e-06
3.04363e-10
5.00086e-06
4.96835e-10
5.00154e-06
6.78147e-10
5.0024e-06
8.32491e-10
5.0034e-06
9.42132e-10
5.00447e-06
9.86218e-10
5.0055e-06
9.28459e-10
5.00632e-06
7.33885e-10
5.00679e-06
3.62039e-10
5.0068e-06
-1.40013e-10
5.00607e-06
-6.26091e-10
5.00478e-06
-1.08806e-09
5.00314e-06
-1.42206e-09
5.00148e-06
-1.4922e-09
5.00002e-06
-1.42896e-09
4.99888e-06
-1.18063e-09
4.99792e-06
-1.132e-09
4.99706e-06
-9.74953e-10
-1.42426e-09
5.00012e-06
5.00042e-06
5.00091e-06
5.00158e-06
5.00241e-06
5.00336e-06
5.00435e-06
5.00529e-06
5.00602e-06
5.00639e-06
5.00624e-06
5.00561e-06
5.00452e-06
5.0031e-06
5.0016e-06
5.00016e-06
4.99897e-06
4.99784e-06
4.99686e-06
)
;

boundaryField
{
    sides
    {
        type            calculated;
        value           uniform 0;
    }
    inlet
    {
        type            calculated;
        value           nonuniform List<scalar> 
20
(
-5e-06
-5e-06
-5e-06
-5e-06
-5e-06
-5e-06
-5e-06
-5e-06
-5e-06
-5e-06
-5e-06
-5e-06
-5e-06
-5e-06
-5e-06
-5e-06
-5e-06
-5e-06
-5e-06
-5e-06
)
;
    }
    outlet
    {
        type            calculated;
        value           nonuniform List<scalar> 
20
(
5.00189e-06
5.0014e-06
5.00151e-06
5.00143e-06
5.00172e-06
5.002e-06
5.00278e-06
5.00421e-06
5.00343e-06
4.99513e-06
4.99474e-06
5.00265e-06
5.00274e-06
5.00063e-06
4.99935e-06
4.99836e-06
4.99749e-06
4.99678e-06
4.9962e-06
4.99543e-06
)
;
    }
    frontAndBack
    {
        type            empty;
        value           nonuniform List<scalar> 0();
    }
}


// ************************************************************************* //
