2.80937e-05   0.344288
8.78022e-05    4.96233
0.000154994    28.1774
0.000230608     112.29
0.000315699    340.705
0.000411455    472.642
0.000519212    435.468
0.000640475    365.176
0.000776937    301.352
0.000930502    248.992
0.00110331    206.595
0.00129779    172.058
0.00151663    143.665
0.00176291     120.13
0.00204005    100.494
0.00235193    84.0375
 0.0027029    70.2056
0.00309785    58.5643
0.00354231    48.7656
0.00404248    40.5245
0.00460533    33.6036
0.00523873    27.8026
0.00595151    22.9509
0.00675364    18.9025
 0.0076563    15.5321
0.00867209    12.7321
 0.0098152    10.4103
 0.0111016     8.4879
 0.0125492    6.89796
 0.0141782    5.58357
 0.0160115    4.49673
 0.0180745    3.59707
  0.020396     2.8509
 0.0230086    2.23033
 0.0259485    1.71286
  0.029257    1.28136
 0.0329801    0.92498
 0.0371699    0.64115
 0.0418848   0.437063
 0.0471906   0.326672
 0.0528094   0.329465
 0.0581152   0.445008
 0.0628301   0.653066
 0.0670199    0.93962
  0.070743    1.29795
 0.0740515    1.73111
 0.0769914    2.25022
  0.079604    2.87255
 0.0819255    3.62065
 0.0839885     4.5224
 0.0858218    5.61145
 0.0874508    6.92812
 0.0888984    8.52031
 0.0901848    10.4448
 0.0913279    12.7683
 0.0923437    15.5695
 0.0932464    18.9402
 0.0940485    22.9876
 0.0947613    27.8366
 0.0953947    33.6328
 0.0959575    40.5459
 0.0964577    48.7758
 0.0969021    58.5591
 0.0972971    70.1798
 0.0976481    83.9855
   0.09796    100.409
 0.0982371    120.004
 0.0984834    143.489
 0.0987022    171.822
 0.0988967    206.286
 0.0990695      248.6
 0.0992231    300.881
 0.0993595    364.675
 0.0994808    435.198
 0.0995885    473.924
 0.0996843     346.75
 0.0997694    115.776
  0.099845    29.2249
 0.0999122    5.20491
 0.0999719   0.365709
