2.80937e-05    11695.1
8.78022e-05    12138.5
0.000154994    12829.8
0.000230608    12558.5
0.000315699    9808.59
0.000411455     6271.7
0.000519212     4059.1
0.000640475    2869.93
0.000776937    2164.54
0.000930502    1706.55
0.00110331    1384.93
0.00129779    1145.89
0.00151663    960.919
0.00176291     813.54
0.00204005    693.539
0.00235193    594.229
 0.0027029    511.036
0.00309785    440.706
0.00354231    380.845
0.00404248    329.638
0.00460533    285.668
0.00523873    247.806
0.00595151    215.138
0.00675364    186.909
 0.0076563    162.487
0.00867209    141.343
 0.0098152    123.024
 0.0111016    107.141
 0.0125492    93.3563
 0.0141782    81.3761
 0.0160115    70.9376
 0.0180745    61.8029
  0.020396    53.7477
 0.0230086    46.5485
 0.0259485    39.9614
  0.029257    33.6916
 0.0329801    27.3557
 0.0371699    20.4982
 0.0418848    12.7915
 0.0471906    4.23017
 0.0528094    4.70169
 0.0581152    13.2042
 0.0628301    20.8129
 0.0670199    27.5754
  0.070743    33.8438
 0.0740515    40.0718
 0.0769914    46.6337
  0.079604    53.8176
 0.0819255     61.863
 0.0839885    70.9907
 0.0858218    81.4233
 0.0874508    93.3975
 0.0888984    107.174
 0.0901848    123.048
 0.0913279    141.355
 0.0923437    162.481
 0.0932464    186.879
 0.0940485    215.077
 0.0947613    247.705
 0.0953947    285.513
 0.0959575    329.416
 0.0964577    380.537
 0.0969021    440.288
 0.0972971    510.482
 0.0976481    593.504
   0.09796      692.6
 0.0982371    812.327
 0.0984834    959.344
 0.0987022    1143.81
 0.0988967    1382.11
 0.0990695    1702.58
 0.0992231    2158.64
 0.0993595    2860.26
 0.0994808     4040.8
 0.0995885    6230.84
 0.0996843    9753.31
 0.0997694    12550.9
  0.099845    12873.1
 0.0999122      12187
 0.0999719    11743.2
