2.80937e-05 1.67072e-05
8.78022e-05 0.000930506
0.000154994  0.0114032
0.000230608  0.0803916
0.000315699   0.301479
0.000411455   0.481606
0.000519212   0.554577
0.000640475   0.583091
0.000776937    0.59187
0.000930502   0.590738
0.00110331   0.583827
0.00129779   0.573133
0.00151663   0.559746
0.00176291   0.544337
0.00204005   0.527362
0.00235193    0.50917
 0.0027029    0.49005
0.00309785   0.470253
0.00354231   0.450003
0.00404248     0.4295
0.00460533   0.408918
0.00523873   0.388405
0.00595151   0.368079
0.00675364   0.348032
 0.0076563   0.328325
0.00867209   0.308993
 0.0098152   0.290041
 0.0111016   0.271447
 0.0125492   0.253163
 0.0141782   0.235116
 0.0160115   0.217209
 0.0180745   0.199326
  0.020396   0.181336
 0.0230086   0.163111
 0.0259485   0.144552
  0.029257    0.12567
 0.0329801   0.106752
 0.0371699  0.0886899
 0.0418848  0.0734484
 0.0471906  0.0641486
 0.0528094  0.0644639
 0.0581152  0.0742867
 0.0628301   0.089839
 0.0670199   0.108035
  0.070743   0.126988
 0.0740515   0.145857
 0.0769914   0.164385
  0.079604   0.182573
 0.0819255   0.200522
 0.0839885   0.218364
 0.0858218   0.236229
 0.0874508   0.254234
 0.0888984   0.272474
 0.0901848   0.291021
 0.0913279   0.309923
 0.0923437   0.329201
 0.0932464    0.34885
 0.0940485   0.368836
 0.0947613   0.389096
 0.0953947   0.409539
 0.0959575   0.430046
 0.0964577   0.450472
 0.0969021   0.470642
 0.0972971    0.49036
 0.0976481   0.509404
   0.09796   0.527524
 0.0982371   0.544436
 0.0984834   0.559794
 0.0987022   0.573146
 0.0988967   0.583831
 0.0990695   0.590772
 0.0992231   0.592009
 0.0993595   0.583477
 0.0994808   0.555526
 0.0995885   0.483864
 0.0996843    0.30673
 0.0997694  0.0833493
  0.099845  0.0119754
 0.0999122 0.000991739
 0.0999719 1.80244e-05
