2.80937e-05 1.11381e-05
8.78022e-05 0.000620337
0.000154994 0.00760211
0.000230608  0.0535944
0.000315699   0.200986
0.000411455   0.321071
0.000519212   0.369718
0.000640475   0.388727
0.000776937    0.39458
0.000930502   0.393825
0.00110331   0.389218
0.00129779   0.382089
0.00151663   0.373164
0.00176291   0.362891
0.00204005   0.351575
0.00235193   0.339447
 0.0027029     0.3267
0.00309785   0.313502
0.00354231   0.300002
0.00404248   0.286333
0.00460533   0.272612
0.00523873   0.258936
0.00595151   0.245386
0.00675364   0.232021
 0.0076563   0.218884
0.00867209   0.205996
 0.0098152   0.193361
 0.0111016   0.180965
 0.0125492   0.168776
 0.0141782   0.156744
 0.0160115   0.144806
 0.0180745   0.132884
  0.020396   0.120891
 0.0230086    0.10874
 0.0259485  0.0963679
  0.029257  0.0837803
 0.0329801  0.0711678
 0.0371699  0.0591266
 0.0418848  0.0489656
 0.0471906  0.0427657
 0.0528094  0.0429759
 0.0581152  0.0495245
 0.0628301  0.0598927
 0.0670199  0.0720234
  0.070743  0.0846586
 0.0740515  0.0972381
 0.0769914    0.10959
  0.079604   0.121715
 0.0819255   0.133681
 0.0839885   0.145576
 0.0858218   0.157486
 0.0874508   0.169489
 0.0888984   0.181649
 0.0901848   0.194014
 0.0913279   0.206615
 0.0923437   0.219468
 0.0932464   0.232567
 0.0940485   0.245891
 0.0947613   0.259397
 0.0953947   0.273026
 0.0959575   0.286698
 0.0964577   0.300315
 0.0969021   0.313761
 0.0972971   0.326907
 0.0976481   0.339603
   0.09796   0.351683
 0.0982371   0.362957
 0.0984834   0.373196
 0.0987022   0.382097
 0.0988967    0.38922
 0.0990695   0.393848
 0.0992231   0.394673
 0.0993595   0.388985
 0.0994808    0.37035
 0.0995885   0.322576
 0.0996843   0.204487
 0.0997694  0.0555662
  0.099845  0.0079836
 0.0999122 0.000661159
 0.0999719 1.20163e-05
