2.80937e-05 -2.84797e-08
8.78022e-05 -6.3766e-06
0.000154994 -0.000189188
0.000230608 -0.00422451
0.000315699 -0.0554763
0.000411455  -0.116519
0.000519212  -0.143861
0.000640475  -0.158791
0.000776937  -0.166502
0.000930502  -0.170166
0.00110331  -0.171099
0.00129779  -0.170066
0.00151663  -0.167571
0.00176291  -0.163968
0.00204005  -0.159519
0.00235193  -0.154428
 0.0027029  -0.148863
0.00309785  -0.142965
0.00354231  -0.136853
0.00404248  -0.130625
0.00460533   -0.12436
0.00523873  -0.118121
0.00595151  -0.111954
0.00675364   -0.10589
 0.0076563 -0.0999475
0.00867209 -0.0941342
 0.0098152 -0.0884459
 0.0111016 -0.0828683
 0.0125492 -0.0773779
 0.0141782 -0.0719413
 0.0160115 -0.0665153
 0.0180745 -0.0610461
  0.020396 -0.0554677
 0.0230086 -0.0496996
 0.0259485 -0.0436435
  0.029257 -0.0371805
 0.0329801  -0.030176
 0.0371699 -0.0225156
 0.0418848 -0.0141367
 0.0471906 -0.0047721
 0.0528094 0.00531096
 0.0581152   0.014662
 0.0628301  0.0230312
 0.0670199  0.0306712
  0.070743  0.0376512
 0.0740515  0.0440916
 0.0769914  0.0501281
  0.079604  0.0558792
 0.0819255  0.0614424
 0.0839885  0.0668976
 0.0858218  0.0723102
 0.0874508  0.0777336
 0.0888984  0.0832106
 0.0901848  0.0887741
 0.0913279  0.0944476
 0.0923437   0.100245
 0.0932464   0.106169
 0.0940485   0.112214
 0.0947613    0.11836
 0.0953947   0.124576
 0.0959575   0.130816
 0.0964577   0.137016
 0.0969021     0.1431
 0.0972971   0.148968
 0.0976481   0.154504
   0.09796   0.159567
 0.0982371   0.163991
 0.0984834   0.167574
 0.0987022   0.170055
 0.0988967   0.171082
 0.0990695   0.170157
 0.0992231   0.166532
 0.0993595   0.158915
 0.0994808   0.144189
 0.0995885   0.117197
 0.0996843  0.0570713
 0.0997694 0.00450805
  0.099845 0.000202635
 0.0999122 6.9348e-06
 0.0999719 3.13344e-08
