2.80937e-05   0.324326
8.78022e-05    1.03162
0.000154994     1.8669
0.000230608    2.86714
0.000315699    3.87876
0.000411455    4.61881
0.000519212    5.13765
0.000640475    5.53822
0.000776937    5.87071
0.000930502    6.16134
0.00110331    6.42411
0.00129779    6.66707
0.00151663     6.8952
0.00176291    7.11178
0.00204005    7.31899
0.00235193     7.5184
 0.0027029    7.71111
0.00309785    7.89792
0.00354231    8.07945
0.00404248    8.25614
0.00460533    8.42838
0.00523873    8.59644
0.00595151    8.76058
0.00675364      8.921
 0.0076563     9.0779
0.00867209    9.23144
 0.0098152     9.3818
 0.0111016    9.52911
 0.0125492    9.67353
 0.0141782    9.81518
 0.0160115    9.95414
 0.0180745    10.0904
  0.020396     10.224
 0.0230086    10.3545
 0.0259485    10.4814
  0.029257    10.6031
 0.0329801     10.717
 0.0371699     10.818
 0.0418848    10.8976
 0.0471906    10.9438
 0.0528094    10.9424
 0.0581152    10.8938
 0.0628301    10.8125
 0.0670199    10.7104
  0.070743    10.5958
 0.0740515    10.4737
 0.0769914    10.3466
  0.079604    10.2158
 0.0819255    10.0821
 0.0839885     9.9457
 0.0858218    9.80664
 0.0874508    9.66492
 0.0888984    9.52045
 0.0901848     9.3731
 0.0913279    9.22272
 0.0923437    9.06918
 0.0932464    8.91229
 0.0940485     8.7519
 0.0947613    8.58782
 0.0953947    8.41984
 0.0959575    8.24771
 0.0964577    8.07114
 0.0969021    7.88978
 0.0972971    7.70315
 0.0976481    7.51066
   0.09796    7.31151
 0.0982371    7.10459
 0.0984834    6.88835
 0.0987022    6.66061
 0.0988967    6.41811
 0.0990695    6.15591
 0.0992231    5.86599
 0.0993595    5.53447
 0.0994808    5.13538
 0.0995885    4.61917
 0.0996843    3.88461
 0.0997694    2.87753
  0.099845     1.8744
 0.0999122    1.03585
 0.0999719   0.325672
