2.80937e-05 0.00333738
8.78022e-05  0.0249066
0.000154994  0.0871901
0.000230608   0.231505
0.000315699   0.448315
0.000411455   0.566631
0.000519212   0.608045
0.000640475    0.62348
0.000776937   0.628156
0.000930502   0.627555
0.00110331   0.623873
0.00129779   0.618133
0.00151663   0.610872
0.00176291   0.602405
0.00204005   0.592938
0.00235193   0.582621
 0.0027029   0.571577
0.00309785   0.559912
0.00354231   0.547724
0.00404248   0.535101
0.00460533   0.522123
0.00523873   0.508858
0.00595151   0.495364
0.00675364   0.481686
 0.0076563    0.46785
0.00867209   0.453867
 0.0098152   0.439728
 0.0111016     0.4254
 0.0125492   0.410823
 0.0141782   0.395909
 0.0160115   0.380534
 0.0180745   0.364532
  0.020396   0.347693
 0.0230086   0.329758
 0.0259485   0.310432
  0.029257   0.289448
 0.0329801   0.266773
 0.0371699    0.24316
 0.0418848   0.221282
 0.0471906   0.206799
 0.0528094   0.207306
 0.0581152   0.222541
 0.0628301    0.24473
 0.0670199   0.268372
  0.070743   0.290961
 0.0740515    0.31183
 0.0769914   0.331044
  0.079604   0.348877
 0.0819255   0.365624
 0.0839885   0.381544
 0.0858218   0.396845
 0.0874508   0.411691
 0.0888984   0.426203
 0.0901848    0.44047
 0.0913279    0.45455
 0.0923437   0.468474
 0.0932464   0.482252
 0.0940485   0.495874
 0.0947613    0.50931
 0.0953947   0.522519
 0.0959575   0.535442
 0.0964577    0.54801
 0.0969021   0.560144
 0.0972971   0.571758
 0.0976481   0.582754
   0.09796   0.593028
 0.0982371   0.602459
 0.0984834   0.610898
 0.0987022    0.61814
 0.0988967   0.623875
 0.0990695   0.627573
 0.0992231    0.62823
 0.0993595   0.623687
 0.0994808   0.608564
 0.0995885   0.567958
 0.0996843   0.452202
 0.0997694   0.235725
  0.099845   0.089351
 0.0999122   0.025713
 0.0999719 0.00346645
