/*--------------------------------*- C++ -*----------------------------------*\
  =========                 |
  \\      /  F ield         | OpenFOAM: The Open Source CFD Toolbox
   \\    /   O peration     | Website:  https://openfoam.org
    \\  /    A nd           | Version:  9
     \\/     M anipulation  |
\*---------------------------------------------------------------------------*/
FoamFile
{
    format      ascii;
    class       volVectorField;
    location    "92";
    object      ddt0(hU);
}
// * * * * * * * * * * * * * * * * * * * * * * * * * * * * * * * * * * * * * //

dimensions      [0 2 -2 0 0 0 0];

internalField   nonuniform List<vector> 
400
(
(3.29158e-09 5.85278e-10 0)
(3.39074e-09 -1.39392e-09 0)
(3.1069e-10 -1.37826e-09 0)
(-2.86928e-09 1.10631e-09 0)
(-2.98918e-09 6.10637e-10 0)
(-4.15403e-10 8.55427e-10 0)
(1.20027e-09 -1.06808e-09 0)
(9.05914e-10 -9.67751e-10 0)
(7.59347e-10 -2.2031e-09 0)
(-2.38673e-10 -1.58875e-09 0)
(3.54121e-10 -1.11619e-09 0)
(-1.19378e-09 -1.62659e-09 0)
(1.42696e-10 -6.10419e-12 0)
(1.96524e-09 -4.94252e-11 0)
(4.28332e-09 5.64692e-10 0)
(4.83422e-09 -5.64655e-10 0)
(6.97844e-10 -4.33976e-10 0)
(2.00923e-10 5.37538e-10 0)
(2.14744e-09 -8.75043e-10 0)
(-2.54967e-10 -9.51187e-10 0)
(1.18517e-09 1.33683e-09 0)
(2.53828e-09 -3.17724e-09 0)
(1.56574e-09 -2.35515e-09 0)
(-9.06817e-10 1.76296e-09 0)
(-2.02158e-09 1.18391e-09 0)
(-1.60444e-09 1.10914e-09 0)
(2.29871e-11 -2.28129e-09 0)
(-2.03059e-10 -3.4952e-09 0)
(-6.29075e-10 -3.86909e-09 0)
(1.70441e-09 -3.83603e-09 0)
(-7.33908e-10 -8.91368e-10 0)
(-1.49181e-10 -1.14739e-09 0)
(-3.6121e-12 -3.73772e-10 0)
(1.36336e-09 1.61598e-09 0)
(3.64592e-09 1.26759e-09 0)
(2.5768e-09 -1.57854e-09 0)
(7.59987e-10 -1.31445e-09 0)
(-2.94706e-10 2.92502e-11 0)
(-2.39676e-10 -2.15898e-09 0)
(7.66143e-10 -1.89463e-09 0)
(-8.27507e-10 1.06842e-09 0)
(1.02375e-09 -2.32224e-09 0)
(2.45766e-09 -1.20254e-09 0)
(1.54003e-09 1.72941e-10 0)
(-1.17339e-09 3.89264e-10 0)
(-1.90583e-09 -2.15519e-10 0)
(-2.38078e-09 -2.83907e-09 0)
(-7.83497e-10 -4.09649e-09 0)
(-1.22582e-09 -4.23147e-09 0)
(1.02918e-09 1.33568e-09 0)
(2.7334e-09 -2.81653e-09 0)
(-4.97006e-09 7.57241e-09 0)
(-1.46817e-10 2.74034e-09 0)
(1.09095e-09 3.05529e-09 0)
(1.85714e-10 2.25193e-09 0)
(2.35605e-10 -1.45716e-09 0)
(1.44936e-10 -1.19765e-09 0)
(-1.5421e-09 5.92933e-10 0)
(-1.34961e-09 -1.98184e-12 0)
(1.68515e-09 -5.2185e-10 0)
(-1.69202e-09 4.80446e-10 0)
(1.96132e-11 -2.421e-10 0)
(2.59215e-09 5.0647e-11 0)
(2.30416e-09 -1.78381e-09 0)
(1.30005e-10 -1.36419e-09 0)
(-2.64729e-09 -9.61927e-10 0)
(-2.14733e-09 -2.63379e-09 0)
(-4.26032e-09 -8.58867e-10 0)
(5.42109e-09 -3.39269e-09 0)
(-6.96409e-09 1.09796e-08 0)
(7.06417e-09 5.05397e-09 0)
(2.06887e-09 3.80675e-09 0)
(-1.25891e-08 1.48824e-08 0)
(2.5686e-11 5.01549e-09 0)
(-1.24491e-09 2.53032e-10 0)
(-2.82683e-09 -6.98202e-10 0)
(2.54214e-10 -2.51816e-10 0)
(-7.98128e-10 1.30818e-09 0)
(-2.9697e-09 2.10857e-09 0)
(-1.09361e-09 1.0604e-09 0)
(-1.81087e-09 4.3278e-10 0)
(-2.64932e-10 8.22525e-10 0)
(1.42939e-09 8.72294e-12 0)
(2.0774e-09 -3.00732e-09 0)
(5.2805e-10 -1.53551e-09 0)
(-1.13839e-09 -7.11982e-10 0)
(-3.07168e-09 1.52587e-09 0)
(-3.84583e-10 -2.54968e-09 0)
(7.83559e-10 1.46481e-08 0)
(1.38391e-08 -5.07545e-09 0)
(-2.26675e-08 2.08858e-08 0)
(1.77422e-08 -7.90237e-09 0)
(-2.00454e-09 4.05401e-09 0)
(-1.99044e-08 1.09146e-08 0)
(-4.52345e-09 1.09513e-09 0)
(-3.22418e-10 -1.83335e-09 0)
(4.6247e-10 -1.00224e-09 0)
(-2.99899e-11 -1.19521e-10 0)
(-2.7928e-09 1.39832e-09 0)
(-2.93821e-09 1.23798e-09 0)
(-1.51083e-09 6.23679e-10 0)
(-8.7247e-10 7.37555e-10 0)
(3.76226e-11 -1.39907e-09 0)
(1.18891e-09 -2.66394e-09 0)
(1.54979e-09 -1.58892e-10 0)
(4.35224e-10 2.28215e-09 0)
(-3.49063e-09 1.33393e-09 0)
(8.60981e-09 5.32317e-09 0)
(-9.2033e-09 1.18071e-08 0)
(1.7513e-08 -7.29793e-09 0)
(1.83056e-09 -2.54033e-08 0)
(-2.2241e-08 1.10351e-08 0)
(2.77433e-08 -1.49731e-08 0)
(-1.98875e-09 -1.4046e-09 0)
(-1.83142e-08 3.66387e-09 0)
(-5.16492e-09 -5.84413e-10 0)
(3.24456e-09 -2.31621e-09 0)
(3.41272e-09 -2.30872e-09 0)
(-4.48157e-10 -4.26478e-10 0)
(-3.22535e-09 6.06819e-10 0)
(-1.40859e-09 3.3206e-10 0)
(-1.64991e-09 4.04435e-11 0)
(-1.22002e-09 -2.302e-09 0)
(1.10834e-09 -1.08096e-09 0)
(2.78632e-09 1.71605e-09 0)
(-1.21319e-10 2.75809e-09 0)
(3.23722e-09 1.52386e-09 0)
(-2.647e-10 5.2269e-09 0)
(1.33886e-08 -1.0345e-08 0)
(-5.18295e-08 2.80775e-08 0)
(7.80036e-08 -9.03421e-08 0)
(1.84009e-08 -4.60926e-09 0)
(-1.44243e-08 6.61979e-09 0)
(1.41122e-08 -9.36103e-09 0)
(-3.65349e-09 -2.54234e-09 0)
(-8.74382e-09 5.27779e-11 0)
(5.906e-10 -2.23161e-09 0)
(5.89561e-09 -3.35855e-09 0)
(3.85366e-09 -2.24333e-09 0)
(-8.39887e-10 -3.3356e-10 0)
(-1.11658e-09 -5.63482e-10 0)
(-2.37491e-09 -6.05556e-10 0)
(-1.28546e-09 -1.48598e-09 0)
(1.63918e-09 8.53037e-10 0)
(2.89166e-09 1.98679e-09 0)
(9.46809e-10 5.69739e-10 0)
(-8.56568e-10 1.1486e-09 0)
(3.86401e-10 -5.52481e-09 0)
(1.70727e-08 -8.80204e-09 0)
(-4.22876e-08 -2.64689e-08 0)
(-5.23692e-07 9.81233e-08 0)
(1.43063e-07 -3.5564e-09 0)
(1.22005e-08 -4.70863e-09 0)
(-1.65052e-08 -2.27586e-09 0)
(-6.70655e-09 -5.12731e-09 0)
(-5.9627e-09 -7.88397e-10 0)
(1.04924e-09 -4.5181e-10 0)
(7.3254e-09 -1.84165e-09 0)
(6.64134e-09 -2.31972e-09 0)
(2.1266e-09 -7.55281e-10 0)
(-7.10664e-10 -1.21589e-09 0)
(-1.96168e-09 -4.13092e-10 0)
(-5.78481e-10 3.30248e-10 0)
(2.05728e-09 2.31243e-09 0)
(2.15251e-09 3.05026e-11 0)
(-7.81616e-11 -2.90423e-09 0)
(-2.63741e-09 -9.46694e-10 0)
(-1.73663e-09 -2.07097e-09 0)
(-2.03692e-08 -3.46157e-09 0)
(4.40454e-08 -2.17271e-08 0)
(5.28621e-07 9.443e-08 0)
(-1.46085e-07 -4.88521e-09 0)
(-1.33668e-08 -5.5404e-09 0)
(3.46585e-09 4.34568e-10 0)
(-8.06981e-09 1.07141e-10 0)
(-5.04789e-09 3.8645e-09 0)
(-6.18585e-10 4.54401e-09 0)
(4.83576e-09 1.45018e-09 0)
(6.69239e-09 -1.08286e-09 0)
(1.4914e-09 -1.36091e-09 0)
(-2.38508e-11 -8.55892e-10 0)
(-9.91197e-10 6.34514e-10 0)
(4.87943e-10 1.70728e-09 0)
(1.09177e-09 1.52975e-09 0)
(1.93941e-11 -1.702e-09 0)
(-3.10185e-10 -5.42355e-09 0)
(-1.92754e-09 -8.39349e-10 0)
(-2.23943e-10 1.05593e-08 0)
(-1.02374e-08 -3.98433e-09 0)
(4.14152e-08 2.9867e-08 0)
(-7.05079e-08 -9.69322e-08 0)
(-1.08691e-08 -1.52181e-08 0)
(1.9726e-08 1.3283e-09 0)
(-1.02443e-08 -7.19765e-09 0)
(-2.72998e-09 4.10275e-09 0)
(-4.59771e-10 8.45385e-09 0)
(-2.9095e-09 7.60277e-09 0)
(-1.27767e-09 4.55541e-09 0)
(2.59501e-09 1.66676e-09 0)
(5.78055e-09 -2.72709e-10 0)
(3.09571e-10 9.4478e-12 0)
(4.4023e-11 1.50989e-09 0)
(2.47084e-10 1.56253e-09 0)
(-2.02036e-10 -4.89745e-10 0)
(-1.82235e-09 -2.40815e-09 0)
(-7.14307e-11 -1.66203e-09 0)
(5.55059e-09 -1.38259e-09 0)
(-4.51176e-09 6.12836e-09 0)
(8.28079e-09 1.38504e-08 0)
(-1.86178e-08 -1.9151e-08 0)
(-3.75787e-08 7.44905e-08 0)
(4.80159e-08 -1.34454e-08 0)
(-1.34511e-08 -1.9806e-08 0)
(1.24145e-08 -2.85902e-09 0)
(1.81608e-08 4.95718e-09 0)
(1.846e-09 5.22041e-09 0)
(-5.53104e-09 4.12728e-09 0)
(-4.19643e-09 3.35742e-09 0)
(-1.71194e-10 2.86014e-09 0)
(8.34688e-10 1.38587e-09 0)
(6.28974e-10 5.43507e-10 0)
(3.43359e-10 1.36989e-09 0)
(-7.61781e-10 7.42208e-10 0)
(-1.42467e-09 -1.98744e-09 0)
(-1.19154e-09 -7.53848e-10 0)
(-6.50583e-11 2.6025e-09 0)
(4.58278e-09 1.33874e-09 0)
(5.66175e-09 -9.99743e-09 0)
(-1.44689e-08 6.50982e-09 0)
(1.1671e-07 1.19451e-08 0)
(-5.02013e-07 -7.92064e-08 0)
(-1.53656e-07 2.96043e-08 0)
(4.13901e-08 1.16966e-08 0)
(2.83824e-08 8.39908e-09 0)
(9.55458e-09 -2.26076e-09 0)
(-2.95081e-10 -5.82331e-09 0)
(-4.37222e-09 -3.15273e-09 0)
(-2.8835e-09 -7.61384e-10 0)
(-4.87983e-10 9.57503e-10 0)
(-1.24301e-09 8.52393e-10 0)
(1.03472e-09 4.04659e-10 0)
(-8.14937e-11 2.22889e-10 0)
(-1.97109e-09 5.51547e-10 0)
(-1.63344e-09 -1.63255e-09 0)
(2.31499e-10 3.77683e-10 0)
(8.69956e-10 4.77973e-09 0)
(-3.31829e-10 2.33988e-09 0)
(1.78761e-10 -8.80513e-09 0)
(1.72901e-08 -1.04723e-08 0)
(-1.34718e-07 1.62173e-08 0)
(5.30003e-07 -7.50057e-08 0)
(1.51394e-07 3.24945e-08 0)
(-2.78707e-08 1.84496e-08 0)
(-6.4947e-09 1.65144e-09 0)
(-3.92031e-09 -8.3223e-09 0)
(-5.39752e-10 -9.24787e-09 0)
(1.71534e-09 -5.66995e-09 0)
(1.84361e-09 -2.34906e-09 0)
(8.71875e-10 -4.30886e-10 0)
(-1.8269e-09 7.69151e-11 0)
(1.30568e-09 -1.16076e-10 0)
(-2.80394e-10 -8.64622e-10 0)
(-2.3534e-09 1.15628e-09 0)
(-1.50921e-09 3.79262e-10 0)
(1.67961e-09 -5.41035e-10 0)
(1.19507e-09 2.63476e-09 0)
(-3.40034e-09 3.64371e-09 0)
(1.34025e-09 -3.61985e-10 0)
(-5.03282e-09 -6.77757e-09 0)
(2.34904e-08 -1.9077e-08 0)
(2.78213e-08 1.06881e-07 0)
(-4.46074e-08 -2.41226e-08 0)
(-5.22925e-09 -5.78243e-09 0)
(-1.19307e-08 -6.69433e-09 0)
(-7.97633e-09 -6.17161e-09 0)
(1.84143e-09 -2.87706e-09 0)
(4.9087e-09 -5.80772e-10 0)
(3.83258e-09 8.71898e-10 0)
(3.38717e-10 4.25173e-10 0)
(-2.88247e-09 -2.27661e-10 0)
(9.09693e-10 -1.45531e-10 0)
(6.78156e-11 -9.39058e-10 0)
(-1.43792e-09 1.54192e-09 0)
(-1.1701e-09 2.45521e-09 0)
(1.8344e-09 -1.58964e-09 0)
(2.65238e-09 -2.81366e-09 0)
(-2.05123e-09 1.54575e-09 0)
(-4.19959e-09 6.83441e-09 0)
(4.56696e-10 -2.58734e-09 0)
(4.68731e-09 2.30292e-09 0)
(-1.42833e-08 -3.29992e-08 0)
(6.70715e-09 -9.26341e-09 0)
(-9.60768e-09 -8.19317e-09 0)
(-1.05926e-08 -5.68964e-09 0)
(2.05184e-09 1.2276e-09 0)
(8.06899e-09 3.90925e-09 0)
(6.87574e-09 4.98115e-09 0)
(1.90261e-09 4.69766e-09 0)
(-3.61512e-09 1.39617e-09 0)
(-5.00826e-09 -5.66426e-10 0)
(-6.12802e-10 1.03404e-10 0)
(9.47913e-10 -3.32598e-11 0)
(2.8667e-10 7.97223e-10 0)
(-5.2334e-10 3.16356e-09 0)
(4.68532e-10 -7.40374e-10 0)
(2.69709e-09 -5.73757e-09 0)
(5.03885e-10 -4.29441e-09 0)
(-2.064e-09 4.86778e-09 0)
(-2.29683e-11 8.63912e-09 0)
(-1.84767e-09 5.49633e-10 0)
(1.44811e-09 4.75311e-09 0)
(-2.51689e-09 1.53369e-09 0)
(-6.20008e-09 -5.81245e-10 0)
(2.75906e-09 6.57842e-09 0)
(9.61057e-09 9.58823e-09 0)
(9.23289e-09 7.55556e-09 0)
(4.023e-09 5.51437e-09 0)
(-3.26195e-09 3.79766e-09 0)
(-8.29677e-09 1.49233e-10 0)
(-6.18352e-09 -1.17162e-09 0)
(-1.80953e-09 -1.12775e-10 0)
(1.43546e-09 6.50707e-10 0)
(1.88803e-09 -7.87973e-11 0)
(1.24374e-10 1.84481e-09 0)
(-9.20314e-10 1.76139e-09 0)
(6.21684e-10 -2.96872e-09 0)
(2.28392e-09 -5.21706e-09 0)
(5.40886e-10 -1.04239e-09 0)
(-7.59531e-10 4.83116e-09 0)
(-2.31727e-10 3.43497e-09 0)
(1.27058e-09 3.83998e-09 0)
(-6.49644e-10 2.05749e-09 0)
(2.08953e-09 6.16506e-09 0)
(7.98738e-09 8.64568e-09 0)
(8.28131e-09 7.24752e-09 0)
(4.07206e-09 3.41886e-09 0)
(-1.46466e-09 -2.60481e-10 0)
(-7.93807e-09 -2.27713e-09 0)
(-9.7991e-09 -2.92108e-09 0)
(-4.25187e-09 -1.48245e-09 0)
(-1.23707e-09 -6.2891e-11 0)
(1.3397e-09 6.93913e-10 0)
(1.94568e-09 -8.86376e-10 0)
(3.05419e-10 -4.46805e-10 0)
(-1.74857e-09 2.77214e-09 0)
(-9.49531e-10 2.84603e-09 0)
(1.74577e-09 4.0561e-10 0)
(1.17449e-09 -1.75495e-09 0)
(-7.76972e-10 -5.95952e-10 0)
(-2.20949e-09 -1.48628e-09 0)
(-2.01205e-09 -2.64607e-09 0)
(-5.55286e-11 -1.64731e-09 0)
(2.79466e-09 1.90269e-10 0)
(4.78061e-09 -9.89825e-10 0)
(2.30014e-09 -3.20994e-09 0)
(-1.58593e-09 -4.31396e-09 0)
(-5.30576e-09 -6.98787e-09 0)
(-7.93491e-09 -8.23371e-09 0)
(-5.46315e-09 -4.99614e-09 0)
(5.50414e-10 -1.10594e-09 0)
(6.25538e-10 4.71559e-10 0)
(1.72938e-11 5.47055e-10 0)
(3.6795e-10 -1.4081e-09 0)
(-5.57362e-10 -2.2515e-09 0)
(-1.36281e-09 1.89104e-09 0)
(-4.10132e-10 5.30935e-09 0)
(1.65913e-09 5.54092e-09 0)
(1.14532e-09 2.03978e-09 0)
(-1.23888e-09 -1.99672e-10 0)
(-3.31986e-09 -2.61864e-09 0)
(-2.80314e-09 -4.20824e-09 0)
(-9.68241e-10 -4.2036e-09 0)
(3.23463e-10 -4.87797e-09 0)
(1.39759e-10 -7.72794e-09 0)
(-8.9531e-10 -8.90296e-09 0)
(-2.43553e-09 -7.05916e-09 0)
(-4.03927e-09 -7.46794e-09 0)
(-2.63306e-09 -7.76954e-09 0)
(2.49507e-09 -3.77626e-09 0)
(6.02394e-09 -3.11865e-10 0)
(2.42799e-09 3.40373e-10 0)
(-1.32574e-09 2.12001e-10 0)
(-1.44236e-09 -7.01479e-10 0)
(-1.64718e-09 -1.37425e-09 0)
(-8.86151e-10 5.5491e-10 0)
(1.02374e-09 2.50121e-09 0)
(2.21025e-09 3.24216e-09 0)
(1.46043e-09 1.86438e-09 0)
(-1.32639e-09 5.63725e-10 0)
(-2.84799e-09 -7.39025e-10 0)
(-7.97137e-10 -1.4853e-09 0)
(-4.45331e-10 -1.72891e-09 0)
(-9.75996e-10 -2.57054e-09 0)
(-1.84765e-09 -4.0727e-09 0)
(-4.84795e-10 -4.40552e-09 0)
(2.09143e-10 -3.02938e-09 0)
(-7.16242e-10 -2.6537e-09 0)
(2.24765e-09 -2.65354e-09 0)
(7.91129e-09 -1.08863e-09 0)
(8.95891e-09 7.74624e-11 0)
)
;

boundaryField
{
    sides
    {
        type            calculated;
        value           nonuniform List<vector> 
40
(
(2.42799e-09 0 0)
(-1.32574e-09 0 0)
(-1.44236e-09 0 0)
(-1.64718e-09 0 0)
(-8.86151e-10 0 0)
(1.02374e-09 0 0)
(2.21025e-09 0 0)
(1.46043e-09 0 0)
(-1.32639e-09 0 0)
(-2.84799e-09 0 0)
(-7.97137e-10 0 0)
(-4.45331e-10 0 0)
(-9.75996e-10 0 0)
(-1.84765e-09 0 0)
(-4.84795e-10 0 0)
(2.09143e-10 0 0)
(-7.16242e-10 0 0)
(2.24765e-09 0 0)
(7.91129e-09 0 0)
(8.95891e-09 0 0)
(3.29158e-09 0 0)
(3.39074e-09 0 0)
(3.1069e-10 0 0)
(-2.86928e-09 0 0)
(-2.98918e-09 0 0)
(-4.15403e-10 0 0)
(1.20027e-09 0 0)
(9.05914e-10 0 0)
(7.59347e-10 0 0)
(-2.38673e-10 0 0)
(3.54121e-10 0 0)
(-1.19378e-09 0 0)
(1.42696e-10 0 0)
(1.96524e-09 0 0)
(4.28332e-09 0 0)
(4.83422e-09 0 0)
(6.97844e-10 0 0)
(2.00923e-10 0 0)
(2.14744e-09 0 0)
(-2.54967e-10 0 0)
)
;
    }
    inlet
    {
        type            calculated;
        value           uniform (0 0 0);
    }
    outlet
    {
        type            calculated;
        value           nonuniform List<vector> 
20
(
(-2.54967e-10 -9.51187e-10 0)
(7.66143e-10 -1.89463e-09 0)
(1.68515e-09 -5.2185e-10 0)
(-1.09361e-09 1.0604e-09 0)
(-2.93821e-09 1.23798e-09 0)
(-3.22535e-09 6.06819e-10 0)
(-8.39887e-10 -3.3356e-10 0)
(2.1266e-09 -7.55281e-10 0)
(1.4914e-09 -1.36091e-09 0)
(5.78055e-09 -2.72709e-10 0)
(8.34688e-10 1.38587e-09 0)
(-1.24301e-09 8.52393e-10 0)
(-1.8269e-09 7.69151e-11 0)
(-2.88247e-09 -2.27661e-10 0)
(-5.00826e-09 -5.66426e-10 0)
(-6.18352e-09 -1.17162e-09 0)
(-4.25187e-09 -1.48245e-09 0)
(5.50414e-10 -1.10594e-09 0)
(6.02394e-09 -3.11865e-10 0)
(8.95891e-09 7.74624e-11 0)
)
;
    }
    frontAndBack
    {
        type            empty;
    }
}


// ************************************************************************* //
