/*--------------------------------*- C++ -*----------------------------------*\
  =========                 |
  \\      /  F ield         | OpenFOAM: The Open Source CFD Toolbox
   \\    /   O peration     | Website:  https://openfoam.org
    \\  /    A nd           | Version:  9
     \\/     M anipulation  |
\*---------------------------------------------------------------------------*/
FoamFile
{
    format      ascii;
    class       volVectorField;
    location    "92";
    object      hU_0;
}
// * * * * * * * * * * * * * * * * * * * * * * * * * * * * * * * * * * * * * //

dimensions      [0 2 -1 0 0 0 0];

internalField   nonuniform List<vector> 
400
(
(0.001 -2.4419e-08 0)
(0.00100004 -7.05762e-08 0)
(0.00100012 -1.13269e-07 0)
(0.00100024 -1.52275e-07 0)
(0.00100039 -1.87019e-07 0)
(0.00100058 -2.16526e-07 0)
(0.00100078 -2.36825e-07 0)
(0.00100099 -2.4541e-07 0)
(0.00100118 -2.36475e-07 0)
(0.00100133 -2.11424e-07 0)
(0.0010014 -1.68844e-07 0)
(0.0010014 -1.28853e-07 0)
(0.00100129 -9.94413e-08 0)
(0.00100111 -9.34073e-08 0)
(0.00100087 -9.99142e-08 0)
(0.00100065 -1.35898e-07 0)
(0.00100044 -1.56816e-07 0)
(0.00100034 -2.01285e-07 0)
(0.00100026 -1.88788e-07 0)
(0.00100033 -2.6851e-07 0)
(0.001 -2.70971e-08 0)
(0.00100005 -7.90449e-08 0)
(0.00100013 -1.28402e-07 0)
(0.00100026 -1.73727e-07 0)
(0.00100042 -2.12665e-07 0)
(0.00100062 -2.39812e-07 0)
(0.00100084 -2.45756e-07 0)
(0.00100108 -2.20662e-07 0)
(0.0010013 -1.55114e-07 0)
(0.00100147 -4.84038e-08 0)
(0.00100156 9.30253e-08 0)
(0.00100154 2.46545e-07 0)
(0.00100141 3.88548e-07 0)
(0.00100119 4.75991e-07 0)
(0.00100093 5.04625e-07 0)
(0.00100067 4.51343e-07 0)
(0.00100048 3.77778e-07 0)
(0.00100036 2.56548e-07 0)
(0.00100033 2.0491e-07 0)
(0.00100029 8.09462e-08 0)
(0.001 -5.31037e-08 0)
(0.00100004 -1.59566e-07 0)
(0.00100013 -2.67001e-07 0)
(0.00100026 -3.73238e-07 0)
(0.00100043 -4.7289e-07 0)
(0.00100065 -5.55085e-07 0)
(0.0010009 -6.0364e-07 0)
(0.00100117 -5.98254e-07 0)
(0.00100143 -5.18784e-07 0)
(0.00100164 -3.52868e-07 0)
(0.00100176 -1.10487e-07 0)
(0.00100176 1.61774e-07 0)
(0.00100159 4.00845e-07 0)
(0.00100131 5.19633e-07 0)
(0.00100095 4.99353e-07 0)
(0.00100062 3.5353e-07 0)
(0.00100037 2.02536e-07 0)
(0.00100026 4.54208e-08 0)
(0.00100022 -3.71294e-09 0)
(0.0010003 -1.17335e-07 0)
(0.001 -7.40834e-08 0)
(0.00100004 -2.22926e-07 0)
(0.00100013 -3.74933e-07 0)
(0.00100026 -5.30101e-07 0)
(0.00100045 -6.80325e-07 0)
(0.00100069 -8.0988e-07 0)
(0.001001 -8.89465e-07 0)
(0.00100134 -8.86238e-07 0)
(0.00100171 -7.56618e-07 0)
(0.00100203 -4.75164e-07 0)
(0.00100222 -2.35988e-08 0)
(0.00100219 4.93496e-07 0)
(0.00100192 9.36982e-07 0)
(0.00100146 1.13958e-06 0)
(0.00100097 1.0549e-06 0)
(0.00100058 7.4314e-07 0)
(0.00100041 4.23561e-07 0)
(0.00100035 1.69679e-07 0)
(0.0010004 1.01729e-07 0)
(0.00100035 2.64326e-10 0)
(0.001 -9.1164e-08 0)
(0.00100004 -2.78326e-07 0)
(0.00100012 -4.7703e-07 0)
(0.00100025 -6.93973e-07 0)
(0.00100044 -9.20952e-07 0)
(0.00100072 -1.13956e-06 0)
(0.00100109 -1.29934e-06 0)
(0.00100155 -1.33772e-06 0)
(0.00100207 -1.17558e-06 0)
(0.00100257 -7.77068e-07 0)
(0.0010029 -1.69589e-07 0)
(0.00100288 5.79748e-07 0)
(0.00100244 1.23283e-06 0)
(0.00100167 1.51256e-06 0)
(0.00100086 1.37555e-06 0)
(0.00100031 9.64901e-07 0)
(0.00100013 5.81519e-07 0)
(0.00100021 3.14422e-07 0)
(0.00100037 2.62296e-07 0)
(0.00100043 1.68047e-07 0)
(0.001 -1.03043e-07 0)
(0.00100003 -3.18385e-07 0)
(0.00100009 -5.62185e-07 0)
(0.00100019 -8.45109e-07 0)
(0.00100038 -1.17345e-06 0)
(0.00100068 -1.52567e-06 0)
(0.00100115 -1.85959e-06 0)
(0.00100178 -2.05453e-06 0)
(0.00100254 -1.91009e-06 0)
(0.00100326 -1.199e-06 0)
(0.00100377 8.76016e-08 0)
(0.00100378 1.54427e-06 0)
(0.00100309 2.43553e-06 0)
(0.00100192 2.30659e-06 0)
(0.00100082 1.43074e-06 0)
(0.00100019 4.92636e-07 0)
(0.00100017 1.34449e-08 0)
(0.00100037 -8.50961e-08 0)
(0.00100064 6.06118e-08 0)
(0.00100055 5.0238e-08 0)
(0.001 -1.01982e-07 0)
(0.001 -3.33025e-07 0)
(0.00100002 -6.01977e-07 0)
(0.00100008 -9.62639e-07 0)
(0.00100021 -1.39327e-06 0)
(0.00100048 -1.94701e-06 0)
(0.001001 -2.4897e-06 0)
(0.00100188 -3.08395e-06 0)
(0.00100321 -3.233e-06 0)
(0.00100473 -2.87885e-06 0)
(0.00100574 -6.70237e-07 0)
(0.00100535 2.55846e-06 0)
(0.0010035 4.8274e-06 0)
(0.00100112 4.7363e-06 0)
(0.000999607 3.02844e-06 0)
(0.000999372 1.26398e-06 0)
(0.00100001 4.31206e-07 0)
(0.00100056 3.26915e-07 0)
(0.00100093 5.62433e-07 0)
(0.00100066 5.34231e-07 0)
(0.000999996 -9.18884e-08 0)
(0.000999968 -2.88208e-07 0)
(0.000999907 -5.77035e-07 0)
(0.000999876 -9.57303e-07 0)
(0.000999879 -1.57816e-06 0)
(0.0010001 -2.34559e-06 0)
(0.0010005 -3.40285e-06 0)
(0.00100152 -4.12418e-06 0)
(0.00100308 -4.37366e-06 0)
(0.00100601 -2.55248e-06 0)
(0.00100911 7.49925e-07 0)
(0.00100915 4.26062e-06 0)
(0.0010055 4.71627e-06 0)
(0.00100074 2.78058e-06 0)
(0.000998151 7.34539e-07 0)
(0.000998275 -2.74876e-07 0)
(0.000999799 -2.8599e-07 0)
(0.00100088 -9.85786e-09 0)
(0.00100133 2.12079e-07 0)
(0.00100085 1.0296e-07 0)
(0.000999995 -4.87353e-08 0)
(0.000999915 -2.03399e-07 0)
(0.000999756 -3.86495e-07 0)
(0.000999531 -7.35143e-07 0)
(0.000999288 -1.33878e-06 0)
(0.000999211 -2.48209e-06 0)
(0.000999707 -4.68823e-06 0)
(0.00100139 -8.06835e-06 0)
(0.00100491 -1.3286e-05 0)
(0.00100958 -1.49152e-05 0)
(0.00101188 3.83869e-06 0)
(0.00100893 1.87238e-05 0)
(0.00100222 1.57795e-05 0)
(0.000997567 5.74105e-06 0)
(0.000996886 -3.16123e-07 0)
(0.000998462 -1.26339e-06 0)
(0.00100027 -9.47789e-08 0)
(0.001001 6.3397e-07 0)
(0.00100107 6.51397e-07 0)
(0.00100054 2.43638e-07 0)
(0.000999804 -1.96138e-08 0)
(0.00100017 -6.64621e-08 0)
(0.000999215 -1.51271e-07 0)
(0.000999904 -2.48581e-07 0)
(0.000997521 -5.92286e-07 0)
(0.000998843 -1.13205e-06 0)
(0.000993347 -2.88486e-06 0)
(0.000997531 -5.59307e-06 0)
(0.000991667 -1.1541e-05 0)
(0.000915831 -1.27034e-05 0)
(0.000951464 2.7363e-07 0)
(0.00101023 1.46435e-05 0)
(0.000990951 1.30853e-05 0)
(0.000983975 5.14258e-06 0)
(0.000989587 1.9578e-07 0)
(0.000996281 -7.80663e-07 0)
(0.000999237 -1.11585e-07 0)
(0.000999413 2.47782e-07 0)
(0.000998648 1.73694e-07 0)
(0.000998504 -1.85104e-07 0)
(0.000999804 1.29906e-08 0)
(0.00100017 4.59361e-08 0)
(0.000999215 1.176e-07 0)
(0.000999903 2.00071e-07 0)
(0.000997519 5.29181e-07 0)
(0.000998838 1.05089e-06 0)
(0.000993339 2.78583e-06 0)
(0.00099752 5.47297e-06 0)
(0.000991652 1.13988e-05 0)
(0.000915808 1.25503e-05 0)
(0.000951433 -4.70149e-07 0)
(0.0010102 -1.49049e-05 0)
(0.000990947 -1.34057e-05 0)
(0.000983968 -5.53331e-06 0)
(0.000989567 -6.47013e-07 0)
(0.000996242 2.48718e-07 0)
(0.000999195 -4.723e-07 0)
(0.000999367 -1.00252e-06 0)
(0.000998633 -9.88973e-07 0)
(0.000998454 -8.88858e-07 0)
(0.000999995 4.24934e-08 0)
(0.000999915 1.83725e-07 0)
(0.000999755 3.53458e-07 0)
(0.00099953 6.87251e-07 0)
(0.000999285 1.27617e-06 0)
(0.00099921 2.40137e-06 0)
(0.000999702 4.58955e-06 0)
(0.00100139 7.94258e-06 0)
(0.0010049 1.31304e-05 0)
(0.00100958 1.47173e-05 0)
(0.00101188 -4.06367e-06 0)
(0.0010089 -1.90057e-05 0)
(0.00100214 -1.60953e-05 0)
(0.000997477 -6.12335e-06 0)
(0.000996813 -8.51939e-08 0)
(0.0009984 7.74896e-07 0)
(0.00100017 -4.27204e-07 0)
(0.00100085 -1.30497e-06 0)
(0.00100088 -1.37952e-06 0)
(0.00100037 -1.25095e-06 0)
(0.000999996 8.60857e-08 0)
(0.000999967 2.69705e-07 0)
(0.000999905 5.44727e-07 0)
(0.000999871 9.10175e-07 0)
(0.00099987 1.51335e-06 0)
(0.00100008 2.26155e-06 0)
(0.00100048 3.29461e-06 0)
(0.00100149 3.99166e-06 0)
(0.00100303 4.20946e-06 0)
(0.00100594 2.36222e-06 0)
(0.00100902 -9.79226e-07 0)
(0.00100906 -4.54097e-06 0)
(0.00100543 -5.02135e-06 0)
(0.00100066 -3.13146e-06 0)
(0.000998058 -1.13286e-06 0)
(0.000998135 -2.52095e-07 0)
(0.000999622 -3.22653e-07 0)
(0.00100064 -7.41327e-07 0)
(0.00100106 -9.67445e-07 0)
(0.00100055 -1.07415e-06 0)
(0.001 9.63591e-08 0)
(0.001 3.15187e-07 0)
(0.00100002 5.71436e-07 0)
(0.00100007 9.17785e-07 0)
(0.0010002 1.33369e-06 0)
(0.00100047 1.87086e-06 0)
(0.00100097 2.39925e-06 0)
(0.00100185 2.97598e-06 0)
(0.00100318 3.11194e-06 0)
(0.00100469 2.73239e-06 0)
(0.00100568 5.06011e-07 0)
(0.00100527 -2.7526e-06 0)
(0.00100338 -5.07718e-06 0)
(0.00100096 -5.07073e-06 0)
(0.00099941 -3.44936e-06 0)
(0.000999123 -1.7941e-06 0)
(0.000999745 -1.02095e-06 0)
(0.00100025 -1.05919e-06 0)
(0.00100061 -1.30752e-06 0)
(0.00100024 -1.51585e-06 0)
(0.001 9.74998e-08 0)
(0.00100003 3.02222e-07 0)
(0.00100008 5.35324e-07 0)
(0.00100018 8.0624e-07 0)
(0.00100036 1.12203e-06 0)
(0.00100066 1.45919e-06 0)
(0.00100112 1.77786e-06 0)
(0.00100174 1.95131e-06 0)
(0.00100248 1.78381e-06 0)
(0.00100317 1.03583e-06 0)
(0.00100366 -2.79323e-07 0)
(0.00100363 -1.78036e-06 0)
(0.00100292 -2.70931e-06 0)
(0.00100171 -2.63034e-06 0)
(0.00100058 -1.77783e-06 0)
(0.000999905 -8.94989e-07 0)
(0.000999858 -4.27362e-07 0)
(0.000999981 -4.48293e-07 0)
(0.00100022 -6.16877e-07 0)
(0.00100001 -8.48846e-07 0)
(0.001 8.58264e-08 0)
(0.00100004 2.64111e-07 0)
(0.00100011 4.54077e-07 0)
(0.00100024 6.61816e-07 0)
(0.00100043 8.78315e-07 0)
(0.0010007 1.08436e-06 0)
(0.00100106 1.22916e-06 0)
(0.0010015 1.25216e-06 0)
(0.001002 1.07388e-06 0)
(0.00100248 6.57258e-07 0)
(0.0010028 1.93364e-08 0)
(0.00100274 -7.69403e-07 0)
(0.00100228 -1.44868e-06 0)
(0.00100146 -1.77302e-06 0)
(0.00100062 -1.66735e-06 0)
(0.00100001 -1.34824e-06 0)
(0.000999793 -1.02991e-06 0)
(0.000999765 -9.37457e-07 0)
(0.000999885 -9.4565e-07 0)
(0.000999769 -1.10856e-06 0)
(0.001 6.95897e-08 0)
(0.00100004 2.1008e-07 0)
(0.00100012 3.53885e-07 0)
(0.00100025 5.00952e-07 0)
(0.00100043 6.44013e-07 0)
(0.00100066 7.65739e-07 0)
(0.00100096 8.37156e-07 0)
(0.00100129 8.25126e-07 0)
(0.00100163 6.9082e-07 0)
(0.00100191 4.06131e-07 0)
(0.00100206 -4.72216e-08 0)
(0.001002 -5.75866e-07 0)
(0.00100171 -1.03505e-06 0)
(0.0010012 -1.28111e-06 0)
(0.00100065 -1.22987e-06 0)
(0.00100016 -9.94845e-07 0)
(0.000999914 -7.02397e-07 0)
(0.00099974 -5.5693e-07 0)
(0.000999753 -4.87134e-07 0)
(0.000999562 -5.9816e-07 0)
(0.001 5.14284e-08 0)
(0.00100004 1.50519e-07 0)
(0.00100012 2.46462e-07 0)
(0.00100025 3.37611e-07 0)
(0.00100041 4.20472e-07 0)
(0.00100062 4.82947e-07 0)
(0.00100086 5.08844e-07 0)
(0.00100112 4.73595e-07 0)
(0.00100137 3.61634e-07 0)
(0.00100157 1.55927e-07 0)
(0.00100167 -1.17131e-07 0)
(0.00100161 -4.21435e-07 0)
(0.00100139 -6.81817e-07 0)
(0.00100103 -8.42947e-07 0)
(0.00100064 -8.51106e-07 0)
(0.00100022 -7.71293e-07 0)
(0.00099995 -6.37755e-07 0)
(0.00099969 -5.96092e-07 0)
(0.000999629 -5.60746e-07 0)
(0.000999389 -6.84316e-07 0)
(0.001 3.58498e-08 0)
(0.00100004 1.05443e-07 0)
(0.00100011 1.7423e-07 0)
(0.00100023 2.40405e-07 0)
(0.00100038 3.006e-07 0)
(0.00100056 3.48969e-07 0)
(0.00100077 3.75628e-07 0)
(0.00100097 3.69761e-07 0)
(0.00100116 3.20847e-07 0)
(0.0010013 2.24942e-07 0)
(0.00100136 8.66969e-08 0)
(0.00100131 -7.02774e-08 0)
(0.00100115 -2.06103e-07 0)
(0.00100086 -2.97581e-07 0)
(0.00100054 -3.12743e-07 0)
(0.00100017 -2.81752e-07 0)
(0.000999902 -2.01931e-07 0)
(0.000999614 -1.67679e-07 0)
(0.000999518 -1.17663e-07 0)
(0.00099925 -1.97915e-07 0)
(0.001 -3.50055e-09 0)
(0.00100004 -9.57115e-09 0)
(0.00100012 -1.30533e-08 0)
(0.00100024 -1.53525e-08 0)
(0.00100039 -1.78936e-08 0)
(0.00100056 -2.33304e-08 0)
(0.00100075 -3.37027e-08 0)
(0.00100094 -5.29797e-08 0)
(0.00100111 -8.12588e-08 0)
(0.00100123 -1.21682e-07 0)
(0.00100128 -1.69356e-07 0)
(0.00100122 -2.3098e-07 0)
(0.00100107 -2.90299e-07 0)
(0.00100081 -3.41171e-07 0)
(0.00100053 -3.59608e-07 0)
(0.00100018 -3.67755e-07 0)
(0.000999947 -3.41917e-07 0)
(0.000999611 -3.52315e-07 0)
(0.000999523 -3.2748e-07 0)
(0.000999131 -4.1041e-07 0)
)
;

boundaryField
{
    sides
    {
        type            slip;
    }
    inlet
    {
        type            fixedValue;
        value           uniform (0.001 0 0);
    }
    outlet
    {
        type            zeroGradient;
    }
    frontAndBack
    {
        type            empty;
    }
}


// ************************************************************************* //
