/*--------------------------------*- C++ -*----------------------------------*\
  =========                 |
  \\      /  F ield         | OpenFOAM: The Open Source CFD Toolbox
   \\    /   O peration     | Website:  https://openfoam.org
    \\  /    A nd           | Version:  9
     \\/     M anipulation  |
\*---------------------------------------------------------------------------*/
FoamFile
{
    format      ascii;
    class       surfaceScalarField;
    location    "92";
    object      phi;
}
// * * * * * * * * * * * * * * * * * * * * * * * * * * * * * * * * * * * * * //

dimensions      [0 4 -1 0 0 0 0];

internalField   nonuniform List<scalar> 
760
(
5.00009e-06
-9.38167e-11
5.0004e-06
-3.08131e-10
5.00091e-06
-5.14004e-10
5.00162e-06
-7.03331e-10
5.00249e-06
-8.72102e-10
5.0035e-06
-1.00107e-09
5.00456e-06
-1.0599e-09
5.00557e-06
-1.01536e-09
5.0064e-06
-8.35531e-10
5.00693e-06
-5.27702e-10
5.00705e-06
-1.27078e-10
5.00665e-06
3.90915e-10
5.0058e-06
8.49655e-10
5.0047e-06
1.09973e-09
5.00353e-06
1.16975e-09
5.00257e-06
9.49401e-10
5.00185e-06
7.11525e-10
5.00161e-06
2.41281e-10
5.00151e-06
1.02963e-10
-3.93319e-10
5.00012e-06
-2.15685e-10
5.00045e-06
-6.36845e-10
5.00098e-06
-1.04668e-09
5.00172e-06
-1.4412e-09
5.00265e-06
-1.80267e-09
5.00375e-06
-2.09142e-09
5.00493e-06
-2.24709e-09
5.00611e-06
-2.19603e-09
5.00713e-06
-1.85836e-09
5.00778e-06
-1.17548e-09
5.00775e-06
-1.01209e-10
5.00726e-06
8.81944e-10
5.00627e-06
1.83712e-09
5.00496e-06
2.41114e-09
5.00369e-06
2.44224e-09
5.00278e-06
1.85362e-09
5.00225e-06
1.23918e-09
5.00191e-06
5.74858e-10
5.00165e-06
3.63643e-10
-1.50094e-10
5.00011e-06
-3.24678e-10
5.00043e-06
-9.55679e-10
5.00096e-06
-1.57715e-09
5.00172e-06
-2.20434e-09
5.00272e-06
-2.80359e-09
5.00394e-06
-3.31477e-09
5.00532e-06
-3.62585e-09
5.00672e-06
-3.59723e-09
5.00793e-06
-3.06622e-09
5.00872e-06
-1.96314e-09
5.00893e-06
-3.11986e-10
5.00825e-06
1.56965e-09
5.00687e-06
3.22479e-09
5.00516e-06
4.13137e-09
5.00351e-06
4.09103e-09
5.00231e-06
3.05282e-09
5.00166e-06
1.88449e-09
5.00147e-06
7.64192e-10
5.00145e-06
3.93223e-10
-2.22621e-10
5.0001e-06
-4.23286e-10
5.00041e-06
-1.26356e-09
5.00095e-06
-2.1125e-09
5.00175e-06
-3.00888e-09
5.00285e-06
-3.91279e-09
5.00428e-06
-4.74913e-09
5.00601e-06
-5.35338e-09
5.00795e-06
-5.53062e-09
5.00984e-06
-4.95167e-09
5.01107e-06
-3.18855e-09
5.0112e-06
-4.22136e-10
5.00999e-06
2.7751e-09
5.00765e-06
5.5797e-09
5.00514e-06
6.64195e-09
5.00347e-06
5.76233e-09
5.0027e-06
3.82787e-09
5.00248e-06
2.1088e-09
5.00231e-06
9.35308e-10
5.002e-06
7.09419e-10
3.39925e-10
5.00008e-06
-5.02466e-10
5.00034e-06
-1.52077e-09
5.00084e-06
-2.60701e-09
5.00164e-06
-3.81335e-09
5.00286e-06
-5.13598e-09
5.00457e-06
-6.46682e-09
5.0068e-06
-7.57448e-09
5.00941e-06
-8.14964e-09
5.0124e-06
-7.90452e-09
5.01478e-06
-5.59224e-09
5.01482e-06
-4.57481e-10
5.01285e-06
4.75353e-09
5.00866e-06
9.748e-09
5.00459e-06
1.07224e-08
5.00224e-06
8.12228e-09
5.00174e-06
4.32498e-09
5.00205e-06
1.80694e-09
5.00226e-06
7.26931e-10
5.00201e-06
9.55132e-10
6.29448e-10
5.00004e-06
-5.41845e-10
5.0002e-06
-1.67575e-09
5.00054e-06
-2.94852e-09
5.00121e-06
-4.48635e-09
5.00241e-06
-6.3358e-09
5.00452e-06
-8.57766e-09
5.00759e-06
-1.06541e-08
5.01168e-06
-1.22103e-08
5.01552e-06
-1.17714e-08
5.01902e-06
-9.06235e-09
5.0202e-06
-1.68808e-09
5.01602e-06
8.95436e-09
5.00951e-06
1.62544e-08
5.0042e-06
1.60034e-08
5.00216e-06
1.01619e-08
5.00249e-06
4.00277e-09
5.00327e-06
1.03306e-09
5.0034e-06
6.01459e-10
5.0028e-06
1.55133e-09
1.42521e-09
4.99998e-06
-5.21479e-10
4.99994e-06
-1.63337e-09
5.00003e-06
-3.04075e-09
5.00036e-06
-4.81526e-09
5.00122e-06
-7.19437e-09
5.00292e-06
-1.02789e-08
5.0068e-06
-1.45327e-08
5.01393e-06
-1.93396e-08
5.02375e-06
-2.16077e-08
5.03092e-06
-1.62369e-08
5.02876e-06
5.64165e-10
5.01673e-06
2.09171e-08
5.00418e-06
2.88117e-08
4.99873e-06
2.14543e-08
5.00057e-06
8.31213e-09
5.00285e-06
1.72913e-09
5.00372e-06
1.63335e-10
5.00367e-06
6.53548e-10
5.00305e-06
2.16623e-09
1.68343e-09
4.99987e-06
-3.88103e-10
4.99955e-06
-1.31951e-09
4.99912e-06
-2.61238e-09
4.99886e-06
-4.54309e-09
4.99933e-06
-7.6686e-09
5.00036e-06
-1.13075e-08
5.00365e-06
-1.78273e-08
5.00983e-06
-2.55141e-08
5.0249e-06
-3.66749e-08
5.05609e-06
-4.75329e-08
5.05007e-06
5.98504e-09
5.02319e-06
4.78124e-08
4.99817e-06
5.3792e-08
4.99349e-06
2.61327e-08
4.99946e-06
2.34286e-09
5.00408e-06
-2.87654e-09
5.00491e-06
-6.69706e-10
5.00373e-06
1.83477e-09
5.00351e-06
2.38105e-09
9.70848e-10
4.99977e-06
-1.57554e-10
4.99915e-06
-7.04056e-10
4.99792e-06
-1.37834e-09
4.99611e-06
-2.73081e-09
4.99402e-06
-5.57848e-09
4.99374e-06
-1.10336e-08
4.99945e-06
-2.35374e-08
5.01713e-06
-4.31997e-08
5.05568e-06
-7.52269e-08
5.06686e-06
-5.85892e-08
5.0497e-06
2.37263e-08
4.99649e-06
1.0101e-07
4.98931e-06
6.101e-08
4.99591e-06
1.95398e-08
5.00019e-06
-1.93016e-09
5.00293e-06
-5.61084e-09
5.00253e-06
-2.60005e-10
5.00185e-06
2.51714e-09
5.00255e-06
1.67725e-09
7.40718e-11
4.99986e-06
-1.64414e-11
4.9992e-06
-5.07078e-11
4.99791e-06
-8.46547e-11
4.99531e-06
-1.26616e-10
4.9899e-06
-1.70282e-10
4.97909e-06
-2.23718e-10
4.95582e-06
-2.73947e-10
4.91295e-06
-3.23879e-10
4.83813e-06
-4.01163e-10
4.77999e-06
-4.43775e-10
4.80426e-06
-6.17644e-10
4.90605e-06
-7.19042e-10
4.96779e-06
-7.47684e-10
4.98823e-06
-9.01844e-10
4.98745e-06
-1.15482e-09
4.98326e-06
-1.42022e-09
4.98456e-06
-1.55476e-09
4.9889e-06
-1.82681e-09
4.99248e-06
-1.89579e-09
-2.58494e-09
4.99986e-06
1.2545e-10
4.9992e-06
6.0184e-10
4.99791e-06
1.21224e-09
4.9953e-06
2.48226e-09
4.98987e-06
5.24882e-09
4.97906e-06
1.06009e-08
4.95578e-06
2.30108e-08
4.9129e-06
4.25395e-08
4.83804e-06
7.4471e-08
4.77972e-06
5.78227e-08
4.80426e-06
-2.50276e-08
4.906e-06
-1.0247e-07
4.96777e-06
-6.25202e-08
4.98808e-06
-2.1197e-08
4.98736e-06
-4.50407e-10
4.98293e-06
2.99868e-09
4.98443e-06
-3.05162e-09
4.98889e-06
-6.28633e-09
4.99235e-06
-5.35936e-09
-4.98479e-09
4.99977e-06
3.57068e-10
4.99915e-06
1.22157e-09
4.99791e-06
2.44292e-09
4.9961e-06
4.29511e-09
4.99402e-06
7.333e-09
4.99373e-06
1.08897e-08
4.99943e-06
1.73188e-08
5.01709e-06
2.48879e-08
5.05561e-06
3.59011e-08
5.06715e-06
4.63887e-08
5.04942e-06
-8.83047e-09
4.9961e-06
-4.90713e-08
4.98886e-06
-5.52488e-08
4.9957e-06
-2.80448e-08
5.0001e-06
-4.87201e-09
5.00231e-06
7.85072e-10
5.00165e-06
-2.39638e-09
5.0009e-06
-5.53788e-09
5.00168e-06
-6.14091e-09
-5.9534e-09
4.99987e-06
4.91659e-10
4.99955e-06
1.539e-09
4.99911e-06
2.87865e-09
4.99883e-06
4.57851e-09
4.99928e-06
6.88818e-09
5.00027e-06
9.89652e-09
5.00348e-06
1.41093e-08
5.0096e-06
1.87679e-08
5.02461e-06
2.09128e-08
5.0555e-06
1.5388e-08
5.04981e-06
-1.59732e-09
5.02283e-06
-2.21766e-08
4.99787e-06
-3.03137e-08
4.99316e-06
-2.33392e-08
4.99864e-06
-1.03516e-08
5.00345e-06
-4.02534e-09
5.00373e-06
-2.67475e-09
5.00235e-06
-4.16477e-09
5.00216e-06
-5.949e-09
-6.53822e-09
4.99998e-06
5.13309e-10
4.99993e-06
1.58867e-09
5e-06
2.80297e-09
5.00031e-06
4.27796e-09
5.00114e-06
6.06471e-09
5.0028e-06
8.23232e-09
5.00668e-06
1.02214e-08
5.01378e-06
1.16721e-08
5.02357e-06
1.1124e-08
5.03073e-06
8.27452e-09
5.02838e-06
6.06831e-10
5.01624e-06
-1.0039e-08
5.00349e-06
-1.7562e-08
4.99777e-06
-1.76137e-08
4.99942e-06
-1.19868e-08
5.00161e-06
-6.21814e-09
5.0024e-06
-3.46633e-09
5.00213e-06
-3.89152e-09
5.00119e-06
-5.01191e-09
-5.97988e-09
5.00004e-06
4.75698e-10
5.00018e-06
1.44514e-09
5.0005e-06
2.48242e-09
5.00115e-06
3.63372e-09
5.00232e-06
4.89616e-09
5.0044e-06
6.15577e-09
5.00741e-06
7.19404e-09
5.01139e-06
7.69063e-09
5.01514e-06
7.39266e-09
5.01852e-06
4.88274e-09
5.01956e-06
-4.01446e-10
5.01523e-06
-5.69791e-09
5.00854e-06
-1.0868e-08
5.00311e-06
-1.21731e-08
5.00088e-06
-9.74765e-09
5.00101e-06
-6.34606e-09
5.00155e-06
-4.00947e-09
5.00131e-06
-3.65275e-09
5.00035e-06
-4.04852e-09
-4.97934e-09
5.00008e-06
3.99038e-10
5.00033e-06
1.201e-09
5.0008e-06
2.01128e-09
5.00156e-06
2.85982e-09
5.00275e-06
3.71462e-09
5.00441e-06
4.49632e-09
5.00656e-06
5.04435e-09
5.00909e-06
5.14831e-09
5.01203e-06
4.45366e-09
5.0144e-06
2.51192e-09
5.01414e-06
-1.35708e-10
5.01208e-06
-3.63489e-09
5.00776e-06
-6.53128e-09
5.00349e-06
-7.90461e-09
5.00093e-06
-7.18645e-09
5.00013e-06
-5.55044e-09
5.0001e-06
-3.98523e-09
4.99987e-06
-3.42305e-09
4.99917e-06
-3.34346e-09
-4.17381e-09
5.0001e-06
3.0285e-10
5.0004e-06
9.04509e-10
5.00091e-06
1.49898e-09
5.00167e-06
2.08893e-09
5.00273e-06
2.65015e-09
5.00412e-06
3.11436e-09
5.00579e-06
3.38115e-09
5.00763e-06
3.3079e-09
5.00933e-06
2.75223e-09
5.01027e-06
1.57045e-09
5.01043e-06
-3.03203e-10
5.00903e-06
-2.2359e-09
5.00651e-06
-4.00878e-09
5.00368e-06
-5.08154e-09
5.00154e-06
-5.06274e-09
5.00034e-06
-4.35664e-09
4.9997e-06
-3.34556e-09
4.99916e-06
-2.88783e-09
4.99845e-06
-2.62558e-09
-3.21594e-09
5.0001e-06
2.02254e-10
5.00041e-06
5.96622e-10
5.00093e-06
9.81939e-10
5.00166e-06
1.35201e-09
5.00261e-06
1.69143e-09
5.00378e-06
1.95302e-09
5.0051e-06
2.07134e-09
5.00645e-06
1.95948e-09
5.00765e-06
1.55804e-09
5.00839e-06
8.28664e-10
5.00821e-06
-1.29994e-10
5.00734e-06
-1.36116e-09
5.0057e-06
-2.37946e-09
5.00368e-06
-3.07034e-09
5.00179e-06
-3.17582e-09
5.00033e-06
-2.90138e-09
4.99931e-06
-2.32581e-09
4.99852e-06
-2.09289e-09
4.99773e-06
-1.83085e-09
-2.27738e-09
5.00008e-06
1.17807e-10
5.00037e-06
3.06237e-10
5.00087e-06
4.91213e-10
5.00155e-06
6.69101e-10
5.00241e-06
8.29643e-10
5.00341e-06
9.49829e-10
5.00449e-06
9.99407e-10
5.00551e-06
9.3921e-10
5.00633e-06
7.39269e-10
5.00679e-06
3.63638e-10
5.00681e-06
-1.41516e-10
5.00608e-06
-6.28761e-10
5.00479e-06
-1.09276e-09
5.00315e-06
-1.43175e-09
5.00148e-06
-1.50449e-09
5.00002e-06
-1.43861e-09
4.99888e-06
-1.18548e-09
4.99793e-06
-1.13254e-09
4.99707e-06
-9.74158e-10
-1.42377e-09
5.00011e-06
5.00041e-06
5.00091e-06
5.00159e-06
5.00242e-06
5.00337e-06
5.00436e-06
5.0053e-06
5.00603e-06
5.00639e-06
5.00625e-06
5.00562e-06
5.00453e-06
5.00311e-06
5.00161e-06
5.00017e-06
4.99899e-06
4.99785e-06
4.99688e-06
)
;

boundaryField
{
    sides
    {
        type            calculated;
        value           uniform 0;
    }
    inlet
    {
        type            calculated;
        value           nonuniform List<scalar> 
20
(
-5e-06
-5e-06
-5e-06
-5e-06
-5e-06
-5e-06
-5e-06
-5e-06
-5e-06
-5e-06
-5e-06
-5e-06
-5e-06
-5e-06
-5e-06
-5e-06
-5e-06
-5e-06
-5e-06
-5e-06
)
;
    }
    outlet
    {
        type            calculated;
        value           nonuniform List<scalar> 
20
(
5.0019e-06
5.00141e-06
5.00152e-06
5.00144e-06
5.00172e-06
5.002e-06
5.00279e-06
5.00422e-06
5.00344e-06
4.99514e-06
4.99475e-06
5.00265e-06
5.00274e-06
5.00064e-06
4.99935e-06
4.99837e-06
4.9975e-06
4.99679e-06
4.99622e-06
4.99545e-06
)
;
    }
    frontAndBack
    {
        type            empty;
        value           nonuniform List<scalar> 0();
    }
}


// ************************************************************************* //
