/*--------------------------------*- C++ -*----------------------------------*\
  =========                 |
  \\      /  F ield         | OpenFOAM: The Open Source CFD Toolbox
   \\    /   O peration     | Website:  https://openfoam.org
    \\  /    A nd           | Version:  9
     \\/     M anipulation  |
\*---------------------------------------------------------------------------*/
FoamFile
{
    format      ascii;
    class       surfaceScalarField;
    location    "92";
    object      phi_0;
}
// * * * * * * * * * * * * * * * * * * * * * * * * * * * * * * * * * * * * * //

dimensions      [0 4 -1 0 0 0 0];

internalField   nonuniform List<scalar> 
760
(
5.00009e-06
-9.42876e-11
5.0004e-06
-3.06778e-10
5.00091e-06
-5.13625e-10
5.00162e-06
-7.04107e-10
5.00249e-06
-8.71899e-10
5.0035e-06
-1.00128e-09
5.00456e-06
-1.05874e-09
5.00557e-06
-1.01444e-09
5.0064e-06
-8.34264e-10
5.00692e-06
-5.26099e-10
5.00705e-06
-1.2687e-10
5.00665e-06
3.91725e-10
5.0058e-06
8.48712e-10
5.00469e-06
1.09888e-09
5.00353e-06
1.16907e-09
5.00257e-06
9.4919e-10
5.00185e-06
7.11392e-10
5.00161e-06
2.41198e-10
5.00151e-06
1.03474e-10
-3.92899e-10
5.00012e-06
-2.16249e-10
5.00045e-06
-6.3557e-10
5.00098e-06
-1.04647e-09
5.00172e-06
-1.44132e-09
5.00265e-06
-1.80249e-09
5.00375e-06
-2.09086e-09
5.00493e-06
-2.24569e-09
5.00611e-06
-2.19397e-09
5.00713e-06
-1.85707e-09
5.00777e-06
-1.17508e-09
5.00775e-06
-9.99394e-11
5.00726e-06
8.78843e-10
5.00627e-06
1.83563e-09
5.00496e-06
2.40887e-09
5.00368e-06
2.44108e-09
5.00278e-06
1.85386e-09
5.00225e-06
1.23902e-09
5.00191e-06
5.74177e-10
5.00165e-06
3.63643e-10
-1.49712e-10
5.00011e-06
-3.25308e-10
5.00043e-06
-9.55772e-10
5.00096e-06
-1.57688e-09
5.00172e-06
-2.20346e-09
5.00272e-06
-2.80272e-09
5.00395e-06
-3.31389e-09
5.00532e-06
-3.62395e-09
5.00672e-06
-3.5966e-09
5.00793e-06
-3.06412e-09
5.00872e-06
-1.9686e-09
5.00893e-06
-3.11483e-10
5.00825e-06
1.56461e-09
5.00687e-06
3.21898e-09
5.00516e-06
4.12904e-09
5.00351e-06
4.08985e-09
5.00231e-06
3.0527e-09
5.00166e-06
1.88401e-09
5.00148e-06
7.63249e-10
5.00145e-06
3.92382e-10
-2.22936e-10
5.0001e-06
-4.23867e-10
5.00041e-06
-1.26432e-09
5.00095e-06
-2.11244e-09
5.00175e-06
-3.00714e-09
5.00285e-06
-3.91177e-09
5.00429e-06
-4.74819e-09
5.00601e-06
-5.35341e-09
5.00795e-06
-5.52972e-09
5.00984e-06
-4.95606e-09
5.01108e-06
-3.19033e-09
5.0112e-06
-4.34857e-10
5.00999e-06
2.77923e-09
5.00765e-06
5.57366e-09
5.00515e-06
6.63663e-09
5.00347e-06
5.76248e-09
5.0027e-06
3.82862e-09
5.00248e-06
2.10881e-09
5.00231e-06
9.34948e-10
5.002e-06
7.08661e-10
3.39404e-10
5.00008e-06
-5.02834e-10
5.00034e-06
-1.52131e-09
5.00084e-06
-2.60634e-09
5.00164e-06
-3.81207e-09
5.00286e-06
-5.13579e-09
5.00457e-06
-6.46745e-09
5.0068e-06
-7.57533e-09
5.00941e-06
-8.15005e-09
5.01239e-06
-7.91489e-09
5.01478e-06
-5.58247e-09
5.01483e-06
-4.49713e-10
5.01284e-06
4.74942e-09
5.00866e-06
9.75835e-09
5.0046e-06
1.07222e-08
5.00224e-06
8.11927e-09
5.00174e-06
4.32524e-09
5.00205e-06
1.80841e-09
5.00226e-06
7.28233e-10
5.00201e-06
9.556e-10
6.29332e-10
5.00004e-06
-5.41918e-10
5.0002e-06
-1.67542e-09
5.00054e-06
-2.94747e-09
5.00121e-06
-4.48599e-09
5.00241e-06
-6.33699e-09
5.00452e-06
-8.57941e-09
5.0076e-06
-1.06539e-08
5.01167e-06
-1.22185e-08
5.01554e-06
-1.17582e-08
5.019e-06
-9.07699e-09
5.0202e-06
-1.6475e-09
5.01603e-06
8.9517e-09
5.0095e-06
1.62534e-08
5.00421e-06
1.60123e-08
5.00217e-06
1.01641e-08
5.0025e-06
4.00235e-09
5.00327e-06
1.03426e-09
5.0034e-06
6.03947e-10
5.0028e-06
1.55322e-09
1.42573e-09
4.99998e-06
-5.20988e-10
4.99994e-06
-1.63261e-09
5.00003e-06
-3.03974e-09
5.00036e-06
-4.81593e-09
5.00122e-06
-7.19583e-09
5.00292e-06
-1.02796e-08
5.0068e-06
-1.45346e-08
5.01393e-06
-1.93336e-08
5.02375e-06
-2.16133e-08
5.03095e-06
-1.62237e-08
5.02873e-06
4.15646e-10
5.01673e-06
2.09523e-08
5.00418e-06
2.88106e-08
4.99872e-06
2.14502e-08
5.00057e-06
8.3126e-09
5.00285e-06
1.72903e-09
5.00372e-06
1.64148e-10
5.00366e-06
6.55565e-10
5.00305e-06
2.16823e-09
1.68426e-09
4.99987e-06
-3.87235e-10
4.99955e-06
-1.3187e-09
4.99912e-06
-2.61236e-09
4.99885e-06
-4.54401e-09
4.99933e-06
-7.66909e-09
5.00036e-06
-1.13072e-08
5.00365e-06
-1.78256e-08
5.00982e-06
-2.55144e-08
5.02489e-06
-3.66668e-08
5.05613e-06
-4.7532e-08
5.05008e-06
7.66355e-09
5.02315e-06
4.77462e-08
4.99817e-06
5.37935e-08
4.99349e-06
2.61332e-08
4.99947e-06
2.34317e-09
5.00408e-06
-2.87774e-09
5.00491e-06
-6.70768e-10
5.00373e-06
1.83414e-09
5.00351e-06
2.38159e-09
9.71188e-10
4.99977e-06
-1.56846e-10
4.99915e-06
-7.04047e-10
4.99792e-06
-1.37903e-09
4.99611e-06
-2.73169e-09
4.99402e-06
-5.57685e-09
4.99374e-06
-1.1032e-08
4.99945e-06
-2.35389e-08
5.01714e-06
-4.3199e-08
5.05569e-06
-7.5235e-08
5.06682e-06
-5.85745e-08
5.04968e-06
2.36e-08
4.99652e-06
1.0105e-07
4.98931e-06
6.10136e-08
4.99591e-06
1.95418e-08
5.00019e-06
-1.93083e-09
5.00294e-06
-5.61262e-09
5.00253e-06
-2.63291e-10
5.00184e-06
2.51425e-09
5.00254e-06
1.67619e-09
8.24012e-11
4.99986e-06
-1.64811e-11
4.9992e-06
-5.13992e-11
4.99791e-06
-8.55019e-11
4.99531e-06
-1.26343e-10
4.9899e-06
-1.68815e-10
4.97909e-06
-2.21773e-10
4.95583e-06
-2.75832e-10
4.91295e-06
-3.32319e-10
4.83814e-06
-3.8992e-10
4.77996e-06
-4.50244e-10
4.80429e-06
-5.81323e-10
4.90604e-06
-7.11527e-10
4.96779e-06
-7.44426e-10
4.98823e-06
-8.9138e-10
4.98745e-06
-1.15314e-09
4.98326e-06
-1.42251e-09
4.98456e-06
-1.55769e-09
4.9889e-06
-1.82965e-09
4.99247e-06
-1.89772e-09
-2.58575e-09
4.99986e-06
1.24974e-10
4.9992e-06
6.00922e-10
4.99791e-06
1.21197e-09
4.9953e-06
2.48295e-09
4.98988e-06
5.24941e-09
4.97905e-06
1.06001e-08
4.95578e-06
2.30127e-08
4.91291e-06
4.2538e-08
4.83803e-06
7.44616e-08
4.77974e-06
5.78423e-08
4.80427e-06
-2.50612e-08
4.90599e-06
-1.02483e-07
4.96778e-06
-6.25026e-08
4.98807e-06
-2.11925e-08
4.98735e-06
-4.51483e-10
4.98293e-06
2.9981e-09
4.98443e-06
-3.05174e-09
4.98889e-06
-6.28666e-09
4.99235e-06
-5.36037e-09
-4.9854e-09
4.99977e-06
3.56814e-10
4.99915e-06
1.22097e-09
4.99791e-06
2.44288e-09
4.9961e-06
4.29578e-09
4.99402e-06
7.3318e-09
4.99373e-06
1.0888e-08
4.99943e-06
1.73199e-08
5.01709e-06
2.48945e-08
5.05563e-06
3.58967e-08
5.06706e-06
4.63525e-08
5.04947e-06
-6.23222e-09
4.99612e-06
-4.90586e-08
4.98885e-06
-5.5269e-08
4.99569e-06
-2.80529e-08
5.0001e-06
-4.8722e-09
5.00231e-06
7.8651e-10
5.00165e-06
-2.39358e-09
5.0009e-06
-5.53588e-09
5.00168e-06
-6.14061e-09
-5.95366e-09
4.99986e-06
4.91784e-10
4.99955e-06
1.53895e-09
4.99911e-06
2.8782e-09
4.99883e-06
4.57882e-09
4.99928e-06
6.88736e-09
5.00027e-06
9.89404e-09
5.00348e-06
1.41094e-08
5.0096e-06
1.87715e-08
5.02459e-06
2.09142e-08
5.05561e-06
1.54019e-08
5.04975e-06
-1.69097e-09
5.02281e-06
-2.21919e-08
4.99787e-06
-3.03132e-08
4.99316e-06
-2.33402e-08
4.99864e-06
-1.03496e-08
5.00345e-06
-4.02281e-09
5.00373e-06
-2.67275e-09
5.00235e-06
-4.16383e-09
5.00216e-06
-5.94925e-09
-6.53854e-09
4.99998e-06
5.13355e-10
4.99993e-06
1.5887e-09
5e-06
2.80202e-09
5.00031e-06
4.27792e-09
5.00113e-06
6.06558e-09
5.0028e-06
8.23182e-09
5.00668e-06
1.02187e-08
5.01377e-06
1.16717e-08
5.02357e-06
1.11305e-08
5.03071e-06
8.2773e-09
5.02837e-06
6.1459e-10
5.01625e-06
-1.00284e-08
5.0035e-06
-1.75615e-08
4.99778e-06
-1.76094e-08
4.99942e-06
-1.19831e-08
5.00161e-06
-6.21667e-09
5.0024e-06
-3.46701e-09
5.00213e-06
-3.89333e-09
5.00119e-06
-5.01337e-09
-5.9803e-09
5.00004e-06
4.75132e-10
5.00018e-06
1.44515e-09
5.00051e-06
2.48156e-09
5.00115e-06
3.63318e-09
5.00232e-06
4.89845e-09
5.0044e-06
6.15834e-09
5.00742e-06
7.19305e-09
5.01139e-06
7.68596e-09
5.01513e-06
7.39173e-09
5.01852e-06
4.88324e-09
5.01957e-06
-3.9814e-10
5.01523e-06
-5.6965e-09
5.00854e-06
-1.08635e-08
5.00312e-06
-1.21708e-08
5.00088e-06
-9.74806e-09
5.00101e-06
-6.34831e-09
5.00155e-06
-4.0132e-09
5.00131e-06
-3.65636e-09
5.00035e-06
-4.05e-09
-4.97934e-09
5.00008e-06
3.9848e-10
5.00033e-06
1.20083e-09
5.0008e-06
2.01118e-09
5.00157e-06
2.85877e-09
5.00275e-06
3.7157e-09
5.00441e-06
4.49978e-09
5.00656e-06
5.04642e-09
5.00909e-06
5.14534e-09
5.01203e-06
4.44828e-09
5.01441e-06
2.50985e-09
5.01414e-06
-1.37074e-10
5.01209e-06
-3.63508e-09
5.00776e-06
-6.53241e-09
5.00349e-06
-7.90783e-09
5.00093e-06
-7.19083e-09
5.00012e-06
-5.55412e-09
5.0001e-06
-3.98823e-09
4.99987e-06
-3.42488e-09
4.99917e-06
-3.34315e-09
-4.17303e-09
5.0001e-06
3.03293e-10
5.0004e-06
9.0455e-10
5.00091e-06
1.49905e-09
5.00167e-06
2.08779e-09
5.00273e-06
2.64864e-09
5.00412e-06
3.11499e-09
5.00579e-06
3.38344e-09
5.00763e-06
3.30898e-09
5.00933e-06
2.7508e-09
5.01027e-06
1.56848e-09
5.01043e-06
-3.05722e-10
5.00903e-06
-2.23789e-09
5.00651e-06
-4.01142e-09
5.00367e-06
-5.08477e-09
5.00154e-06
-5.06548e-09
5.00034e-06
-4.3577e-09
4.9997e-06
-3.3443e-09
4.99917e-06
-2.88502e-09
4.99845e-06
-2.62273e-09
-3.2147e-09
5.0001e-06
2.03459e-10
5.00041e-06
5.9702e-10
5.00093e-06
9.82237e-10
5.00166e-06
1.35105e-09
5.00261e-06
1.68837e-09
5.00378e-06
1.95019e-09
5.00509e-06
2.07073e-09
5.00645e-06
1.96114e-09
5.00765e-06
1.5598e-09
5.00839e-06
8.3039e-10
5.00821e-06
-1.28295e-10
5.00734e-06
-1.35998e-09
5.0057e-06
-2.37833e-09
5.00368e-06
-3.0688e-09
5.00179e-06
-3.17389e-09
5.00033e-06
-2.89857e-09
4.99931e-06
-2.32066e-09
4.99852e-06
-2.08674e-09
4.99773e-06
-1.82674e-09
-2.27617e-09
5.00008e-06
1.18767e-10
5.00037e-06
3.06652e-10
5.00086e-06
4.91581e-10
5.00155e-06
6.68772e-10
5.00241e-06
8.27186e-10
5.00341e-06
9.46838e-10
5.00448e-06
9.9742e-10
5.00551e-06
9.3958e-10
5.00633e-06
7.40652e-10
5.00679e-06
3.65863e-10
5.00681e-06
-1.39314e-10
5.00608e-06
-6.26058e-10
5.00479e-06
-1.08982e-09
5.00315e-06
-1.42847e-09
5.00148e-06
-1.50131e-09
5.00002e-06
-1.43555e-09
4.99889e-06
-1.18127e-09
4.99793e-06
-1.12788e-09
4.99707e-06
-9.71321e-10
-1.42308e-09
5.00011e-06
5.00041e-06
5.00091e-06
5.00159e-06
5.00242e-06
5.00337e-06
5.00436e-06
5.0053e-06
5.00603e-06
5.00639e-06
5.00625e-06
5.00562e-06
5.00453e-06
5.00311e-06
5.00161e-06
5.00018e-06
4.99899e-06
4.99785e-06
4.99687e-06
)
;

boundaryField
{
    sides
    {
        type            calculated;
        value           uniform 0;
    }
    inlet
    {
        type            calculated;
        value           nonuniform List<scalar> 
20
(
-5e-06
-5e-06
-5e-06
-5e-06
-5e-06
-5e-06
-5e-06
-5e-06
-5e-06
-5e-06
-5e-06
-5e-06
-5e-06
-5e-06
-5e-06
-5e-06
-5e-06
-5e-06
-5e-06
-5e-06
)
;
    }
    outlet
    {
        type            calculated;
        value           nonuniform List<scalar> 
20
(
5.0019e-06
5.00141e-06
5.00152e-06
5.00144e-06
5.00173e-06
5.002e-06
5.00279e-06
5.00422e-06
5.00343e-06
4.99513e-06
4.99475e-06
5.00265e-06
5.00275e-06
5.00064e-06
4.99936e-06
4.99837e-06
4.9975e-06
4.99679e-06
4.99621e-06
4.99545e-06
)
;
    }
    frontAndBack
    {
        type            empty;
        value           nonuniform List<scalar> 0();
    }
}


// ************************************************************************* //
