# vtk DataFile Version 2.0
track0
ASCII
DATASET POLYDATA
POINTS 1720 float
-1.001 -0.05 0.0011
-1.0008 -0.05 0.0011
-1.0006 -0.05 0.0011
-1.0004 -0.05 0.0011
-1.0002 -0.05 0.0011
-1 -0.05 0.0011
-0.8 -0.05 0.0011
-0.6 -0.05 0.0011
-0.4 -0.05 0.0011
-0.2 -0.05 0.0011
0 -0.05 0.0011
0.2 -0.05 0.0011
0.4 -0.05 0.0011
0.6 -0.05 0.0011
0.8 -0.05 0.0011
1 -0.05 0.0011
1.2 -0.05 0.0011
1.4 -0.05 0.0011
1.6 -0.05 0.0011
1.8 -0.05 0.0011
2 -0.05 0.0011
2.2 -0.05 0.0011
2.4 -0.05 0.0011
2.6 -0.05 0.0011
2.8 -0.05 0.0011
3 -0.05 0.0011
3.2 -0.05 0.0011
3.4 -0.05 0.0011
3.6 -0.05 0.0011
3.8 -0.05 0.0011
4 -0.05 0.0011
4.2 -0.05 0.0011
4.4 -0.05 0.0011
4.6 -0.05 0.0011
4.8 -0.05 0.0011
5 -0.05 0.0011
5.2 -0.05 0.0011
5.4 -0.05 0.0011
5.6 -0.05 0.0011
5.8 -0.05 0.0011
6 -0.05 0.0011
6.2 -0.05 0.0011
6.4 -0.05 0.0011
6.6 -0.05 0.0011
6.8 -0.05 0.0011
7 -0.05 0.0011
7.2 -0.05 0.0011
7.4 -0.05 0.0011
7.6 -0.05 0.0011
7.8 -0.05 0.0011
8 -0.05 0.0011
8.2 -0.05 0.0011
8.4 -0.05 0.0011
8.6 -0.05 0.0011
8.8 -0.05 0.0011
9 -0.05 0.0011
9.2 -0.05 0.0011
9.4 -0.05 0.0011
9.6 -0.05 0.0011
9.8 -0.05 0.0011
10 -0.05 0.0011
10.2 -0.05 0.0011
10.4 -0.05 0.0011
10.6 -0.05 0.0011
10.8 -0.05 0.0011
11 -0.05 0.0011
11.2 -0.05 0.0011
11.4 -0.05 0.0011
11.6 -0.05 0.0011
11.8 -0.05 0.0011
12 -0.05 0.0011
12.2 -0.05 0.0011
12.4 -0.05 0.0011
12.6 -0.05 0.0011
12.8 -0.05 0.0011
13 -0.05 0.0011
13.2 -0.05 0.0011
13.4 -0.05 0.0011
13.6 -0.05 0.0011
13.8 -0.05 0.0011
14 -0.05 0.0011
14.2 -0.05 0.0011
14.4 -0.05 0.0011
14.6 -0.05 0.0011
14.8 -0.05 0.0011
15 -0.05 0.0011
-1.001 -0.05 0.0537316
-1.0008 -0.05 0.0537316
-1.0006 -0.05 0.0537316
-1.0004 -0.05 0.0537316
-1.0002 -0.05 0.0537316
-1 -0.05 0.0537316
-0.8 -0.05 0.0537316
-0.6 -0.05 0.0537316
-0.4 -0.05 0.0537316
-0.2 -0.05 0.0537316
0 -0.05 0.0537316
0.2 -0.05 0.0537316
0.4 -0.05 0.0537316
0.6 -0.05 0.0537316
0.8 -0.05 0.0537316
1 -0.05 0.0537316
1.2 -0.05 0.0537316
1.4 -0.05 0.0537316
1.6 -0.05 0.0537316
1.8 -0.05 0.0537316
2 -0.05 0.0537316
2.2 -0.05 0.0537316
2.4 -0.05 0.0537316
2.6 -0.05 0.0537316
2.8 -0.05 0.0537316
3 -0.05 0.0537316
3.2 -0.05 0.0537316
3.4 -0.05 0.0537316
3.6 -0.05 0.0537316
3.8 -0.05 0.0537316
4 -0.05 0.0537316
4.2 -0.05 0.0537316
4.4 -0.05 0.0537316
4.6 -0.05 0.0537316
4.8 -0.05 0.0537316
5 -0.05 0.0537316
5.2 -0.05 0.0537316
5.4 -0.05 0.0537316
5.6 -0.05 0.0537316
5.8 -0.05 0.0537316
6 -0.05 0.0537316
6.2 -0.05 0.0537316
6.4 -0.05 0.0537316
6.6 -0.05 0.0537316
6.8 -0.05 0.0537316
7 -0.05 0.0537316
7.2 -0.05 0.0537316
7.4 -0.05 0.0537316
7.6 -0.05 0.0537316
7.8 -0.05 0.0537316
8 -0.05 0.0537316
8.2 -0.05 0.0537316
8.4 -0.05 0.0537316
8.6 -0.05 0.0537316
8.8 -0.05 0.0537316
9 -0.05 0.0537316
9.2 -0.05 0.0537316
9.4 -0.05 0.0537316
9.6 -0.05 0.0537316
9.8 -0.05 0.0537316
10 -0.05 0.0537316
10.2 -0.05 0.0537316
10.4 -0.05 0.0537316
10.6 -0.05 0.0537316
10.8 -0.05 0.0537316
11 -0.05 0.0537316
11.2 -0.05 0.0537316
11.4 -0.05 0.0537316
11.6 -0.05 0.0537316
11.8 -0.05 0.0537316
12 -0.05 0.0537316
12.2 -0.05 0.0537316
12.4 -0.05 0.0537316
12.6 -0.05 0.0537316
12.8 -0.05 0.0537316
13 -0.05 0.0537316
13.2 -0.05 0.0537316
13.4 -0.05 0.0537316
13.6 -0.05 0.0537316
13.8 -0.05 0.0537316
14 -0.05 0.0537316
14.2 -0.05 0.0537316
14.4 -0.05 0.0537316
14.6 -0.05 0.0537316
14.8 -0.05 0.0537316
15 -0.05 0.0537316
-1.001 -0.05 0.106363
-1.0008 -0.05 0.106363
-1.0006 -0.05 0.106363
-1.0004 -0.05 0.106363
-1.0002 -0.05 0.106363
-1 -0.05 0.106363
-0.8 -0.05 0.106363
-0.6 -0.05 0.106363
-0.4 -0.05 0.106363
-0.2 -0.05 0.106363
0 -0.05 0.106363
0.2 -0.05 0.106363
0.4 -0.05 0.106363
0.6 -0.05 0.106363
0.8 -0.05 0.106363
1 -0.05 0.106363
1.2 -0.05 0.106363
1.4 -0.05 0.106363
1.6 -0.05 0.106363
1.8 -0.05 0.106363
2 -0.05 0.106363
2.2 -0.05 0.106363
2.4 -0.05 0.106363
2.6 -0.05 0.106363
2.8 -0.05 0.106363
3 -0.05 0.106363
3.2 -0.05 0.106363
3.4 -0.05 0.106363
3.6 -0.05 0.106363
3.8 -0.05 0.106363
4 -0.05 0.106363
4.2 -0.05 0.106363
4.4 -0.05 0.106363
4.6 -0.05 0.106363
4.8 -0.05 0.106363
5 -0.05 0.106363
5.2 -0.05 0.106363
5.4 -0.05 0.106363
5.6 -0.05 0.106363
5.8 -0.05 0.106363
6 -0.05 0.106363
6.2 -0.05 0.106363
6.4 -0.05 0.106363
6.6 -0.05 0.106363
6.8 -0.05 0.106363
7 -0.05 0.106363
7.2 -0.05 0.106363
7.4 -0.05 0.106363
7.6 -0.05 0.106363
7.8 -0.05 0.106363
8 -0.05 0.106363
8.2 -0.05 0.106363
8.4 -0.05 0.106363
8.6 -0.05 0.106363
8.8 -0.05 0.106363
9 -0.05 0.106363
9.2 -0.05 0.106363
9.4 -0.05 0.106363
9.6 -0.05 0.106363
9.8 -0.05 0.106363
10 -0.05 0.106363
10.2 -0.05 0.106363
10.4 -0.05 0.106363
10.6 -0.05 0.106363
10.8 -0.05 0.106363
11 -0.05 0.106363
11.2 -0.05 0.106363
11.4 -0.05 0.106363
11.6 -0.05 0.106363
11.8 -0.05 0.106363
12 -0.05 0.106363
12.2 -0.05 0.106363
12.4 -0.05 0.106363
12.6 -0.05 0.106363
12.8 -0.05 0.106363
13 -0.05 0.106363
13.2 -0.05 0.106363
13.4 -0.05 0.106363
13.6 -0.05 0.106363
13.8 -0.05 0.106363
14 -0.05 0.106363
14.2 -0.05 0.106363
14.4 -0.05 0.106363
14.6 -0.05 0.106363
14.8 -0.05 0.106363
15 -0.05 0.106363
-1.001 -0.05 0.158995
-1.0008 -0.05 0.158995
-1.0006 -0.05 0.158995
-1.0004 -0.05 0.158995
-1.0002 -0.05 0.158995
-1 -0.05 0.158995
-0.8 -0.05 0.158995
-0.6 -0.05 0.158995
-0.4 -0.05 0.158995
-0.2 -0.05 0.158995
0 -0.05 0.158995
0.2 -0.05 0.158995
0.4 -0.05 0.158995
0.6 -0.05 0.158995
0.8 -0.05 0.158995
1 -0.05 0.158995
1.2 -0.05 0.158995
1.4 -0.05 0.158995
1.6 -0.05 0.158995
1.8 -0.05 0.158995
2 -0.05 0.158995
2.2 -0.05 0.158995
2.4 -0.05 0.158995
2.6 -0.05 0.158995
2.8 -0.05 0.158995
3 -0.05 0.158995
3.2 -0.05 0.158995
3.4 -0.05 0.158995
3.6 -0.05 0.158995
3.8 -0.05 0.158995
4 -0.05 0.158995
4.2 -0.05 0.158995
4.4 -0.05 0.158995
4.6 -0.05 0.158995
4.8 -0.05 0.158995
5 -0.05 0.158995
5.2 -0.05 0.158995
5.4 -0.05 0.158995
5.6 -0.05 0.158995
5.8 -0.05 0.158995
6 -0.05 0.158995
6.2 -0.05 0.158995
6.4 -0.05 0.158995
6.6 -0.05 0.158995
6.8 -0.05 0.158995
7 -0.05 0.158995
7.2 -0.05 0.158995
7.4 -0.05 0.158995
7.6 -0.05 0.158995
7.8 -0.05 0.158995
8 -0.05 0.158995
8.2 -0.05 0.158995
8.4 -0.05 0.158995
8.6 -0.05 0.158995
8.8 -0.05 0.158995
9 -0.05 0.158995
9.2 -0.05 0.158995
9.4 -0.05 0.158995
9.6 -0.05 0.158995
9.8 -0.05 0.158995
10 -0.05 0.158995
10.2 -0.05 0.158995
10.4 -0.05 0.158995
10.6 -0.05 0.158995
10.8 -0.05 0.158995
11 -0.05 0.158995
11.2 -0.05 0.158995
11.4 -0.05 0.158995
11.6 -0.05 0.158995
11.8 -0.05 0.158995
12 -0.05 0.158995
12.2 -0.05 0.158995
12.4 -0.05 0.158995
12.6 -0.05 0.158995
12.8 -0.05 0.158995
13 -0.05 0.158995
13.2 -0.05 0.158995
13.4 -0.05 0.158995
13.6 -0.05 0.158995
13.8 -0.05 0.158995
14 -0.05 0.158995
14.2 -0.05 0.158995
14.4 -0.05 0.158995
14.6 -0.05 0.158995
14.8 -0.05 0.158995
15 -0.05 0.158995
-1.001 -0.05 0.211626
-1.0008 -0.05 0.211626
-1.0006 -0.05 0.211626
-1.0004 -0.05 0.211626
-1.0002 -0.05 0.211626
-1 -0.05 0.211626
-0.8 -0.05 0.211626
-0.6 -0.05 0.211626
-0.4 -0.05 0.211626
-0.2 -0.05 0.211626
0 -0.05 0.211626
0.2 -0.05 0.211626
0.4 -0.05 0.211626
0.6 -0.05 0.211626
0.8 -0.05 0.211626
1 -0.05 0.211626
1.2 -0.05 0.211626
1.4 -0.05 0.211626
1.6 -0.05 0.211626
1.8 -0.05 0.211626
2 -0.05 0.211626
2.2 -0.05 0.211626
2.4 -0.05 0.211626
2.6 -0.05 0.211626
2.8 -0.05 0.211626
3 -0.05 0.211626
3.2 -0.05 0.211626
3.4 -0.05 0.211626
3.6 -0.05 0.211626
3.8 -0.05 0.211626
4 -0.05 0.211626
4.2 -0.05 0.211626
4.4 -0.05 0.211626
4.6 -0.05 0.211626
4.8 -0.05 0.211626
5 -0.05 0.211626
5.2 -0.05 0.211626
5.4 -0.05 0.211626
5.6 -0.05 0.211626
5.8 -0.05 0.211626
6 -0.05 0.211626
6.2 -0.05 0.211626
6.4 -0.05 0.211626
6.6 -0.05 0.211626
6.8 -0.05 0.211626
7 -0.05 0.211626
7.2 -0.05 0.211626
7.4 -0.05 0.211626
7.6 -0.05 0.211626
7.8 -0.05 0.211626
8 -0.05 0.211626
8.2 -0.05 0.211626
8.4 -0.05 0.211626
8.6 -0.05 0.211626
8.8 -0.05 0.211626
9 -0.05 0.211626
9.2 -0.05 0.211626
9.4 -0.05 0.211626
9.6 -0.05 0.211626
9.8 -0.05 0.211626
10 -0.05 0.211626
10.2 -0.05 0.211626
10.4 -0.05 0.211626
10.6 -0.05 0.211626
10.8 -0.05 0.211626
11 -0.05 0.211626
11.2 -0.05 0.211626
11.4 -0.05 0.211626
11.6 -0.05 0.211626
11.8 -0.05 0.211626
12 -0.05 0.211626
12.2 -0.05 0.211626
12.4 -0.05 0.211626
12.6 -0.05 0.211626
12.8 -0.05 0.211626
13 -0.05 0.211626
13.2 -0.05 0.211626
13.4 -0.05 0.211626
13.6 -0.05 0.211626
13.8 -0.05 0.211626
14 -0.05 0.211626
14.2 -0.05 0.211626
14.4 -0.05 0.211626
14.6 -0.05 0.211626
14.8 -0.05 0.211626
15 -0.05 0.211626
-1.001 -0.05 0.264258
-1.0008 -0.05 0.264258
-1.0006 -0.05 0.264258
-1.0004 -0.05 0.264258
-1.0002 -0.05 0.264258
-1 -0.05 0.264258
-0.8 -0.05 0.264258
-0.6 -0.05 0.264258
-0.4 -0.05 0.264258
-0.2 -0.05 0.264258
0 -0.05 0.264258
0.2 -0.05 0.264258
0.4 -0.05 0.264258
0.6 -0.05 0.264258
0.8 -0.05 0.264258
1 -0.05 0.264258
1.2 -0.05 0.264258
1.4 -0.05 0.264258
1.6 -0.05 0.264258
1.8 -0.05 0.264258
2 -0.05 0.264258
2.2 -0.05 0.264258
2.4 -0.05 0.264258
2.6 -0.05 0.264258
2.8 -0.05 0.264258
3 -0.05 0.264258
3.2 -0.05 0.264258
3.4 -0.05 0.264258
3.6 -0.05 0.264258
3.8 -0.05 0.264258
4 -0.05 0.264258
4.2 -0.05 0.264258
4.4 -0.05 0.264258
4.6 -0.05 0.264258
4.8 -0.05 0.264258
5 -0.05 0.264258
5.2 -0.05 0.264258
5.4 -0.05 0.264258
5.6 -0.05 0.264258
5.8 -0.05 0.264258
6 -0.05 0.264258
6.2 -0.05 0.264258
6.4 -0.05 0.264258
6.6 -0.05 0.264258
6.8 -0.05 0.264258
7 -0.05 0.264258
7.2 -0.05 0.264258
7.4 -0.05 0.264258
7.6 -0.05 0.264258
7.8 -0.05 0.264258
8 -0.05 0.264258
8.2 -0.05 0.264258
8.4 -0.05 0.264258
8.6 -0.05 0.264258
8.8 -0.05 0.264258
9 -0.05 0.264258
9.2 -0.05 0.264258
9.4 -0.05 0.264258
9.6 -0.05 0.264258
9.8 -0.05 0.264258
10 -0.05 0.264258
10.2 -0.05 0.264258
10.4 -0.05 0.264258
10.6 -0.05 0.264258
10.8 -0.05 0.264258
11 -0.05 0.264258
11.2 -0.05 0.264258
11.4 -0.05 0.264258
11.6 -0.05 0.264258
11.8 -0.05 0.264258
12 -0.05 0.264258
12.2 -0.05 0.264258
12.4 -0.05 0.264258
12.6 -0.05 0.264258
12.8 -0.05 0.264258
13 -0.05 0.264258
13.2 -0.05 0.264258
13.4 -0.05 0.264258
13.6 -0.05 0.264258
13.8 -0.05 0.264258
14 -0.05 0.264258
14.2 -0.05 0.264258
14.4 -0.05 0.264258
14.6 -0.05 0.264258
14.8 -0.05 0.264258
15 -0.05 0.264258
-1.001 -0.05 0.316889
-1.0008 -0.05 0.316889
-1.0006 -0.05 0.316889
-1.0004 -0.05 0.316889
[...]
POINT_DATA 1720
 FIELD attributes 1
U 3 1720 float
20 	-7.3895e-18 	-3.41008e-18 20 	-6.454e-18 	-2.98352e-18 20 	-5.51849e-18 	-2.55697e-18 20 	-4.58299e-18 	-2.13041e-18 20 	-3.64748e-18 	-1.70385e-18 20 	-2.71197e-18 	-1.2773e-18 20 	-6.2203e-18 	-4.76984e-18 20 	-6.2203e-18 	-4.76984e-18 20 	-6.2203e-18 	-4.76984e-18 20 	-6.2203e-18 	-4.76984e-18 20 	-1.47804e-18 	-1.13461e-18 20 	-2.53438e-18 	-2.73443e-18 20 	-2.53438e-18 	-2.73443e-18 20 	-2.53438e-18 	-2.73443e-18 20 	-2.53438e-18 	-2.73443e-18 20 	-9.55776e-19 	-1.05057e-18 20 	-1.52717e-18 	-2.04409e-18 20 	-1.52717e-18 	-2.04409e-18 20 	-1.52717e-18 	-2.04409e-18 20 	-1.52717e-18 	-2.04409e-18 20 	-1.23142e-18 	-1.0903e-18 20 	-3.72504e-18 	-3.44434e-18 20 	-3.72504e-18 	-3.44434e-18 20 	-3.72504e-18 	-3.44434e-18 20 	-3.72504e-18 	-3.44434e-18 20 	-1.25825e-18 	-1.3124e-18 20 	-1.02726e-18 	-5.29545e-18 20 	-1.02726e-18 	-5.29545e-18 20 	-1.02726e-18 	-5.29545e-18 20 	-1.02726e-18 	-5.29545e-18 20 	-5.11678e-19 	-1.68846e-18 20 	-7.42257e-19 	-4.43459e-18 20 	-7.42257e-19 	-4.43459e-18 20 	-7.42257e-19 	-4.43459e-18 20 	-7.42257e-19 	-4.43459e-18 20 	3.75702e-19 	-1.59492e-18 20 	-1.92847e-19 	-1.97329e-18 20 	-1.92847e-19 	-1.97329e-18 20 	-1.92847e-19 	-1.97329e-18 20 	-1.92847e-19 	-1.97329e-18 20 	5.73133e-19 	-1.4621e-18 20 	6.41997e-19 	-2.80438e-18 20 	6.41997e-19 	-2.80438e-18 20 	6.41997e-19 	-2.80438e-18 20 	6.41997e-19 	-2.80438e-18 20 	5.34506e-19 	-9.70191e-19 20 	1.35923e-18 	-9.26545e-19 20 	1.35923e-18 	-9.26545e-19 20 	1.35923e-18 	-9.26545e-19 20 	1.35923e-18 	-9.26545e-19 20 	5.78228e-19 	-1.80943e-19 20 	4.50187e-19 	3.90396e-19 20 	4.50187e-19 	3.90396e-19 20 	4.50187e-19 	3.90396e-19 20 	4.50187e-19 	3.90396e-19 20 	2.9467e-19 	-1.51118e-19 20 	-1.33628e-19 	-2.83356e-19 20 	-1.33628e-19 	-2.83356e-19 20 	-1.33628e-19 	-2.83356e-19 20 	-1.33628e-19 	-2.83356e-19 20 	-2.54599e-19 	-4.2155e-19 20 	-5.99197e-19 	-7.27016e-19 20 	-5.99197e-19 	-7.27016e-19 20 	-5.99197e-19 	-7.27016e-19 20 	-5.99197e-19 	-7.27016e-19 20 	-6.39585e-19 	-2.40089e-19 20 	-1.64972e-18 	6.43582e-19 20 	-1.64972e-18 	6.43582e-19 20 	-1.64972e-18 	6.43582e-19 20 	-1.64972e-18 	6.43582e-19 20 	-5.46737e-19 	2.72079e-19 20 	-1.89315e-18 	1.50324e-18 20 	-1.89315e-18 	1.50324e-18 20 	-1.89315e-18 	1.50324e-18 20 	-1.89315e-18 	1.50324e-18 20 	1.66302e-19 	6.15655e-19 20 	2.74878e-18 	2.09414e-18 20 	2.74878e-18 	2.09414e-18 20 	2.74878e-18 	2.09414e-18 20 	2.74878e-18 	2.09414e-18 20 	8.17015e-19 	7.76756e-19 20 	7.96774e-17 	6.95734e-17 20 	1.57878e-16 	1.37166e-16 20 	2.36079e-16 	2.04759e-16 20 	3.1428e-16 	2.72351e-16 20 	3.77819e-16 	3.31303e-16
20 	-1.37149e-16 	-6.45248e-17 20 	-1.36213e-16 	-6.40982e-17 20 	-1.35278e-16 	-6.36717e-17 20 	-1.34342e-16 	-6.32451e-17 20 	-1.33407e-16 	-6.28186e-17 20 	-1.32471e-16 	-6.2392e-17 20 	-2.87755e-16 	-2.2066e-16 20 	-2.87755e-16 	-2.2066e-16 20 	-2.87755e-16 	-2.2066e-16 20 	-2.87755e-16 	-2.2066e-16 20 	-7.21978e-17 	-5.54222e-17 20 	-1.18441e-16 	-1.27856e-16 20 	-1.18441e-16 	-1.27856e-16 20 	-1.18441e-16 	-1.27856e-16 20 	-1.18441e-16 	-1.27856e-16 20 	-4.66867e-17 	-5.13172e-17 20 	-7.35941e-17 	-9.6612e-17 20 	-7.35941e-17 	-9.6612e-17 20 	-7.35941e-17 	-9.6612e-17 20 	-7.35941e-17 	-9.6612e-17 20 	-6.01511e-17 	-5.3258e-17 20 	-1.73589e-16 	-1.61013e-16 20 	-1.73589e-16 	-1.61013e-16 20 	-1.73589e-16 	-1.61013e-16 20 	-1.73589e-16 	-1.61013e-16 20 	-6.14614e-17 	-6.41065e-17 20 	-4.84294e-17 	-2.4643e-16 20 	-4.84294e-17 	-2.4643e-16 20 	-4.84294e-17 	-2.4643e-16 20 	-4.84294e-17 	-2.4643e-16 20 	-2.49939e-17 	-8.24759e-17 20 	-3.24645e-17 	-2.06983e-16 20 	-3.24645e-17 	-2.06983e-16 20 	-3.24645e-17 	-2.06983e-16 20 	-3.24645e-17 	-2.06983e-16 20 	1.83519e-17 	-7.79071e-17 20 	-6.82152e-18 	-9.46549e-17 20 	-6.82152e-18 	-9.46549e-17 20 	-6.82152e-18 	-9.46549e-17 20 	-6.82152e-18 	-9.46549e-17 20 	2.79958e-17 	-7.14189e-17 20 	3.09949e-17 	-1.30763e-16 20 	3.09949e-17 	-1.30763e-16 20 	3.09949e-17 	-1.30763e-16 20 	3.09949e-17 	-1.30763e-16 20 	2.61089e-17 	-4.73908e-17 20 	6.37446e-17 	-4.27295e-17 20 	6.37446e-17 	-4.27295e-17 20 	6.37446e-17 	-4.27295e-17 20 	6.37446e-17 	-4.27295e-17 20 	2.82447e-17 	-8.83851e-18 20 	2.14627e-17 	1.72326e-17 20 	2.14627e-17 	1.72326e-17 20 	2.14627e-17 	1.72326e-17 20 	2.14627e-17 	1.72326e-17 20 	1.43937e-17 	-7.38163e-18 20 	-6.93767e-18 	-1.43099e-17 20 	-6.93767e-18 	-1.43099e-17 20 	-6.93767e-18 	-1.43099e-17 20 	-6.93767e-18 	-1.43099e-17 20 	-1.24364e-17 	-2.05914e-17 20 	-2.94059e-17 	-3.38606e-17 20 	-2.94059e-17 	-3.38606e-17 20 	-2.94059e-17 	-3.38606e-17 20 	-2.94059e-17 	-3.38606e-17 20 	-3.12417e-17 	-1.17276e-17 20 	-7.68419e-17 	3.01767e-17 20 	-7.68419e-17 	3.01767e-17 20 	-7.68419e-17 	3.01767e-17 20 	-7.68419e-17 	3.01767e-17 20 	-2.67064e-17 	1.32902e-17 20 	-8.54883e-17 	7.04178e-17 20 	-8.54883e-17 	7.04178e-17 20 	-8.54883e-17 	7.04178e-17 20 	-8.54883e-17 	7.04178e-17 20 	8.12333e-18 	3.00728e-17 20 	1.27716e-16 	9.78231e-17 20 	1.27716e-16 	9.78231e-17 20 	1.27716e-16 	9.78231e-17 20 	1.27716e-16 	9.78231e-17 20 	3.99087e-17 	3.79421e-17 20 	1.46782e-16 	1.59165e-16 20 	2.24983e-16 	2.26758e-16 20 	3.03183e-16 	2.94351e-16 20 	3.81384e-16 	3.61943e-16 20 	3.98402e-16 	3.5303e-16
20 	-2.66908e-16 	-1.2564e-16 20 	-2.65973e-16 	-1.25213e-16 20 	-2.65037e-16 	-1.24786e-16 20 	-2.64102e-16 	-1.2436e-16 20 	-2.63166e-16 	-1.23933e-16 20 	-2.62231e-16 	-1.23507e-16 20 	-3.58475e-16 	-2.74948e-16 20 	-3.58475e-16 	-2.74948e-16 20 	-3.58475e-16 	-2.74948e-16 20 	-3.58475e-16 	-2.74948e-16 20 	-1.42918e-16 	-1.0971e-16 20 	-1.64172e-16 	-1.78123e-16 20 	-1.64172e-16 	-1.78123e-16 20 	-1.64172e-16 	-1.78123e-16 20 	-1.64172e-16 	-1.78123e-16 20 	-9.24175e-17 	-1.01584e-16 20 	-1.32514e-16 	-1.4878e-16 20 	-1.32514e-16 	-1.4878e-16 20 	-1.32514e-16 	-1.4878e-16 20 	-1.32514e-16 	-1.4878e-16 20 	-1.19071e-16 	-1.05426e-16 20 	-2.33792e-16 	-2.23807e-16 20 	-2.33792e-16 	-2.23807e-16 20 	-2.33792e-16 	-2.23807e-16 20 	-2.33792e-16 	-2.23807e-16 20 	-1.21665e-16 	-1.26901e-16 20 	-7.29116e-17 	-3.27217e-16 20 	-7.29116e-17 	-3.27217e-16 20 	-7.29116e-17 	-3.27217e-16 20 	-7.29116e-17 	-3.27217e-16 20 	-4.9476e-17 	-1.63263e-16 20 	-1.44883e-17 	-2.83295e-16 20 	-1.44883e-17 	-2.83295e-16 20 	-1.44883e-17 	-2.83295e-16 20 	-1.44883e-17 	-2.83295e-16 20 	3.63281e-17 	-1.54219e-16 20 	2.06011e-17 	-1.64612e-16 20 	2.06011e-17 	-1.64612e-16 20 	2.06011e-17 	-1.64612e-16 20 	2.06011e-17 	-1.64612e-16 20 	5.54184e-17 	-1.41376e-16 20 	5.65693e-17 	-1.77184e-16 20 	5.65693e-17 	-1.77184e-16 20 	5.65693e-17 	-1.77184e-16 20 	5.65693e-17 	-1.77184e-16 20 	5.16834e-17 	-9.38115e-17 20 	9.14111e-17 	-5.13871e-17 20 	9.14111e-17 	-5.13871e-17 20 	9.14111e-17 	-5.13871e-17 20 	9.14111e-17 	-5.13871e-17 20 	5.59111e-17 	-1.74961e-17 20 	3.55617e-17 	1.00021e-17 20 	3.55617e-17 	1.00021e-17 20 	3.55617e-17 	1.00021e-17 20 	3.55617e-17 	1.00021e-17 20 	2.84928e-17 	-1.46121e-17 20 	-1.91194e-17 	-3.44797e-17 20 	-1.91194e-17 	-3.44797e-17 20 	-1.91194e-17 	-3.44797e-17 20 	-1.91194e-17 	-3.44797e-17 20 	-2.46181e-17 	-4.07612e-17 20 	-6.00081e-17 	-4.53482e-17 20 	-6.00081e-17 	-4.53482e-17 20 	-6.00081e-17 	-4.53482e-17 20 	-6.00081e-17 	-4.53482e-17 20 	-6.18439e-17 	-2.32151e-17 20 	-1.03002e-16 	4.31949e-17 20 	-1.03002e-16 	4.31949e-17 20 	-1.03002e-16 	4.31949e-17 20 	-1.03002e-16 	4.31949e-17 20 	-5.28661e-17 	2.63084e-17 20 	-7.75313e-17 	9.9875e-17 20 	-7.75313e-17 	9.9875e-17 20 	-7.75313e-17 	9.9875e-17 20 	-7.75313e-17 	9.9875e-17 20 	1.60804e-17 	5.953e-17 20 	1.66808e-16 	1.34988e-16 20 	1.66808e-16 	1.34988e-16 20 	1.66808e-16 	1.34988e-16 20 	1.66808e-16 	1.34988e-16 20 	7.90003e-17 	7.51075e-17 20 	1.67365e-16 	1.80892e-16 20 	2.45565e-16 	2.48484e-16 20 	3.23766e-16 	3.16077e-16 20 	4.01967e-16 	3.8367e-16 20 	4.18985e-16 	3.74756e-16
20 	-3.96668e-16 	-1.86754e-16 20 	-3.95732e-16 	-1.86328e-16 20 	-3.94797e-16 	-1.85901e-16 20 	-3.93861e-16 	-1.85475e-16 20 	-3.92926e-16 	-1.85048e-16 20 	-3.9199e-16 	-1.84621e-16 20 	-4.29194e-16 	-3.29235e-16 20 	-4.29194e-16 	-3.29235e-16 20 	-4.29194e-16 	-3.29235e-16 20 	-4.29194e-16 	-3.29235e-16 20 	-2.13637e-16 	-1.63997e-16 20 	-2.09903e-16 	-2.28389e-16 20 	-2.09903e-16 	-2.28389e-16 20 	-2.09903e-16 	-2.28389e-16 20 	-2.09903e-16 	-2.28389e-16 20 	-1.38148e-16 	-1.51851e-16 20 	-1.91433e-16 	-2.00947e-16 20 	-1.91433e-16 	-2.00947e-16 20 	-1.91433e-16 	-2.00947e-16 20 	-1.91433e-16 	-2.00947e-16 20 	-1.7799e-16 	-1.57593e-16 20 	-2.93995e-16 	-2.86601e-16 20 	-2.93995e-16 	-2.86601e-16 20 	-2.93995e-16 	-2.86601e-16 20 	-2.93995e-16 	-2.86601e-16 20 	-1.81868e-16 	-1.89695e-16 20 	-9.73938e-17 	-4.08005e-16 20 	-9.73938e-17 	-4.08005e-16 20 	-9.73938e-17 	-4.08005e-16 20 	-9.73938e-17 	-4.08005e-16 20 	-7.39582e-17 	-2.44051e-16 20 	3.4879e-18 	-3.59607e-16 20 	3.4879e-18 	-3.59607e-16 20 	3.4879e-18 	-3.59607e-16 20 	3.4879e-18 	-3.59607e-16 20 	5.43042e-17 	-2.30531e-16 20 	4.80238e-17 	-2.34569e-16 20 	4.80238e-17 	-2.34569e-16 20 	4.80238e-17 	-2.34569e-16 20 	4.80238e-17 	-2.34569e-16 20 	8.28411e-17 	-2.11333e-16 20 	8.21438e-17 	-2.23604e-16 20 	8.21438e-17 	-2.23604e-16 20 	8.21438e-17 	-2.23604e-16 20 	8.21438e-17 	-2.23604e-16 20 	7.72578e-17 	-1.40232e-16 20 	1.19077e-16 	-6.00446e-17 20 	1.19077e-16 	-6.00446e-17 20 	1.19077e-16 	-6.00446e-17 20 	1.19077e-16 	-6.00446e-17 20 	8.35775e-17 	-2.61537e-17 20 	4.96608e-17 	2.77162e-18 20 	4.96608e-17 	2.77162e-18 20 	4.96608e-17 	2.77162e-18 20 	4.96608e-17 	2.77162e-18 20 	4.25918e-17 	-2.18427e-17 20 	-3.13012e-17 	-5.46496e-17 20 	-3.13012e-17 	-5.46496e-17 20 	-3.13012e-17 	-5.46496e-17 20 	-3.13012e-17 	-5.46496e-17 20 	-3.67999e-17 	-6.09311e-17 20 	-9.06102e-17 	-5.68357e-17 20 	-9.06102e-17 	-5.68357e-17 20 	-9.06102e-17 	-5.68357e-17 20 	-9.06102e-17 	-5.68357e-17 20 	-9.2446e-17 	-3.47027e-17 20 	-1.29161e-16 	5.6213e-17 20 	-1.29161e-16 	5.6213e-17 20 	-1.29161e-16 	5.6213e-17 20 	-1.29161e-16 	5.6213e-17 20 	-7.90258e-17 	3.93265e-17 20 	-6.95742e-17 	1.29332e-16 20 	-6.95742e-17 	1.29332e-16 20 	-6.95742e-17 	1.29332e-16 20 	-6.95742e-17 	1.29332e-16 20 	2.40374e-17 	8.89872e-17 20 	2.05899e-16 	1.72154e-16 20 	2.05899e-16 	1.72154e-16 20 	2.05899e-16 	1.72154e-16 20 	2.05899e-16 	1.72154e-16 20 	1.18092e-16 	1.12273e-16 20 	1.87947e-16 	2.02618e-16 20 	2.66148e-16 	2.70211e-16 20 	3.44349e-16 	3.37803e-16 20 	4.2255e-16 	4.05396e-16 20 	4.39567e-16 	3.96483e-16
20 	-5.26427e-16 	-2.47869e-16 20 	-5.25492e-16 	-2.47442e-16 20 	-5.24556e-16 	-2.47016e-16 20 	-5.23621e-16 	-2.46589e-16 20 	-5.22685e-16 	-2.46163e-16 20 	-5.2175e-16 	-2.45736e-16 20 	-5.12956e-16 	-3.85031e-16 20 	-4.99914e-16 	-3.83523e-16 20 	-4.99914e-16 	-3.83523e-16 20 	-4.99914e-16 	-3.83523e-16 20 	-2.84357e-16 	-2.18285e-16 20 	-2.61154e-16 	-2.79544e-16 20 	-2.55634e-16 	-2.78656e-16 20 	-2.55634e-16 	-2.78656e-16 20 	-2.55634e-16 	-2.78656e-16 20 	-1.83879e-16 	-2.02117e-16 20 	-2.4744e-16 	-2.52695e-16 20 	-2.50353e-16 	-2.53115e-16 20 	-2.50353e-16 	-2.53115e-16 20 	-2.50353e-16 	-2.53115e-16 20 	-2.3691e-16 	-2.09761e-16 20 	-3.53914e-16 	-3.47048e-16 20 	-3.54198e-16 	-3.49395e-16 20 	-3.54198e-16 	-3.49395e-16 20 	-3.54198e-16 	-3.49395e-16 20 	-2.42071e-16 	-2.52489e-16 20 	-1.29767e-16 	-4.84818e-16 20 	-1.21876e-16 	-4.88792e-16 20 	-1.21876e-16 	-4.88792e-16 20 	-1.21876e-16 	-4.88792e-16 20 	-9.84404e-17 	-3.24838e-16 20 	1.2085e-17 	-4.36908e-16 20 	2.14641e-17 	-4.35919e-16 20 	2.14641e-17 	-4.35919e-16 20 	2.14641e-17 	-4.35919e-16 20 	7.22804e-17 	-3.06844e-16 20 	7.33597e-17 	-3.05929e-16 20 	7.54464e-17 	-3.04525e-16 20 	7.54464e-17 	-3.04525e-16 20 	7.54464e-17 	-3.04525e-16 20 	1.10264e-16 	-2.81289e-16 20 	1.08126e-16 	-2.75224e-16 20 	1.07718e-16 	-2.70025e-16 20 	1.07718e-16 	-2.70025e-16 20 	1.07718e-16 	-2.70025e-16 20 	1.02832e-16 	-1.86653e-16 20 	1.46282e-16 	-7.70441e-17 20 	1.46744e-16 	-6.87022e-17 20 	1.46744e-16 	-6.87022e-17 20 	1.46744e-16 	-6.87022e-17 20 	1.11244e-16 	-3.48112e-17 20 	6.67569e-17 	-4.77413e-18 20 	6.37598e-17 	-4.4589e-18 20 	6.37598e-17 	-4.4589e-18 20 	6.37598e-17 	-4.4589e-18 20 	5.66909e-17 	-2.90732e-17 20 	-3.76775e-17 	-7.19611e-17 20 	-4.34829e-17 	-7.48194e-17 20 	-4.34829e-17 	-7.48194e-17 20 	-4.34829e-17 	-7.48194e-17 20 	-4.89816e-17 	-8.11009e-17 20 	-1.17143e-16 	-7.02412e-17 20 	-1.21212e-16 	-6.83232e-17 20 	-1.21212e-16 	-6.83232e-17 20 	-1.21212e-16 	-6.83232e-17 20 	-1.23048e-16 	-4.61902e-17 20 	-1.56302e-16 	6.38179e-17 20 	-1.55321e-16 	6.92312e-17 20 	-1.55321e-16 	6.92312e-17 20 	-1.55321e-16 	6.92312e-17 20 	-1.05185e-16 	5.23447e-17 20 	-6.91536e-17 	1.55158e-16 20 	-6.16172e-17 	1.58789e-16 20 	-6.16172e-17 	1.58789e-16 20 	-6.16172e-17 	1.58789e-16 20 	3.19944e-17 	1.18444e-16 20 	2.38113e-16 	2.07616e-16 20 	2.44991e-16 	2.09319e-16 20 	2.44991e-16 	2.09319e-16 20 	2.44991e-16 	2.09319e-16 20 	1.57184e-16 	1.49438e-16 20 	2.12619e-16 	2.27755e-16 20 	2.86731e-16 	2.91937e-16 20 	3.64932e-16 	3.5953e-16 20 	4.43132e-16 	4.27122e-16 20 	4.6015e-16 	4.18209e-16
20 	-6.56187e-16 	-3.08984e-16 20 	-6.55251e-16 	-3.08557e-16 20 	-6.54316e-16 	-3.08131e-16 20 	-6.5338e-16 	-3.07704e-16 20 	-6.52445e-16 	-3.07277e-16 20 	-6.51509e-16 	-3.06851e-16 20 	-6.42716e-16 	-4.46146e-16 20 	-5.70634e-16 	-4.3781e-16 20 	-5.70634e-16 	-4.3781e-16 20 	-5.70634e-16 	-4.3781e-16 20 	-3.55077e-16 	-2.72573e-16 20 	-3.31874e-16 	-3.33832e-16 20 	-3.01365e-16 	-3.28923e-16 20 	-3.01365e-16 	-3.28923e-16 20 	-3.01365e-16 	-3.28923e-16 20 	-2.2961e-16 	-2.52384e-16 20 	-2.93171e-16 	-3.02962e-16 20 	-3.09273e-16 	-3.05283e-16 20 	-3.09273e-16 	-3.05283e-16 20 	-3.09273e-16 	-3.05283e-16 20 	-2.9583e-16 	-2.61929e-16 20 	-4.12834e-16 	-3.99215e-16 20 	-4.14401e-16 	-4.12189e-16 20 	-4.14401e-16 	-4.12189e-16 20 	-4.14401e-16 	-4.12189e-16 20 	-3.02274e-16 	-3.15283e-16 20 	-1.8997e-16 	-5.47612e-16 20 	-1.46358e-16 	-5.6958e-16 20 	-1.46358e-16 	-5.6958e-16 20 	-1.46358e-16 	-5.6958e-16 20 	-1.22923e-16 	-4.05626e-16 20 	-1.23972e-17 	-5.17695e-16 20 	3.94402e-17 	-5.12232e-16 20 	3.94402e-17 	-5.12232e-16 20 	3.94402e-17 	-5.12232e-16 20 	9.02566e-17 	-3.83156e-16 20 	9.13358e-17 	-3.82241e-16 20 	1.02869e-16 	-3.74482e-16 20 	1.02869e-16 	-3.74482e-16 20 	1.02869e-16 	-3.74482e-16 20 	1.37686e-16 	-3.51246e-16 20 	1.35549e-16 	-3.45181e-16 20 	1.33293e-16 	-3.16446e-16 20 	1.33293e-16 	-3.16446e-16 20 	1.33293e-16 	-3.16446e-16 20 	1.28407e-16 	-2.33073e-16 20 	1.71856e-16 	-1.23465e-16 20 	1.7441e-16 	-7.73598e-17 20 	1.7441e-16 	-7.73598e-17 20 	1.7441e-16 	-7.73598e-17 20 	1.3891e-16 	-4.34688e-17 20 	9.44233e-17 	-1.34317e-17 20 	7.78589e-17 	-1.16894e-17 20 	7.78589e-17 	-1.16894e-17 20 	7.78589e-17 	-1.16894e-17 20 	7.07899e-17 	-3.63037e-17 20 	-2.35785e-17 	-7.91916e-17 20 	-5.56647e-17 	-9.49893e-17 20 	-5.56647e-17 	-9.49893e-17 20 	-5.56647e-17 	-9.49893e-17 20 	-6.11634e-17 	-1.01271e-16 20 	-1.29325e-16 	-9.0411e-17 20 	-1.51814e-16 	-7.98108e-17 20 	-1.51814e-16 	-7.98108e-17 20 	-1.51814e-16 	-7.98108e-17 20 	-1.5365e-16 	-5.76777e-17 20 	-1.86904e-16 	5.23303e-17 20 	-1.81481e-16 	8.22493e-17 20 	-1.81481e-16 	8.22493e-17 20 	-1.81481e-16 	8.22493e-17 20 	-1.31345e-16 	6.53628e-17 20 	-9.53133e-17 	1.68176e-16 20 	-5.36602e-17 	1.88247e-16 20 	-5.36602e-17 	1.88247e-16 20 	-5.36602e-17 	1.88247e-16 20 	3.99514e-17 	1.47902e-16 20 	2.4607e-16 	2.37074e-16 20 	2.84083e-16 	2.46485e-16 20 	2.84083e-16 	2.46485e-16 20 	2.84083e-16 	2.46485e-16 20 	1.96275e-16 	1.86604e-16 20 	2.5171e-16 	2.6492e-16 20 	3.07314e-16 	3.13664e-16 20 	3.85514e-16 	3.81256e-16 20 	4.63715e-16 	4.48849e-16 20 	4.80733e-16 	4.39936e-16
20 	-7.85946e-16 	-3.70098e-16 20 	-7.85011e-16 	-3.69672e-16 20 	-7.84075e-16 	-3.69245e-16 20 	-7.8314e-16 	-3.68819e-16 20 	-7.82204e-16 	-3.68392e-16 20 	-7.81269e-16 	-3.67966e-16 20 	-7.72475e-16 	-5.0726e-16 20 	-6.41354e-16 	-4.92098e-16 20 	-6.41354e-16 	-4.92098e-16 20 	-6.41354e-16 	-4.92098e-16 20 	-4.25797e-16 	-3.2686e-16 20 	-4.02594e-16 	-3.88119e-16 20 	-3.47096e-16 	-3.79189e-16 20 	-3.47096e-16 	-3.79189e-16 20 	-3.47096e-16 	-3.79189e-16 20 	-2.75341e-16 	-3.02651e-16 20 	-3.38901e-16 	-3.53228e-16 20 	-3.68192e-16 	-3.5745e-16 20 	-3.68192e-16 	-3.5745e-16 20 	-3.68192e-16 	-3.5745e-16 20 	-3.54749e-16 	-3.14096e-16 20 	-4.71754e-16 	-4.51383e-16 20 	-4.74604e-16 	-4.74983e-16 20 	-4.74604e-16 	-4.74983e-16 20 	-4.74604e-16 	-4.74983e-16 20 	-3.62477e-16 	-3.78077e-16 20 	-2.50173e-16 	-6.10406e-16 20 	-1.7084e-16 	-6.50367e-16 20 	-1.7084e-16 	-6.50367e-16 20 	-1.7084e-16 	-6.50367e-16 20 	-1.47405e-16 	-4.86413e-16 20 	-3.68793e-17 	-5.98483e-16 20 	5.74164e-17 	-5.88544e-16 20 	5.74164e-17 	-5.88544e-16 20 	5.74164e-17 	-5.88544e-16 20 	1.08233e-16 	-4.59468e-16 20 	1.09312e-16 	-4.58554e-16 20 	1.30292e-16 	-4.44439e-16 20 	1.30292e-16 	-4.44439e-16 20 	1.30292e-16 	-4.44439e-16 20 	1.65109e-16 	-4.21203e-16 20 	1.62972e-16 	-4.15138e-16 20 	1.58867e-16 	-3.62866e-16 20 	1.58867e-16 	-3.62866e-16 20 	1.58867e-16 	-3.62866e-16 20 	1.53981e-16 	-2.79494e-16 20 	1.97431e-16 	-1.69885e-16 20 	2.02077e-16 	-8.60173e-17 20 	2.02077e-16 	-8.60173e-17 20 	2.02077e-16 	-8.60173e-17 20 	1.66577e-16 	-5.21264e-17 20 	1.2209e-16 	-2.20893e-17 20 	9.19579e-17 	-1.89199e-17 20 	9.19579e-17 	-1.89199e-17 20 	9.19579e-17 	-1.89199e-17 20 	8.4889e-17 	-4.35342e-17 20 	-9.4794e-18 	-8.64222e-17 20 	-6.78465e-17 	-1.15159e-16 20 	-6.78465e-17 	-1.15159e-16 20 	-6.78465e-17 	-1.15159e-16 20 	-7.33451e-17 	-1.21441e-16 20 	-1.41507e-16 	-1.10581e-16 20 	-1.82417e-16 	-9.12983e-17 20 	-1.82417e-16 	-9.12983e-17 20 	-1.82417e-16 	-9.12983e-17 20 	-1.84252e-16 	-6.91653e-17 20 	-2.17507e-16 	4.08428e-17 20 	-2.0764e-16 	9.52675e-17 20 	-2.0764e-16 	9.52675e-17 20 	-2.0764e-16 	9.52675e-17 20 	-1.57505e-16 	7.8381e-17 20 	-1.21473e-16 	1.81194e-16 20 	-4.57032e-17 	2.17704e-16 20 	-4.57032e-17 	2.17704e-16 20 	-4.57032e-17 	2.17704e-16 20 	4.79085e-17 	1.77359e-16 20 	2.54028e-16 	2.66531e-16 20 	3.23174e-16 	2.8365e-16 20 	3.23174e-16 	2.8365e-16 20 	3.23174e-16 	2.8365e-16 20 	2.35367e-16 	2.23769e-16 20 	2.90802e-16 	3.02086e-16 20 	3.27896e-16 	3.3539e-16 20 	4.06097e-16 	4.02983e-16 20 	4.84298e-16 	4.70575e-16 20 	5.01315e-16 	4.61662e-16