/*--------------------------------*- C++ -*----------------------------------*\
  =========                 |
  \\      /  F ield         | OpenFOAM: The Open Source CFD Toolbox
   \\    /   O peration     | Website:  https://openfoam.org
    \\  /    A nd           | Version:  9
     \\/     M anipulation  |
\*---------------------------------------------------------------------------*/
FoamFile
{
    format      ascii;
    class       volScalarField;
    location    "33";
    object      ddt0(h);
}
// * * * * * * * * * * * * * * * * * * * * * * * * * * * * * * * * * * * * * //

dimensions      [0 1 -1 0 0 0 0];

internalField   nonuniform List<scalar> 
400
(
5.39637e-08
1.12825e-07
1.07932e-07
-2.23371e-08
-2.05448e-07
-3.73399e-07
-4.29379e-07
-3.79844e-07
-2.2834e-07
-7.75514e-08
1.11128e-07
1.79731e-07
1.57189e-07
6.35092e-08
-1.01374e-07
-2.34926e-07
-3.07201e-07
-2.9932e-07
-2.09062e-07
-7.46986e-08
5.46874e-08
1.00632e-07
8.59764e-08
-2.54514e-08
-2.03417e-07
-3.5182e-07
-4.21306e-07
-3.77336e-07
-2.48613e-07
-6.61499e-08
5.20588e-08
1.75433e-07
1.30859e-07
4.96804e-08
-7.93502e-08
-2.37094e-07
-3.27295e-07
-3.2254e-07
-2.27644e-07
-7.52535e-08
4.14161e-08
7.32789e-08
5.9444e-08
-3.40763e-08
-1.86296e-07
-3.12499e-07
-4.21553e-07
-3.55238e-07
-2.69329e-07
-6.81139e-08
2.5114e-08
1.01336e-07
1.32602e-07
2.41498e-08
-7.85467e-08
-2.15069e-07
-3.21019e-07
-3.18792e-07
-2.19739e-07
-8.57915e-08
3.55592e-08
5.59448e-08
3.91474e-08
-4.35854e-08
-1.43882e-07
-2.95774e-07
-3.42707e-07
-3.37637e-07
-2.13263e-07
-1.59833e-07
6.47101e-08
5.92963e-09
5.48438e-08
8.74719e-09
-1.26196e-07
-2.28797e-07
-3.0913e-07
-3.19092e-07
-2.29067e-07
-8.06697e-08
5.0939e-08
5.35569e-08
2.38736e-08
-2.5811e-08
-1.25316e-07
-2.16172e-07
-2.40136e-07
-2.62739e-07
-2.27987e-07
-1.47975e-07
-1.90423e-07
4.10253e-08
-1.02572e-07
-1.1948e-07
-1.73425e-07
-2.58763e-07
-3.11952e-07
-2.90991e-07
-2.06551e-07
-7.84933e-08
8.11138e-08
6.53294e-08
3.67763e-08
-7.56469e-09
-7.13731e-08
-1.08688e-07
-1.17119e-07
-1.41845e-07
-3.15908e-07
-3.09759e-08
-3.01276e-07
-2.18589e-07
-9.02173e-08
-2.60898e-07
-3.1493e-07
-3.08987e-07
-3.16979e-07
-2.69038e-07
-1.88803e-07
-7.23211e-08
1.11524e-07
9.29159e-08
6.386e-08
3.80909e-08
1.17906e-09
2.10158e-08
2.88804e-08
-1.47702e-07
-4.38216e-09
-4.45894e-07
1.50927e-07
-5.10599e-07
-3.6408e-07
-2.9549e-07
-3.64845e-07
-3.81272e-07
-3.62127e-07
-2.95241e-07
-1.97613e-07
-7.31332e-08
1.36202e-07
1.23519e-07
1.09574e-07
8.75062e-08
9.9445e-08
1.37316e-07
9.62349e-08
3.69281e-08
-1.5461e-07
-3.09717e-07
-2.54973e-06
-1.5047e-07
-5.45285e-07
-5.13597e-07
-4.63631e-07
-4.73452e-07
-3.78813e-07
-3.44779e-07
-2.34148e-07
-8.59043e-08
1.50704e-07
1.53418e-07
1.46703e-07
1.47247e-07
1.73793e-07
2.10545e-07
1.90894e-07
9.24901e-08
2.35228e-08
-1.58623e-07
1.97733e-06
-7.97186e-07
-4.83891e-07
-5.37949e-07
-5.12746e-07
-5.12364e-07
-6.53152e-07
-3.71938e-07
-2.61399e-07
-9.42836e-08
1.50649e-07
1.69987e-07
1.77079e-07
1.7771e-07
2.2561e-07
2.26825e-07
1.83602e-07
2.00151e-07
-6.8096e-08
6.65187e-08
-8.91233e-07
-2.64157e-07
-5.80959e-07
-6.11173e-07
-5.3047e-07
-4.62621e-07
-2.88512e-07
-3.84348e-07
-2.54386e-07
-9.12169e-08
1.38672e-07
1.65477e-07
1.82571e-07
1.80048e-07
2.08155e-07
2.19457e-07
1.65156e-07
1.52102e-07
1.34323e-07
-1.10654e-07
-8.78839e-07
-5.86986e-07
-6.46685e-07
-5.39018e-07
-5.17435e-07
-4.84947e-07
-4.49184e-07
-3.6541e-07
-2.57537e-07
-9.31907e-08
1.18968e-07
1.40732e-07
1.58949e-07
1.44656e-07
1.51222e-07
1.74107e-07
1.55334e-07
8.07453e-08
1.57357e-07
-5.99812e-07
5.66714e-06
-1.13377e-06
-5.17565e-07
-4.65505e-07
-4.81651e-07
-4.91416e-07
-4.39399e-07
-3.77518e-07
-2.58921e-07
-9.14974e-08
9.44276e-08
1.00174e-07
1.10612e-07
8.76346e-08
6.8473e-08
1.03228e-07
7.12079e-08
1.1332e-08
-2.49309e-07
2.96807e-07
-6.46079e-06
2.6069e-07
-3.87429e-07
-4.88929e-07
-4.71717e-07
-4.64832e-07
-4.23942e-07
-3.55437e-07
-2.4677e-07
-9.05507e-08
6.7381e-08
5.9619e-08
5.45212e-08
3.28318e-08
-1.1177e-08
-4.31446e-09
1.36585e-08
-1.05619e-07
-1.55069e-07
-4.17074e-07
5.57294e-07
-2.91555e-07
-3.88336e-07
-3.69749e-07
-3.91222e-07
-3.82076e-07
-3.62944e-07
-3.19518e-07
-2.32577e-07
-8.89503e-08
4.10658e-08
3.37218e-08
2.27934e-08
-1.56028e-08
-7.38406e-08
-1.15491e-07
-9.76681e-08
-1.46877e-07
-2.27239e-07
-1.96711e-07
-2.93334e-07
-2.67717e-07
-2.36877e-07
-2.73499e-07
-2.88896e-07
-2.95353e-07
-3.13544e-07
-2.97423e-07
-2.22003e-07
-8.50675e-08
2.2305e-08
3.46965e-08
2.06843e-08
-3.25414e-08
-1.38701e-07
-2.08054e-07
-2.36674e-07
-2.09202e-07
-2.04326e-07
-1.39938e-07
-7.99908e-08
-6.35791e-08
-9.14678e-08
-1.31346e-07
-1.60546e-07
-2.22229e-07
-2.87903e-07
-2.8361e-07
-2.03984e-07
-7.58061e-08
1.59366e-08
5.9943e-08
4.541e-08
-3.77145e-08
-1.71923e-07
-3.01874e-07
-3.26126e-07
-3.0552e-07
-2.04035e-07
-1.24063e-07
-4.33935e-08
3.54126e-08
3.74271e-08
4.47037e-09
-8.64273e-08
-1.98906e-07
-2.78545e-07
-2.75882e-07
-1.91165e-07
-6.77765e-08
2.77894e-08
8.97012e-08
8.03634e-08
-3.68701e-08
-1.81667e-07
-3.39496e-07
-4.04176e-07
-3.57924e-07
-2.33816e-07
-8.67116e-08
6.60839e-08
1.23178e-07
1.37986e-07
5.56057e-08
-8.08149e-08
-2.01692e-07
-2.8817e-07
-2.95594e-07
-2.05114e-07
-7.0696e-08
5.54913e-08
1.0226e-07
9.70293e-08
-1.8903e-08
-1.8621e-07
-3.43967e-07
-4.32677e-07
-3.80434e-07
-2.52713e-07
-8.90018e-08
6.36451e-08
1.48722e-07
1.58763e-07
5.68035e-08
-9.42974e-08
-2.31055e-07
-3.14073e-07
-3.19788e-07
-2.3253e-07
-8.48321e-08
8.73869e-08
1.1043e-07
1.00516e-07
1.84534e-09
-1.78733e-07
-3.4506e-07
-4.23149e-07
-3.82617e-07
-2.42463e-07
-6.9121e-08
9.73316e-08
1.79606e-07
1.66253e-07
5.63125e-08
-1.17024e-07
-2.60908e-07
-3.25004e-07
-3.28882e-07
-2.56707e-07
-1.0026e-07
)
;

boundaryField
{
    sides
    {
        type            calculated;
        value           nonuniform List<scalar> 
40
(
8.73869e-08
1.1043e-07
1.00516e-07
1.84534e-09
-1.78733e-07
-3.4506e-07
-4.23149e-07
-3.82617e-07
-2.42463e-07
-6.9121e-08
9.73316e-08
1.79606e-07
1.66253e-07
5.63125e-08
-1.17024e-07
-2.60908e-07
-3.25004e-07
-3.28882e-07
-2.56707e-07
-1.0026e-07
5.39637e-08
1.12825e-07
1.07932e-07
-2.23371e-08
-2.05448e-07
-3.73399e-07
-4.29379e-07
-3.79844e-07
-2.2834e-07
-7.75514e-08
1.11128e-07
1.79731e-07
1.57189e-07
6.35092e-08
-1.01374e-07
-2.34926e-07
-3.07201e-07
-2.9932e-07
-2.09062e-07
-7.46986e-08
)
;
    }
    inlet
    {
        type            calculated;
        value           nonuniform List<scalar> 
20
(
5.39637e-08
5.46874e-08
4.14161e-08
3.55592e-08
5.0939e-08
8.11138e-08
1.11524e-07
1.36202e-07
1.50704e-07
1.50649e-07
1.38672e-07
1.18968e-07
9.44276e-08
6.7381e-08
4.10658e-08
2.2305e-08
1.59366e-08
2.77894e-08
5.54913e-08
8.73869e-08
)
;
    }
    outlet
    {
        type            calculated;
        value           uniform 0;
    }
    frontAndBack
    {
        type            empty;
    }
}


// ************************************************************************* //
