/*--------------------------------*- C++ -*----------------------------------*\
  =========                 |
  \\      /  F ield         | OpenFOAM: The Open Source CFD Toolbox
   \\    /   O peration     | Website:  https://openfoam.org
    \\  /    A nd           | Version:  9
     \\/     M anipulation  |
\*---------------------------------------------------------------------------*/
FoamFile
{
    format      ascii;
    class       volVectorField;
    location    "33";
    object      ddt0(hU);
}
// * * * * * * * * * * * * * * * * * * * * * * * * * * * * * * * * * * * * * //

dimensions      [0 2 -2 0 0 0 0];

internalField   nonuniform List<vector> 
400
(
(5.55962e-09 -9.83502e-09 0)
(-1.72713e-08 -1.54225e-08 0)
(-1.34295e-08 -9.76118e-09 0)
(1.36539e-08 2.70027e-09 0)
(2.64598e-08 1.09641e-08 0)
(1.75157e-08 3.31019e-09 0)
(1.80575e-08 -1.91123e-08 0)
(3.41612e-08 -2.74214e-08 0)
(3.51629e-08 -1.78158e-08 0)
(-1.62188e-08 2.23195e-09 0)
(-8.13241e-08 2.78805e-09 0)
(-1.18379e-07 -1.06714e-08 0)
(-9.65451e-08 -1.38908e-08 0)
(-4.82985e-08 -8.81567e-09 0)
(-2.50226e-08 8.09399e-09 0)
(-2.23472e-08 1.63868e-08 0)
(-3.48699e-08 8.28703e-09 0)
(-1.81236e-08 9.9293e-10 0)
(3.10757e-08 -1.31072e-09 0)
(4.25333e-08 3.49867e-10 0)
(6.87496e-09 -1.81149e-08 0)
(-1.26712e-08 -3.30248e-08 0)
(-1.26563e-08 -2.37933e-08 0)
(1.2258e-08 3.28814e-09 0)
(2.31382e-08 2.59615e-08 0)
(1.41632e-08 7.04911e-09 0)
(1.5275e-08 -4.5346e-08 0)
(3.08374e-08 -7.40911e-08 0)
(3.04912e-08 -4.8457e-08 0)
(-1.21931e-08 -6.31748e-09 0)
(-8.00959e-08 7.26709e-09 0)
(-1.03324e-07 -3.47087e-08 0)
(-9.37356e-08 -5.47655e-08 0)
(-5.62742e-08 -2.77059e-08 0)
(-2.44196e-08 1.7833e-08 0)
(-1.99892e-08 4.63947e-08 0)
(-2.13748e-08 2.49052e-08 0)
(-7.13882e-09 -3.90188e-08 0)
(1.50533e-08 -4.34547e-08 0)
(2.47921e-08 -4.44087e-10 0)
(7.37041e-09 -1.5862e-08 0)
(-9.96121e-09 -3.78796e-08 0)
(-1.57838e-08 -3.11162e-08 0)
(6.21202e-09 5.7095e-09 0)
(1.65212e-08 3.81059e-08 0)
(1.19211e-08 1.0263e-08 0)
(1.07504e-08 -6.50664e-08 0)
(2.54347e-08 -1.1792e-07 0)
(1.41818e-08 -7.81859e-08 0)
(-1.32937e-08 -1.7575e-08 0)
(-6.93045e-08 -3.8827e-09 0)
(-9.96659e-08 -5.39039e-08 0)
(-7.66258e-08 -9.78964e-08 0)
(-5.09235e-08 -5.07332e-08 0)
(-2.51637e-08 2.25346e-08 0)
(-1.93283e-08 6.44779e-08 0)
(-3.6673e-08 3.95677e-08 0)
(-2.17672e-08 -4.00746e-08 0)
(2.65231e-08 -5.15468e-08 0)
(4.43169e-08 -2.40096e-09 0)
(7.78984e-09 -1.28964e-08 0)
(-8.25036e-09 -3.91268e-08 0)
(-1.87873e-08 -3.40949e-08 0)
(-2.15061e-09 1.02245e-08 0)
(7.7966e-09 4.88822e-08 0)
(1.891e-09 1.66425e-08 0)
(3.75828e-09 -8.83703e-08 0)
(1.2183e-08 -1.54933e-07 0)
(9.82453e-09 -1.19393e-07 0)
(-2.95936e-08 -1.9815e-08 0)
(-4.46823e-08 -2.56166e-08 0)
(-7.97482e-08 -8.0247e-08 0)
(-7.08602e-08 -1.17723e-07 0)
(-4.38071e-08 -6.95464e-08 0)
(-3.15312e-08 2.8866e-08 0)
(-1.5342e-08 8.55739e-08 0)
(-1.08709e-09 4.95038e-08 0)
(3.32703e-09 -5.3885e-08 0)
(2.52772e-11 -6.38863e-08 0)
(1.35771e-08 -3.56892e-10 0)
(8.99986e-09 -7.91474e-09 0)
(-7.78828e-09 -3.35187e-08 0)
(-2.59951e-08 -3.21202e-08 0)
(-1.33899e-08 1.19349e-08 0)
(-2.42096e-09 5.59943e-08 0)
(-6.36716e-09 1.78143e-08 0)
(-5.99131e-09 -1.03186e-07 0)
(-8.7303e-09 -1.83798e-07 0)
(-3.40673e-09 -1.37068e-07 0)
(-2.81084e-08 -5.34551e-08 0)
(-6.25477e-08 -1.67291e-08 0)
(-2.92158e-08 -1.05488e-07 0)
(-5.602e-08 -1.31602e-07 0)
(-5.07495e-08 -7.02893e-08 0)
(-2.73626e-08 2.89536e-08 0)
(-1.6686e-08 9.19959e-08 0)
(-1.93451e-08 5.40639e-08 0)
(-6.99203e-09 -6.97676e-08 0)
(1.84188e-08 -8.28862e-08 0)
(3.04823e-08 -3.06291e-09 0)
(1.10245e-08 -2.80022e-09 0)
(-8.7233e-09 -2.39681e-08 0)
(-3.33798e-08 -2.61825e-08 0)
(-2.53187e-08 1.63337e-08 0)
(-1.44073e-08 5.90353e-08 0)
(-1.71458e-08 1.48906e-08 0)
(-2.3082e-08 -1.10012e-07 0)
(-1.46053e-08 -1.91076e-07 0)
(-4.19206e-08 -1.4209e-07 0)
(-9.79653e-09 -7.75683e-08 0)
(-3.53723e-08 -3.5393e-08 0)
(-3.27158e-08 -1.05321e-07 0)
(-1.25459e-08 -1.68275e-07 0)
(-5.61616e-08 -7.73463e-08 0)
(-5.29113e-08 3.83007e-08 0)
(-1.70229e-08 9.5488e-08 0)
(1.0882e-08 5.81623e-08 0)
(1.44209e-08 -4.84273e-08 0)
(-3.2549e-09 -6.7002e-08 0)
(1.18504e-08 -5.7832e-09 0)
(1.28055e-08 1.2243e-09 0)
(-9.28431e-09 -1.3437e-08 0)
(-4.00611e-08 -1.79606e-08 0)
(-3.74065e-08 2.00614e-08 0)
(-2.7018e-08 5.65154e-08 0)
(-2.97505e-08 1.1203e-08 0)
(-3.17784e-08 -1.00718e-07 0)
(-4.00768e-08 -1.69679e-07 0)
(-3.7334e-08 -1.52297e-07 0)
(-6.5123e-08 -4.04168e-08 0)
(4.1079e-08 -4.92101e-08 0)
(-3.34634e-08 -6.77752e-08 0)
(-1.86226e-08 -1.30344e-07 0)
(-7.67903e-09 -7.93477e-08 0)
(-3.98154e-08 3.46188e-08 0)
(-2.92476e-08 1.00052e-07 0)
(2.5817e-09 5.87142e-08 0)
(1.14997e-08 -5.79722e-08 0)
(-3.68265e-09 -7.16529e-08 0)
(1.04575e-08 -5.17212e-09 0)
(1.44175e-08 3.81684e-09 0)
(-9.75812e-09 -5.04557e-09 0)
(-4.47455e-08 -9.56878e-09 0)
(-4.69913e-08 1.98825e-08 0)
(-3.91442e-08 4.70844e-08 0)
(-3.88645e-08 1.03241e-08 0)
(-4.32907e-08 -7.68603e-08 0)
(-5.5226e-08 -1.39875e-07 0)
(-4.63008e-08 -1.21247e-07 0)
(-3.51634e-08 -7.60654e-08 0)
(-2.10343e-07 -4.73697e-08 0)
(5.94695e-08 -1.18192e-07 0)
(-3.71099e-08 -1.09752e-07 0)
(-4.9206e-08 -5.5403e-08 0)
(-3.98556e-08 2.36688e-08 0)
(-3.06922e-08 8.7917e-08 0)
(-5.4909e-10 6.00463e-08 0)
(7.23365e-09 -2.75374e-08 0)
(-1.16763e-08 -4.45397e-08 0)
(3.92767e-09 -5.08074e-09 0)
(1.48878e-08 4.3764e-09 0)
(-9.57274e-09 -3.97152e-10 0)
(-4.89957e-08 -2.77576e-09 0)
(-5.5615e-08 1.72056e-08 0)
(-4.67119e-08 3.33028e-08 0)
(-4.64071e-08 1.0469e-08 0)
(-5.27913e-08 -4.22063e-08 0)
(-6.21078e-08 -8.20116e-08 0)
(-8.60718e-08 -7.90972e-08 0)
(-4.24477e-08 -5.87275e-08 0)
(2.50065e-07 -5.87083e-08 0)
(8.24626e-10 -1.14723e-07 0)
(5.77425e-08 -9.31991e-08 0)
(-6.22388e-09 -4.57346e-08 0)
(-3.56365e-08 1.46751e-08 0)
(-2.60935e-08 5.54705e-08 0)
(-2.14911e-08 4.4493e-08 0)
(5.36034e-09 -6.85039e-09 0)
(-2.65521e-08 -1.69094e-08 0)
(-1.0597e-08 -3.66293e-09 0)
(1.44624e-08 2.11072e-09 0)
(-9.91752e-09 1.38406e-09 0)
(-5.10596e-08 3.52769e-09 0)
(-6.18282e-08 1.36965e-08 0)
(-5.30332e-08 2.32484e-08 0)
(-4.40985e-08 1.49293e-08 0)
(-5.06973e-08 -2.17021e-09 0)
(-7.43764e-08 -1.14187e-08 0)
(-7.67638e-08 -3.22495e-08 0)
(-2.55165e-08 -1.12575e-08 0)
(-6.82239e-08 -3.86976e-09 0)
(9.15226e-08 -1.42724e-08 0)
(3.82367e-08 -3.49146e-08 0)
(-2.10161e-08 -2.69655e-08 0)
(-2.20914e-08 8.64392e-09 0)
(-1.24106e-08 2.78293e-08 0)
(1.71667e-08 2.33004e-08 0)
(5.53795e-09 1.00809e-08 0)
(-2.37555e-08 5.71339e-09 0)
(-1.56001e-08 -4.41925e-09 0)
(1.39278e-08 -2.37012e-09 0)
(-9.50237e-09 1.95672e-09 0)
(-5.15964e-08 1.06668e-08 0)
(-6.12252e-08 1.16328e-08 0)
(-5.14282e-08 1.30146e-08 0)
(-4.27321e-08 2.36268e-08 0)
(-4.71919e-08 3.52578e-08 0)
(-7.93485e-08 3.77184e-08 0)
(-8.38451e-08 3.67411e-08 0)
(-2.50304e-08 -2.14283e-08 0)
(-4.67421e-08 6.93595e-08 0)
(1.54901e-08 3.06865e-08 0)
(2.39868e-08 6.18841e-09 0)
(6.08361e-09 2.37531e-08 0)
(-1.04886e-08 1.02807e-08 0)
(-1.55101e-08 9.70448e-09 0)
(2.37175e-09 1.00508e-08 0)
(8.31132e-09 3.17505e-08 0)
(-3.03664e-08 2.78191e-08 0)
(-2.10136e-08 -7.58919e-09 0)
(1.40904e-08 -5.83622e-09 0)
(-7.72456e-09 3.38291e-09 0)
(-4.97266e-08 1.79626e-08 0)
(-5.52954e-08 1.1209e-08 0)
(-4.37921e-08 3.55403e-09 0)
(-4.24758e-08 2.75138e-08 0)
(-4.71032e-08 7.23549e-08 0)
(-6.10266e-08 9.37781e-08 0)
(-8.8933e-08 8.69007e-08 0)
(-3.36749e-08 8.17225e-08 0)
(6.54911e-07 -4.85748e-08 0)
(-1.12823e-07 7.49782e-08 0)
(1.68602e-08 1.20136e-07 0)
(9.89109e-09 6.94807e-08 0)
(-2.51678e-08 4.46431e-10 0)
(-2.61211e-08 -3.37874e-08 0)
(-9.69445e-10 -1.70409e-08 0)
(9.46025e-09 3.28047e-08 0)
(-2.5488e-08 4.31018e-08 0)
(-1.63653e-08 -7.67844e-09 0)
(1.37163e-08 -5.53555e-09 0)
(-5.90651e-09 9.24473e-09 0)
(-4.4207e-08 2.66726e-08 0)
(-4.47901e-08 1.14746e-08 0)
(-3.41463e-08 -8.26515e-09 0)
(-3.42132e-08 2.73412e-08 0)
(-4.09231e-08 1.0177e-07 0)
(-5.13839e-08 1.44253e-07 0)
(-4.8285e-08 1.15918e-07 0)
(-5.92253e-08 1.02617e-07 0)
(-6.62664e-07 -2.50087e-08 0)
(1.77469e-07 1.14036e-07 0)
(1.47842e-08 1.45832e-07 0)
(-6.02014e-08 8.00751e-08 0)
(-5.49444e-08 -7.61156e-09 0)
(-3.32969e-08 -6.01471e-08 0)
(-1.36564e-09 -2.9525e-08 0)
(1.17482e-08 5.87304e-08 0)
(-1.02608e-08 6.75103e-08 0)
(-5.38869e-09 -8.00016e-09 0)
(1.30787e-08 -9.41417e-10 0)
(-3.95722e-09 2.07535e-08 0)
(-3.75501e-08 3.56096e-08 0)
(-3.36086e-08 9.71152e-09 0)
(-2.13376e-08 -2.0456e-08 0)
(-2.66961e-08 2.06879e-08 0)
(-3.29643e-08 1.21159e-07 0)
(-3.64281e-08 1.75313e-07 0)
(-2.55042e-08 1.34115e-07 0)
(-6.87345e-08 2.28305e-08 0)
(6.8421e-08 1.04418e-07 0)
(4.9464e-09 9.98955e-08 0)
(-5.00394e-08 1.24473e-07 0)
(-4.73735e-08 8.62444e-08 0)
(-5.29853e-08 -1.28665e-08 0)
(-3.20493e-08 -6.54115e-08 0)
(3.68106e-09 -2.90819e-08 0)
(1.1945e-08 8.05008e-08 0)
(-7.13412e-09 8.59507e-08 0)
(2.67694e-09 -7.44834e-09 0)
(1.15182e-08 7.30673e-09 0)
(-4.3784e-09 3.41944e-08 0)
(-3.12241e-08 4.21578e-08 0)
(-2.12637e-08 5.98833e-09 0)
(-8.67827e-09 -3.03407e-08 0)
(-1.44313e-08 1.1049e-08 0)
(-1.94867e-08 1.27545e-07 0)
(-2.11538e-08 1.94937e-07 0)
(-3.13093e-08 1.37821e-07 0)
(-3.30762e-08 2.94663e-08 0)
(-4.4431e-08 3.57133e-08 0)
(-3.89166e-08 9.19182e-08 0)
(-3.87357e-08 1.52128e-07 0)
(-6.09587e-08 8.6544e-08 0)
(-5.68001e-08 -1.93836e-08 0)
(-2.56132e-08 -6.96957e-08 0)
(1.81011e-09 -3.1893e-08 0)
(7.67746e-09 8.18816e-08 0)
(2.0511e-09 9.21475e-08 0)
(1.20598e-08 -5.97838e-09 0)
(8.93127e-09 1.49631e-08 0)
(-7.49263e-09 4.60101e-08 0)
(-2.70354e-08 4.59629e-08 0)
(-1.03486e-08 3.18671e-09 0)
(2.7325e-09 -3.82166e-08 0)
(-1.50942e-09 2.85569e-09 0)
(-6.32304e-09 1.16517e-07 0)
(-2.25273e-09 1.88621e-07 0)
(-8.69305e-09 1.34374e-07 0)
(-2.59366e-08 4.09924e-08 0)
(-3.51365e-08 2.06592e-08 0)
(-5.46416e-08 8.87002e-08 0)
(-7.97599e-08 1.33164e-07 0)
(-6.53508e-08 8.10731e-08 0)
(-3.79823e-08 -1.41307e-08 0)
(-2.10611e-08 -6.69288e-08 0)
(-9.98556e-09 -2.84515e-08 0)
(1.90472e-09 8.85641e-08 0)
(1.40125e-08 9.35087e-08 0)
(2.23472e-08 -6.98063e-09 0)
(7.10267e-09 1.78284e-08 0)
(-1.19231e-08 5.09238e-08 0)
(-2.50288e-08 4.62737e-08 0)
(-3.2958e-09 4.10405e-09 0)
(1.27438e-08 -3.58762e-08 0)
(8.37213e-09 -5.22209e-09 0)
(9.27741e-09 9.46732e-08 0)
(1.36593e-08 1.56864e-07 0)
(9.62112e-09 1.15715e-07 0)
(-2.24081e-08 2.79096e-08 0)
(-7.44232e-08 1.6944e-08 0)
(-9.2523e-08 7.89747e-08 0)
(-7.12137e-08 1.24985e-07 0)
(-4.85435e-08 7.75993e-08 0)
(-3.52448e-08 -1.448e-08 0)
(-2.30401e-08 -6.14631e-08 0)
(-1.28407e-08 -2.34694e-08 0)
(-5.21834e-09 7.99164e-08 0)
(1.42913e-08 8.11239e-08 0)
(2.64028e-08 -7.57535e-09 0)
(7.33307e-09 1.673e-08 0)
(-1.53791e-08 4.77532e-08 0)
(-2.23448e-08 4.28638e-08 0)
(2.3743e-09 4.5197e-09 0)
(1.72158e-08 -2.91306e-08 0)
(1.30667e-08 -6.93806e-09 0)
(1.73008e-08 6.97047e-08 0)
(3.27675e-08 1.15103e-07 0)
(2.7444e-08 7.75709e-08 0)
(-1.45194e-08 7.61009e-09 0)
(-6.2795e-08 -4.73986e-10 0)
(-1.05144e-07 6.03387e-08 0)
(-1.0369e-07 9.72172e-08 0)
(-6.59448e-08 5.57035e-08 0)
(-3.42652e-08 -1.49963e-08 0)
(-2.17192e-08 -4.85103e-08 0)
(-2.55236e-08 -2.27295e-08 0)
(-1.74325e-08 5.35481e-08 0)
(1.99122e-08 5.91422e-08 0)
(3.40676e-08 -5.25097e-09 0)
(1.01781e-08 9.10318e-09 0)
(-1.71331e-08 3.05909e-08 0)
(-2.20036e-08 3.06267e-08 0)
(3.64516e-09 6.13573e-09 0)
(1.94818e-08 -1.75881e-08 0)
(1.81936e-08 -3.59699e-09 0)
(2.39809e-08 4.01965e-08 0)
(3.98154e-08 6.73601e-08 0)
(3.22882e-08 4.01971e-08 0)
(-1.59846e-08 -1.8306e-09 0)
(-8.90687e-08 -1.04406e-08 0)
(-1.2494e-07 2.25849e-08 0)
(-9.76392e-08 5.35906e-08 0)
(-5.83446e-08 3.34905e-08 0)
(-3.43693e-08 -9.27309e-09 0)
(-3.19796e-08 -3.36044e-08 0)
(-4.12092e-08 -1.84202e-08 0)
(-2.37946e-08 3.31304e-08 0)
(2.65974e-08 3.86579e-08 0)
(3.75283e-08 -3.07525e-09 0)
(1.2626e-08 1.23311e-09 0)
(-1.65742e-08 8.2017e-09 0)
(-1.9306e-08 1.05548e-08 0)
(6.11043e-09 4.5085e-09 0)
(2.11404e-08 -4.01176e-09 0)
(1.85363e-08 -1.09635e-09 0)
(2.49738e-08 1.07713e-08 0)
(4.46013e-08 1.95948e-08 0)
(4.14989e-08 1.40959e-08 0)
(-1.06539e-08 1.45502e-09 0)
(-8.24542e-08 -2.22225e-09 0)
(-1.24685e-07 1.70308e-08 0)
(-1.12687e-07 2.33232e-08 0)
(-6.8763e-08 1.08986e-08 0)
(-3.75407e-08 -4.86273e-09 0)
(-3.36435e-08 -1.32847e-08 0)
(-4.16378e-08 -7.44839e-09 0)
(-2.46165e-08 1.16044e-08 0)
(2.47945e-08 1.33943e-08 0)
(3.58276e-08 -1.19328e-09 0)
)
;

boundaryField
{
    sides
    {
        type            calculated;
        value           nonuniform List<vector> 
40
(
(1.2626e-08 0 0)
(-1.65742e-08 0 0)
(-1.9306e-08 0 0)
(6.11043e-09 0 0)
(2.11404e-08 0 0)
(1.85363e-08 0 0)
(2.49738e-08 0 0)
(4.46013e-08 0 0)
(4.14989e-08 0 0)
(-1.06539e-08 0 0)
(-8.24542e-08 0 0)
(-1.24685e-07 0 0)
(-1.12687e-07 0 0)
(-6.8763e-08 0 0)
(-3.75407e-08 0 0)
(-3.36435e-08 0 0)
(-4.16378e-08 0 0)
(-2.46165e-08 0 0)
(2.47945e-08 0 0)
(3.58276e-08 0 0)
(5.55962e-09 0 0)
(-1.72713e-08 0 0)
(-1.34295e-08 0 0)
(1.36539e-08 0 0)
(2.64598e-08 0 0)
(1.75157e-08 0 0)
(1.80575e-08 0 0)
(3.41612e-08 0 0)
(3.51629e-08 0 0)
(-1.62188e-08 0 0)
(-8.13241e-08 0 0)
(-1.18379e-07 0 0)
(-9.65451e-08 0 0)
(-4.82985e-08 0 0)
(-2.50226e-08 0 0)
(-2.23472e-08 0 0)
(-3.48699e-08 0 0)
(-1.81236e-08 0 0)
(3.10757e-08 0 0)
(4.25333e-08 0 0)
)
;
    }
    inlet
    {
        type            calculated;
        value           uniform (0 0 0);
    }
    outlet
    {
        type            calculated;
        value           nonuniform List<vector> 
20
(
(4.25333e-08 3.49867e-10 0)
(2.47921e-08 -4.44087e-10 0)
(4.43169e-08 -2.40096e-09 0)
(1.35771e-08 -3.56892e-10 0)
(3.04823e-08 -3.06291e-09 0)
(1.18504e-08 -5.7832e-09 0)
(1.04575e-08 -5.17212e-09 0)
(3.92767e-09 -5.08074e-09 0)
(-1.0597e-08 -3.66293e-09 0)
(-1.56001e-08 -4.41925e-09 0)
(-2.10136e-08 -7.58919e-09 0)
(-1.63653e-08 -7.67844e-09 0)
(-5.38869e-09 -8.00016e-09 0)
(2.67694e-09 -7.44834e-09 0)
(1.20598e-08 -5.97838e-09 0)
(2.23472e-08 -6.98063e-09 0)
(2.64028e-08 -7.57535e-09 0)
(3.40676e-08 -5.25097e-09 0)
(3.75283e-08 -3.07525e-09 0)
(3.58276e-08 -1.19328e-09 0)
)
;
    }
    frontAndBack
    {
        type            empty;
    }
}


// ************************************************************************* //
