/*--------------------------------*- C++ -*----------------------------------*\
  =========                 |
  \\      /  F ield         | OpenFOAM: The Open Source CFD Toolbox
   \\    /   O peration     | Website:  https://openfoam.org
    \\  /    A nd           | Version:  9
     \\/     M anipulation  |
\*---------------------------------------------------------------------------*/
FoamFile
{
    format      ascii;
    class       volScalarField;
    location    "33";
    object      h_0;
}
// * * * * * * * * * * * * * * * * * * * * * * * * * * * * * * * * * * * * * //

dimensions      [0 1 0 0 0 0 0];

internalField   nonuniform List<scalar> 
400
(
0.0100005
0.0100005
0.0100004
0.0100003
0.0100001
0.00999985
0.00999954
0.00999924
0.00999898
0.0099988
0.00999873
0.0099988
0.00999898
0.00999925
0.00999954
0.00999981
0.01
0.0100001
0.0100001
0.0100001
0.0100004
0.0100004
0.0100003
0.0100002
0.01
0.00999976
0.00999944
0.0099991
0.00999881
0.00999859
0.00999851
0.00999858
0.00999879
0.0099991
0.00999943
0.00999972
0.00999991
0.00999999
0.01
0.00999999
0.0100005
0.0100004
0.0100004
0.0100002
0.01
0.00999975
0.00999941
0.00999904
0.0099987
0.00999844
0.00999831
0.00999837
0.0099986
0.00999898
0.00999941
0.00999979
0.01
0.0100001
0.0100001
0.01
0.0100005
0.0100005
0.0100004
0.0100003
0.0100001
0.00999977
0.00999938
0.00999894
0.00999849
0.00999811
0.0099979
0.00999795
0.0099983
0.00999886
0.00999945
0.00999988
0.0100001
0.0100001
0.00999999
0.00999997
0.0100006
0.0100006
0.0100005
0.0100004
0.0100002
0.00999985
0.0099994
0.00999885
0.00999825
0.00999765
0.00999727
0.00999729
0.00999781
0.00999872
0.00999967
0.0100003
0.0100005
0.0100003
0.0100001
0.01
0.0100007
0.0100007
0.0100007
0.0100006
0.0100004
0.01
0.00999951
0.00999879
0.00999791
0.00999707
0.00999647
0.00999644
0.00999721
0.00999857
0.00999987
0.0100006
0.0100006
0.0100002
0.00999996
0.00999992
0.0100009
0.0100009
0.0100009
0.0100009
0.0100007
0.0100004
0.00999989
0.0099989
0.00999739
0.00999563
0.0099944
0.00999474
0.00999689
0.00999965
0.0100015
0.0100017
0.0100009
0.0100001
0.00999977
0.00999988
0.010001
0.0100011
0.0100012
0.0100012
0.0100012
0.0100011
0.0100006
0.00999957
0.0099977
0.00999459
0.00999076
0.00999047
0.00999469
0.0100004
0.0100035
0.0100032
0.0100013
0.00999991
0.00999952
0.00999984
0.0100011
0.0100012
0.0100014
0.0100017
0.010002
0.0100022
0.0100017
0.00999982
0.00999587
0.00999013
0.00998717
0.00999007
0.00999829
0.0100039
0.0100046
0.0100025
0.0100004
0.00999939
0.00999946
0.00999988
0.0100011
0.0100013
0.0100015
0.010002
0.0100028
0.0100043
0.0100062
0.0100082
0.0100053
0.00897887
0.00895281
0.00997619
0.0100091
0.010018
0.0100106
0.0100024
0.00999892
0.00999894
0.0099998
0.0100002
0.010001
0.0100012
0.0100014
0.010002
0.0100028
0.0100042
0.0100061
0.0100081
0.0100052
0.00897885
0.00895277
0.00997614
0.010009
0.010018
0.0100106
0.0100024
0.00999891
0.00999892
0.00999976
0.0100001
0.0100009
0.010001
0.0100012
0.0100015
0.0100018
0.0100019
0.0100015
0.0099996
0.00999566
0.00998994
0.00998689
0.00998988
0.00999817
0.0100038
0.0100044
0.0100024
0.0100003
0.00999936
0.00999947
0.00999989
0.0100007
0.0100007
0.0100008
0.0100009
0.0100009
0.0100007
0.0100003
0.00999925
0.00999739
0.0099943
0.00999059
0.00999023
0.00999442
0.0100001
0.0100032
0.010003
0.0100012
0.00999982
0.00999949
0.00999983
0.0100004
0.0100004
0.0100004
0.0100004
0.0100002
0.00999996
0.00999941
0.00999843
0.00999693
0.00999515
0.00999397
0.00999432
0.00999651
0.00999933
0.0100012
0.0100014
0.0100007
0.00999996
0.00999966
0.00999984
0.0100001
0.0100001
0.01
0.00999994
0.00999975
0.00999942
0.0099989
0.00999819
0.00999734
0.00999653
0.00999597
0.00999596
0.00999677
0.00999817
0.00999952
0.0100003
0.0100003
0.01
0.00999984
0.00999989
0.00999984
0.00999982
0.00999974
0.00999961
0.0099994
0.00999908
0.00999865
0.00999812
0.00999754
0.00999697
0.0099966
0.00999667
0.00999723
0.00999818
0.00999918
0.00999987
0.0100001
0.01
0.00999993
0.00999994
0.0099996
0.00999957
0.00999949
0.00999935
0.00999915
0.00999886
0.00999849
0.00999807
0.00999765
0.00999731
0.00999715
0.00999725
0.00999763
0.00999824
0.00999891
0.00999944
0.00999973
0.00999983
0.00999986
0.00999993
0.00999939
0.00999936
0.00999928
0.00999916
0.00999897
0.00999871
0.00999837
0.00999802
0.00999769
0.00999745
0.00999735
0.00999746
0.00999777
0.00999822
0.00999872
0.00999917
0.00999949
0.00999969
0.00999982
0.00999992
0.00999922
0.0099992
0.00999913
0.00999902
0.00999885
0.0099986
0.00999831
0.009998
0.00999774
0.00999757
0.00999752
0.00999762
0.00999788
0.00999826
0.00999868
0.00999907
0.00999939
0.00999962
0.00999979
0.00999992
0.00999908
0.00999905
0.00999898
0.00999887
0.0099987
0.00999847
0.00999818
0.00999789
0.00999765
0.00999749
0.00999747
0.00999759
0.00999784
0.00999818
0.00999855
0.00999891
0.00999922
0.00999947
0.00999968
0.00999987
)
;

boundaryField
{
    sides
    {
        type            zeroGradient;
    }
    inlet
    {
        type            zeroGradient;
    }
    outlet
    {
        type            fixedValue;
        value           uniform 0.01;
    }
    frontAndBack
    {
        type            empty;
    }
}


// ************************************************************************* //
