/*--------------------------------*- C++ -*----------------------------------*\
  =========                 |
  \\      /  F ield         | OpenFOAM: The Open Source CFD Toolbox
   \\    /   O peration     | Website:  https://openfoam.org
    \\  /    A nd           | Version:  9
     \\/     M anipulation  |
\*---------------------------------------------------------------------------*/
FoamFile
{
    format      ascii;
    class       volScalarField;
    location    "33";
    object      hTotal;
}
// * * * * * * * * * * * * * * * * * * * * * * * * * * * * * * * * * * * * * //

dimensions      [0 1 0 0 0 0 0];

internalField   nonuniform List<scalar> 
400
(
0.0100005
0.0100005
0.0100004
0.0100003
0.0100001
0.00999981
0.0099995
0.00999921
0.00999896
0.00999879
0.00999875
0.00999882
0.00999899
0.00999925
0.00999953
0.00999978
0.00999997
0.0100001
0.0100001
0.01
0.0100005
0.0100004
0.0100003
0.0100002
0.01
0.00999972
0.0099994
0.00999907
0.00999879
0.0099986
0.00999852
0.0099986
0.00999881
0.0099991
0.00999942
0.0099997
0.00999987
0.00999995
0.00999998
0.00999999
0.0100005
0.0100004
0.0100004
0.0100002
0.01
0.00999972
0.00999937
0.00999901
0.00999868
0.00999844
0.00999832
0.00999838
0.00999862
0.00999898
0.0099994
0.00999977
0.01
0.0100001
0.0100001
0.01
0.0100005
0.0100005
0.0100004
0.0100003
0.01
0.00999974
0.00999935
0.00999891
0.00999847
0.0099981
0.00999791
0.00999796
0.0099983
0.00999886
0.00999944
0.00999986
0.01
0.01
0.00999997
0.00999996
0.0100006
0.0100006
0.0100005
0.0100004
0.0100002
0.00999983
0.00999938
0.00999883
0.00999822
0.00999765
0.00999726
0.00999729
0.0099978
0.00999871
0.00999965
0.0100003
0.0100004
0.0100003
0.0100001
0.00999999
0.0100008
0.0100007
0.0100007
0.0100006
0.0100004
0.01
0.0099995
0.00999877
0.00999788
0.00999706
0.00999645
0.00999641
0.0099972
0.00999854
0.00999984
0.0100005
0.0100005
0.0100002
0.00999994
0.00999992
0.0100009
0.0100009
0.0100009
0.0100009
0.0100007
0.0100004
0.00999989
0.00999888
0.00999738
0.00999559
0.0099944
0.00999471
0.00999685
0.00999962
0.0100014
0.0100016
0.0100009
0.0100001
0.00999975
0.00999987
0.010001
0.0100011
0.0100012
0.0100012
0.0100012
0.0100011
0.0100006
0.00999957
0.00999768
0.00999458
0.00999081
0.00999045
0.00999465
0.0100003
0.0100034
0.0100031
0.0100013
0.00999987
0.0099995
0.00999983
0.0100011
0.0100012
0.0100014
0.0100017
0.010002
0.0100022
0.0100017
0.00999982
0.00999586
0.00999009
0.00998705
0.00998999
0.00999824
0.0100038
0.0100045
0.0100025
0.0100003
0.00999935
0.00999943
0.00999987
0.0100011
0.0100013
0.0100015
0.010002
0.0100029
0.0100043
0.0100062
0.0100082
0.0100053
0.00997887
0.00995272
0.00997614
0.010009
0.010018
0.0100105
0.0100024
0.00999887
0.00999891
0.00999977
0.0100001
0.010001
0.0100012
0.0100015
0.010002
0.0100028
0.0100042
0.0100061
0.0100081
0.0100052
0.00997883
0.00995272
0.00997608
0.010009
0.0100179
0.0100105
0.0100023
0.00999887
0.00999889
0.00999974
0.0100001
0.0100009
0.010001
0.0100012
0.0100015
0.0100018
0.010002
0.0100015
0.00999961
0.00999567
0.00998988
0.00998707
0.00998981
0.00999811
0.0100037
0.0100044
0.0100023
0.0100002
0.00999933
0.00999945
0.00999988
0.0100007
0.0100007
0.0100008
0.0100009
0.0100009
0.0100007
0.0100003
0.00999925
0.00999737
0.00999433
0.00999033
0.00999021
0.00999439
0.0100001
0.0100032
0.010003
0.0100012
0.00999978
0.00999946
0.00999982
0.0100004
0.0100004
0.0100004
0.0100004
0.0100002
0.00999996
0.00999941
0.00999842
0.00999691
0.00999512
0.00999397
0.00999431
0.00999648
0.00999929
0.0100012
0.0100014
0.0100007
0.00999992
0.00999964
0.00999983
0.0100001
0.0100001
0.01
0.00999994
0.00999974
0.00999941
0.00999889
0.00999818
0.00999732
0.00999651
0.00999595
0.00999593
0.00999675
0.00999815
0.00999949
0.0100002
0.0100003
0.01
0.00999982
0.00999988
0.00999985
0.00999982
0.00999974
0.0099996
0.00999939
0.00999906
0.00999863
0.0099981
0.00999752
0.00999696
0.00999659
0.00999666
0.00999722
0.00999816
0.00999916
0.00999985
0.0100001
0.01
0.00999991
0.00999993
0.0099996
0.00999957
0.00999949
0.00999935
0.00999913
0.00999883
0.00999846
0.00999804
0.00999763
0.00999731
0.00999716
0.00999725
0.00999763
0.00999824
0.0099989
0.00999942
0.00999971
0.00999981
0.00999985
0.00999992
0.00999939
0.00999937
0.00999929
0.00999915
0.00999895
0.00999867
0.00999834
0.00999799
0.00999767
0.00999744
0.00999736
0.00999748
0.00999778
0.00999822
0.00999871
0.00999915
0.00999946
0.00999966
0.0099998
0.00999992
0.00999923
0.00999921
0.00999914
0.00999901
0.00999883
0.00999857
0.00999827
0.00999797
0.00999772
0.00999757
0.00999754
0.00999764
0.0099979
0.00999826
0.00999867
0.00999905
0.00999936
0.00999959
0.00999977
0.00999991
0.00999909
0.00999907
0.00999899
0.00999887
0.00999868
0.00999843
0.00999814
0.00999786
0.00999763
0.00999749
0.00999748
0.00999761
0.00999786
0.00999818
0.00999854
0.00999888
0.00999919
0.00999944
0.00999966
0.00999986
)
;

boundaryField
{
    sides
    {
        type            calculated;
        value           nonuniform List<scalar> 
40
(
0.00999909
0.00999907
0.00999899
0.00999887
0.00999868
0.00999843
0.00999814
0.00999786
0.00999763
0.00999749
0.00999748
0.00999761
0.00999786
0.00999818
0.00999854
0.00999888
0.00999919
0.00999944
0.00999966
0.00999986
0.0100005
0.0100005
0.0100004
0.0100003
0.0100001
0.00999981
0.0099995
0.00999921
0.00999896
0.00999879
0.00999875
0.00999882
0.00999899
0.00999925
0.00999953
0.00999978
0.00999997
0.0100001
0.0100001
0.01
)
;
    }
    inlet
    {
        type            calculated;
        value           nonuniform List<scalar> 
20
(
0.0100005
0.0100005
0.0100005
0.0100005
0.0100006
0.0100008
0.0100009
0.010001
0.0100011
0.0100011
0.010001
0.0100009
0.0100007
0.0100004
0.0100001
0.00999985
0.0099996
0.00999939
0.00999923
0.00999909
)
;
    }
    outlet
    {
        type            calculated;
        value           uniform 0.01;
    }
    frontAndBack
    {
        type            empty;
    }
}


// ************************************************************************* //
