/*--------------------------------*- C++ -*----------------------------------*\
  =========                 |
  \\      /  F ield         | OpenFOAM: The Open Source CFD Toolbox
   \\    /   O peration     | Website:  https://openfoam.org
    \\  /    A nd           | Version:  9
     \\/     M anipulation  |
\*---------------------------------------------------------------------------*/
FoamFile
{
    format      ascii;
    class       volVectorField;
    location    "33";
    object      hU;
}
// * * * * * * * * * * * * * * * * * * * * * * * * * * * * * * * * * * * * * //

dimensions      [0 2 -1 0 0 0 0];

internalField   nonuniform List<vector> 
400
(
(0.000999998 -2.59198e-08 0)
(0.00100003 -6.918e-08 0)
(0.00100011 -1.07114e-07 0)
(0.00100022 -1.43825e-07 0)
(0.00100036 -1.83008e-07 0)
(0.00100056 -2.20358e-07 0)
(0.00100079 -2.42832e-07 0)
(0.00100103 -2.44661e-07 0)
(0.00100122 -2.2921e-07 0)
(0.00100135 -2.08257e-07 0)
(0.00100143 -1.7803e-07 0)
(0.00100143 -1.3987e-07 0)
(0.00100134 -1.05145e-07 0)
(0.00100116 -9.14633e-08 0)
(0.00100091 -9.53267e-08 0)
(0.00100069 -1.36238e-07 0)
(0.0010005 -1.62584e-07 0)
(0.00100045 -2.05435e-07 0)
(0.00100039 -1.89332e-07 0)
(0.00100046 -2.65948e-07 0)
(0.000999999 -3.04367e-08 0)
(0.00100003 -7.63897e-08 0)
(0.00100012 -1.14341e-07 0)
(0.00100024 -1.52677e-07 0)
(0.00100039 -2.00726e-07 0)
(0.0010006 -2.47872e-07 0)
(0.00100085 -2.61315e-07 0)
(0.00100111 -2.21373e-07 0)
(0.00100133 -1.40027e-07 0)
(0.00100149 -4.11507e-08 0)
(0.00100159 7.50064e-08 0)
(0.00100158 2.14085e-07 0)
(0.00100146 3.71652e-07 0)
(0.00100124 4.82488e-07 0)
(0.00100097 5.17182e-07 0)
(0.00100072 4.50551e-07 0)
(0.00100056 3.51557e-07 0)
(0.00100047 2.2873e-07 0)
(0.00100045 2.07078e-07 0)
(0.00100042 8.80896e-08 0)
(0.000999999 -5.63148e-08 0)
(0.00100003 -1.54861e-07 0)
(0.00100011 -2.45878e-07 0)
(0.00100024 -3.41232e-07 0)
(0.0010004 -4.53842e-07 0)
(0.00100062 -5.65826e-07 0)
(0.0010009 -6.25823e-07 0)
(0.00100119 -5.99021e-07 0)
(0.00100146 -4.96395e-07 0)
(0.00100167 -3.42113e-07 0)
(0.00100179 -1.37925e-07 0)
(0.00100179 1.09996e-07 0)
(0.00100164 3.71547e-07 0)
(0.00100135 5.27056e-07 0)
(0.00100099 5.1657e-07 0)
(0.00100067 3.51297e-07 0)
(0.00100044 1.67452e-07 0)
(0.00100038 9.45452e-09 0)
(0.00100035 -2.84602e-09 0)
(0.00100043 -1.0619e-07 0)
(0.001 -7.56166e-08 0)
(0.00100003 -2.14168e-07 0)
(0.00100011 -3.45528e-07 0)
(0.00100025 -4.87181e-07 0)
(0.00100042 -6.54625e-07 0)
(0.00100067 -8.21722e-07 0)
(0.001001 -9.15554e-07 0)
(0.00100136 -8.86223e-07 0)
(0.00100173 -7.27163e-07 0)
(0.00100205 -4.62733e-07 0)
(0.00100224 -6.74748e-08 0)
(0.00100222 4.25243e-07 0)
(0.00100197 8.98775e-07 0)
(0.00100151 1.14691e-06 0)
(0.00100102 1.07549e-06 0)
(0.00100065 7.37354e-07 0)
(0.0010005 3.73032e-07 0)
(0.00100045 1.19493e-07 0)
(0.00100052 1.00694e-07 0)
(0.00100048 1.34325e-08 0)
(0.001 -9.02763e-08 0)
(0.00100002 -2.66146e-07 0)
(0.0010001 -4.4234e-07 0)
(0.00100024 -6.43964e-07 0)
(0.00100043 -8.89426e-07 0)
(0.00100071 -1.14979e-06 0)
(0.00100109 -1.32672e-06 0)
(0.00100156 -1.33737e-06 0)
(0.00100208 -1.14595e-06 0)
(0.00100259 -7.68253e-07 0)
(0.00100293 -2.14278e-07 0)
(0.00100292 5.0023e-07 0)
(0.00100248 1.18193e-06 0)
(0.00100172 1.51268e-06 0)
(0.00100092 1.39296e-06 0)
(0.00100037 9.57208e-07 0)
(0.00100022 5.24247e-07 0)
(0.00100033 2.54879e-07 0)
(0.0010005 2.61125e-07 0)
(0.00100057 1.82362e-07 0)
(0.001 -1.00015e-07 0)
(0.00100001 -3.03749e-07 0)
(0.00100007 -5.24505e-07 0)
(0.00100019 -7.91798e-07 0)
(0.00100037 -1.13916e-06 0)
(0.00100067 -1.53442e-06 0)
(0.00100114 -1.8868e-06 0)
(0.00100178 -2.05321e-06 0)
(0.00100255 -1.87919e-06 0)
(0.00100328 -1.18725e-06 0)
(0.0010038 4.08703e-08 0)
(0.00100381 1.46486e-06 0)
(0.00100313 2.38744e-06 0)
(0.00100197 2.31153e-06 0)
(0.00100089 1.45071e-06 0)
(0.00100028 4.85768e-07 0)
(0.00100027 -3.95725e-08 0)
(0.00100048 -1.39599e-07 0)
(0.00100076 5.2431e-08 0)
(0.00100069 5.97886e-08 0)
(0.000999999 -9.76019e-08 0)
(0.000999985 -3.17623e-07 0)
(0.00100001 -5.65081e-07 0)
(0.00100007 -9.11302e-07 0)
(0.0010002 -1.36032e-06 0)
(0.00100047 -1.95454e-06 0)
(0.00100099 -2.51466e-06 0)
(0.00100188 -3.08544e-06 0)
(0.00100321 -3.21009e-06 0)
(0.00100474 -2.86946e-06 0)
(0.00100577 -7.11817e-07 0)
(0.00100539 2.48639e-06 0)
(0.00100354 4.78282e-06 0)
(0.00100117 4.73842e-06 0)
(0.000999677 3.04657e-06 0)
(0.000999462 1.25529e-06 0)
(0.00100011 3.74284e-07 0)
(0.00100067 2.6765e-07 0)
(0.00100105 5.52642e-07 0)
(0.0010008 5.41021e-07 0)
(0.000999995 -8.72966e-08 0)
(0.000999949 -2.74148e-07 0)
(0.000999894 -5.4553e-07 0)
(0.000999875 -9.14367e-07 0)
(0.000999876 -1.55069e-06 0)
(0.00100009 -2.35223e-06 0)
(0.00100049 -3.42387e-06 0)
(0.00100151 -4.12589e-06 0)
(0.00100308 -4.35306e-06 0)
(0.00100603 -2.54501e-06 0)
(0.00100914 7.22453e-07 0)
(0.00100917 4.20964e-06 0)
(0.00100553 4.68487e-06 0)
(0.00100079 2.7818e-06 0)
(0.000998231 7.47593e-07 0)
(0.000998375 -2.81431e-07 0)
(0.000999914 -3.31715e-07 0)
(0.00100099 -5.80248e-08 0)
(0.00100146 1.98378e-07 0)
(0.001001 1.04363e-07 0)
(0.000999994 -4.50515e-08 0)
(0.000999896 -1.92457e-07 0)
(0.000999743 -3.6377e-07 0)
(0.000999534 -7.05739e-07 0)
(0.000999289 -1.32114e-06 0)
(0.000999203 -2.48803e-06 0)
(0.000999692 -4.70382e-06 0)
(0.00100138 -8.07137e-06 0)
(0.0010049 -1.32729e-05 0)
(0.00100959 -1.49091e-05 0)
(0.00101192 3.81839e-06 0)
(0.00100897 1.86912e-05 0)
(0.00100225 1.57643e-05 0)
(0.000997617 5.74878e-06 0)
(0.000996967 -3.06286e-07 0)
(0.000998567 -1.26572e-06 0)
(0.00100039 -1.25036e-07 0)
(0.00100112 6.01648e-07 0)
(0.0010012 6.34436e-07 0)
(0.00100069 2.37294e-07 0)
(0.000999803 -1.77614e-08 0)
(0.00100015 -6.00224e-08 0)
(0.000999203 -1.39725e-07 0)
(0.000999908 -2.35804e-07 0)
(0.000997526 -5.86752e-07 0)
(0.000998839 -1.13855e-06 0)
(0.000993329 -2.89664e-06 0)
(0.00099751 -5.60255e-06 0)
(0.000991655 -1.15485e-05 0)
(0.000915846 -1.27081e-05 0)
(0.000951492 2.693e-07 0)
(0.00101026 1.46322e-05 0)
(0.000990987 1.30821e-05 0)
(0.000984031 5.14881e-06 0)
(0.000989672 2.0296e-07 0)
(0.000996391 -7.78579e-07 0)
(0.000999357 -1.22105e-07 0)
(0.00099953 2.34103e-07 0)
(0.000998773 1.55782e-07 0)
(0.000998655 -1.97488e-07 0)
(0.000999803 1.25909e-08 0)
(0.00100015 4.69722e-08 0)
(0.000999203 1.16561e-07 0)
(0.000999907 1.9479e-07 0)
(0.000997523 5.22606e-07 0)
(0.000998833 1.04645e-06 0)
(0.000993321 2.77999e-06 0)
(0.000997498 5.46261e-06 0)
(0.00099164 1.13896e-05 0)
(0.000915824 1.25433e-05 0)
(0.00095146 -4.67571e-07 0)
(0.00101023 -1.48853e-05 0)
(0.000990981 -1.33847e-05 0)
(0.000984022 -5.51948e-06 0)
(0.000989652 -6.35229e-07 0)
(0.000996353 2.57566e-07 0)
(0.000999315 -4.65624e-07 0)
(0.000999482 -9.99281e-07 0)
(0.000998758 -1.01097e-06 0)
(0.000998604 -9.09969e-07 0)
(0.000999994 4.03095e-08 0)
(0.000999896 1.80083e-07 0)
(0.000999743 3.41163e-07 0)
(0.000999535 6.65855e-07 0)
(0.00099929 1.25861e-06 0)
(0.000999206 2.39706e-06 0)
(0.000999691 4.58634e-06 0)
(0.00100137 7.92344e-06 0)
(0.00100489 1.31024e-05 0)
(0.00100958 1.47095e-05 0)
(0.00101193 -4.0361e-06 0)
(0.00100893 -1.89519e-05 0)
(0.00100218 -1.60524e-05 0)
(0.000997532 -6.10462e-06 0)
(0.000996896 -7.65882e-08 0)
(0.000998508 7.88824e-07 0)
(0.00100029 -4.06981e-07 0)
(0.00100097 -1.28624e-06 0)
(0.001001 -1.40017e-06 0)
(0.00100052 -1.27697e-06 0)
(0.000999995 8.35554e-08 0)
(0.000999949 2.63211e-07 0)
(0.000999894 5.23714e-07 0)
(0.000999874 8.75797e-07 0)
(0.000999871 1.48676e-06 0)
(0.00100007 2.25732e-06 0)
(0.00100046 3.29415e-06 0)
(0.00100147 3.96807e-06 0)
(0.00100303 4.17254e-06 0)
(0.00100597 2.35485e-06 0)
(0.00100903 -9.36561e-07 0)
(0.00100909 -4.46548e-06 0)
(0.00100546 -4.96281e-06 0)
(0.00100071 -3.1093e-06 0)
(0.000998134 -1.12611e-06 0)
(0.000998234 -2.3134e-07 0)
(0.000999737 -2.80939e-07 0)
(0.00100076 -7.05593e-07 0)
(0.00100119 -9.89597e-07 0)
(0.0010007 -1.105e-06 0)
(0.000999999 9.53768e-08 0)
(0.000999985 3.08243e-07 0)
(0.00100001 5.44958e-07 0)
(0.00100007 8.74733e-07 0)
(0.0010002 1.30204e-06 0)
(0.00100045 1.87006e-06 0)
(0.00100096 2.40785e-06 0)
(0.00100185 2.95894e-06 0)
(0.00100318 3.07361e-06 0)
(0.0010047 2.71484e-06 0)
(0.00100571 5.45901e-07 0)
(0.0010053 -2.67302e-06 0)
(0.00100342 -5.01407e-06 0)
(0.00100101 -5.0521e-06 0)
(0.000999481 -3.44734e-06 0)
(0.000999216 -1.77298e-06 0)
(0.000999853 -9.6723e-07 0)
(0.00100037 -1.01159e-06 0)
(0.00100074 -1.33016e-06 0)
(0.00100038 -1.55029e-06 0)
(0.001 9.9456e-08 0)
(0.00100001 2.96896e-07 0)
(0.00100007 5.07672e-07 0)
(0.00100018 7.60187e-07 0)
(0.00100036 1.08875e-06 0)
(0.00100065 1.46082e-06 0)
(0.00100111 1.79128e-06 0)
(0.00100174 1.93389e-06 0)
(0.00100248 1.73735e-06 0)
(0.00100318 1.01585e-06 0)
(0.00100368 -2.23053e-07 0)
(0.00100367 -1.6885e-06 0)
(0.00100296 -2.64563e-06 0)
(0.00100175 -2.61727e-06 0)
(0.00100065 -1.7808e-06 0)
(0.000999991 -8.76216e-07 0)
(0.000999959 -3.73587e-07 0)
(0.00100009 -3.96387e-07 0)
(0.00100034 -6.37375e-07 0)
(0.00100014 -8.83473e-07 0)
(0.001 9.08175e-08 0)
(0.00100002 2.61492e-07 0)
(0.0010001 4.28427e-07 0)
(0.00100023 6.17814e-07 0)
(0.00100041 8.47076e-07 0)
(0.00100068 1.08813e-06 0)
(0.00100105 1.24453e-06 0)
(0.00100151 1.23841e-06 0)
(0.00100201 1.03353e-06 0)
(0.0010025 6.43084e-07 0)
(0.00100282 6.8391e-08 0)
(0.00100277 -6.82019e-07 0)
(0.00100231 -1.38568e-06 0)
(0.00100151 -1.75935e-06 0)
(0.00100068 -1.67204e-06 0)
(0.00100008 -1.33126e-06 0)
(0.000999887 -9.75046e-07 0)
(0.00099988 -8.86053e-07 0)
(0.00100001 -9.68278e-07 0)
(0.000999897 -1.14349e-06 0)
(0.000999999 7.61355e-08 0)
(0.00100003 2.0995e-07 0)
(0.00100011 3.33068e-07 0)
(0.00100024 4.64152e-07 0)
(0.00100041 6.18518e-07 0)
(0.00100065 7.7083e-07 0)
(0.00100096 8.52653e-07 0)
(0.0010013 8.14724e-07 0)
(0.00100165 6.55572e-07 0)
(0.00100192 3.91753e-07 0)
(0.00100208 -4.11963e-09 0)
(0.00100204 -4.98589e-07 0)
(0.00100175 -9.81255e-07 0)
(0.00100124 -1.27383e-06 0)
(0.0010007 -1.2377e-06 0)
(0.00100023 -9.80326e-07 0)
(0.001 -6.53291e-07 0)
(0.000999849 -5.12575e-07 0)
(0.000999878 -5.08502e-07 0)
(0.000999686 -6.28889e-07 0)
(0.000999998 5.75803e-08 0)
(0.00100003 1.5076e-07 0)
(0.00100011 2.30112e-07 0)
(0.00100023 3.09646e-07 0)
(0.00100039 4.02803e-07 0)
(0.0010006 4.89312e-07 0)
(0.00100087 5.21289e-07 0)
(0.00100114 4.62835e-07 0)
(0.00100139 3.30038e-07 0)
(0.00100159 1.4202e-07 0)
(0.00100168 -8.32722e-08 0)
(0.00100163 -3.6201e-07 0)
(0.00100143 -6.42865e-07 0)
(0.00100108 -8.39344e-07 0)
(0.00100069 -8.57887e-07 0)
(0.00100028 -7.61856e-07 0)
(0.00100003 -6.02724e-07 0)
(0.0009998 -5.63709e-07 0)
(0.000999756 -5.76747e-07 0)
(0.000999511 -7.07395e-07 0)
(0.000999997 3.99972e-08 0)
(0.00100002 1.06415e-07 0)
(0.0010001 1.65447e-07 0)
(0.00100021 2.2483e-07 0)
(0.00100035 2.9141e-07 0)
(0.00100054 3.5464e-07 0)
(0.00100077 3.84519e-07 0)
(0.001001 3.63307e-07 0)
(0.00100119 3.00691e-07 0)
(0.00100131 2.15292e-07 0)
(0.00100138 1.03133e-07 0)
(0.00100135 -3.48229e-08 0)
(0.0010012 -1.80199e-07 0)
(0.00100091 -2.94754e-07 0)
(0.00100058 -3.18769e-07 0)
(0.00100022 -2.7802e-07 0)
(0.000999977 -1.81128e-07 0)
(0.000999728 -1.48892e-07 0)
(0.000999649 -1.3087e-07 0)
(0.000999373 -2.14635e-07 0)
(0.000999997 -2.12401e-09 0)
(0.00100003 -8.40324e-09 0)
(0.00100011 -1.42765e-08 0)
(0.00100022 -1.89099e-08 0)
(0.00100036 -2.0345e-08 0)
(0.00100054 -2.14165e-08 0)
(0.00100076 -3.00745e-08 0)
(0.00100098 -5.30145e-08 0)
(0.00100114 -8.52509e-08 0)
(0.00100125 -1.23049e-07 0)
(0.00100129 -1.59133e-07 0)
(0.00100124 -2.1628e-07 0)
(0.00100111 -2.82781e-07 0)
(0.00100085 -3.4207e-07 0)
(0.00100058 -3.62402e-07 0)
(0.00100023 -3.6647e-07 0)
(0.00100002 -3.34325e-07 0)
(0.00099972 -3.45485e-07 0)
(0.000999652 -3.31864e-07 0)
(0.000999253 -4.1536e-07 0)
)
;

boundaryField
{
    sides
    {
        type            slip;
    }
    inlet
    {
        type            fixedValue;
        value           uniform (0.001 0 0);
    }
    outlet
    {
        type            zeroGradient;
    }
    frontAndBack
    {
        type            empty;
    }
}


// ************************************************************************* //
