/*--------------------------------*- C++ -*----------------------------------*\
  =========                 |
  \\      /  F ield         | OpenFOAM: The Open Source CFD Toolbox
   \\    /   O peration     | Website:  https://openfoam.org
    \\  /    A nd           | Version:  9
     \\/     M anipulation  |
\*---------------------------------------------------------------------------*/
FoamFile
{
    format      ascii;
    class       volVectorField;
    location    "33";
    object      hU_0;
}
// * * * * * * * * * * * * * * * * * * * * * * * * * * * * * * * * * * * * * //

dimensions      [0 2 -1 0 0 0 0];

internalField   nonuniform List<vector> 
400
(
(0.000999997 -2.51082e-08 0)
(0.00100003 -6.77513e-08 0)
(0.00100011 -1.0616e-07 0)
(0.00100021 -1.43983e-07 0)
(0.00100036 -1.8406e-07 0)
(0.00100055 -2.20708e-07 0)
(0.00100079 -2.41118e-07 0)
(0.00100102 -2.41888e-07 0)
(0.00100121 -2.27376e-07 0)
(0.00100135 -2.08313e-07 0)
(0.00100143 -1.78565e-07 0)
(0.00100144 -1.39036e-07 0)
(0.00100135 -1.03805e-07 0)
(0.00100116 -9.05432e-08 0)
(0.00100091 -9.58841e-08 0)
(0.00100069 -1.37802e-07 0)
(0.00100051 -1.63572e-07 0)
(0.00100045 -2.05698e-07 0)
(0.00100039 -1.89312e-07 0)
(0.00100046 -2.65982e-07 0)
(0.000999998 -2.90169e-08 0)
(0.00100003 -7.34138e-08 0)
(0.00100012 -1.12038e-07 0)
(0.00100023 -1.52771e-07 0)
(0.00100039 -2.03095e-07 0)
(0.00100059 -2.48658e-07 0)
(0.00100085 -2.57216e-07 0)
(0.00100111 -2.13945e-07 0)
(0.00100133 -1.34927e-07 0)
(0.0010015 -4.0309e-08 0)
(0.0010016 7.39448e-08 0)
(0.00100159 2.16683e-07 0)
(0.00100147 3.76972e-07 0)
(0.00100124 4.85516e-07 0)
(0.00100097 5.15896e-07 0)
(0.00100072 4.46149e-07 0)
(0.00100056 3.48635e-07 0)
(0.00100047 2.32098e-07 0)
(0.00100045 2.11514e-07 0)
(0.00100042 8.83219e-08 0)
(0.000999998 -5.51268e-08 0)
(0.00100003 -1.51458e-07 0)
(0.00100012 -2.42827e-07 0)
(0.00100024 -3.41459e-07 0)
(0.0010004 -4.57233e-07 0)
(0.00100062 -5.67098e-07 0)
(0.0010009 -6.19592e-07 0)
(0.00100119 -5.87289e-07 0)
(0.00100146 -4.87842e-07 0)
(0.00100167 -3.40362e-07 0)
(0.0010018 -1.37905e-07 0)
(0.0010018 1.14245e-07 0)
(0.00100165 3.8066e-07 0)
(0.00100136 5.32542e-07 0)
(0.001001 5.14785e-07 0)
(0.00100067 3.44994e-07 0)
(0.00100044 1.6308e-07 0)
(0.00100038 1.29244e-08 0)
(0.00100035 2.44486e-09 0)
(0.00100043 -1.05691e-07 0)
(0.000999999 -7.45543e-08 0)
(0.00100003 -2.10541e-07 0)
(0.00100012 -3.42076e-07 0)
(0.00100025 -4.87661e-07 0)
(0.00100042 -6.5909e-07 0)
(0.00100067 -8.23455e-07 0)
(0.001001 -9.06893e-07 0)
(0.00100136 -8.70528e-07 0)
(0.00100173 -7.14684e-07 0)
(0.00100205 -4.602e-07 0)
(0.00100225 -6.65269e-08 0)
(0.00100223 4.32213e-07 0)
(0.00100198 9.09587e-07 0)
(0.00100152 1.15375e-06 0)
(0.00100103 1.07299e-06 0)
(0.00100065 7.2877e-07 0)
(0.0010005 3.674e-07 0)
(0.00100045 1.24278e-07 0)
(0.00100052 1.07385e-07 0)
(0.00100048 1.38856e-08 0)
(0.000999999 -8.94744e-08 0)
(0.00100002 -2.62925e-07 0)
(0.00100011 -4.38914e-07 0)
(0.00100024 -6.44486e-07 0)
(0.00100043 -8.9445e-07 0)
(0.00100071 -1.15135e-06 0)
(0.00100109 -1.31647e-06 0)
(0.00100156 -1.31867e-06 0)
(0.00100208 -1.13185e-06 0)
(0.00100259 -7.62329e-07 0)
(0.00100293 -2.13863e-07 0)
(0.00100293 5.08241e-07 0)
(0.00100249 1.19435e-06 0)
(0.00100172 1.51949e-06 0)
(0.00100092 1.39009e-06 0)
(0.00100038 9.47814e-07 0)
(0.00100022 5.17943e-07 0)
(0.00100033 2.61111e-07 0)
(0.0010005 2.69859e-07 0)
(0.00100057 1.83181e-07 0)
(0.000999998 -9.95688e-08 0)
(0.00100001 -3.01291e-07 0)
(0.00100007 -5.21489e-07 0)
(0.00100019 -7.92602e-07 0)
(0.00100037 -1.14423e-06 0)
(0.00100067 -1.53553e-06 0)
(0.00100114 -1.87579e-06 0)
(0.00100179 -2.03397e-06 0)
(0.00100255 -1.86338e-06 0)
(0.00100329 -1.18073e-06 0)
(0.0010038 4.51974e-08 0)
(0.00100381 1.47298e-06 0)
(0.00100313 2.40233e-06 0)
(0.00100197 2.31942e-06 0)
(0.00100089 1.44714e-06 0)
(0.00100028 4.75859e-07 0)
(0.00100027 -4.63946e-08 0)
(0.00100048 -1.35696e-07 0)
(0.00100076 5.9234e-08 0)
(0.00100069 6.07305e-08 0)
(0.000999998 -9.75072e-08 0)
(0.000999986 -3.16073e-07 0)
(0.00100001 -5.62759e-07 0)
(0.00100008 -9.1235e-07 0)
(0.00100021 -1.36498e-06 0)
(0.00100048 -1.95526e-06 0)
(0.00100099 -2.50469e-06 0)
(0.00100188 -3.06797e-06 0)
(0.00100322 -3.19421e-06 0)
(0.00100475 -2.86489e-06 0)
(0.00100577 -7.0408e-07 0)
(0.00100539 2.49365e-06 0)
(0.00100354 4.79401e-06 0)
(0.00100117 4.74571e-06 0)
(0.00099968 3.04336e-06 0)
(0.000999465 1.24486e-06 0)
(0.00100011 3.67333e-07 0)
(0.00100067 2.72212e-07 0)
(0.00100105 5.59711e-07 0)
(0.0010008 5.4183e-07 0)
(0.000999993 -8.74749e-08 0)
(0.00099995 -2.73389e-07 0)
(0.000999898 -5.44033e-07 0)
(0.00099988 -9.15423e-07 0)
(0.00099988 -1.55447e-06 0)
(0.00100009 -2.353e-06 0)
(0.00100049 -3.41623e-06 0)
(0.00100151 -4.11126e-06 0)
(0.00100308 -4.34034e-06 0)
(0.00100604 -2.53664e-06 0)
(0.00100913 7.21358e-07 0)
(0.00100916 4.21822e-06 0)
(0.00100553 4.69515e-06 0)
(0.00100079 2.78696e-06 0)
(0.000998235 7.45208e-07 0)
(0.000998379 -2.90438e-07 0)
(0.000999915 -3.38647e-07 0)
(0.00100099 -5.62398e-08 0)
(0.00100146 2.02607e-07 0)
(0.001001 1.04994e-07 0)
(0.000999993 -4.53698e-08 0)
(0.000999896 -1.9221e-07 0)
(0.000999748 -3.63072e-07 0)
(0.000999539 -7.06754e-07 0)
(0.000999294 -1.32385e-06 0)
(0.000999208 -2.48904e-06 0)
(0.000999697 -4.69967e-06 0)
(0.00100138 -8.06267e-06 0)
(0.00100491 -1.32643e-05 0)
(0.00100959 -1.49021e-05 0)
(0.00101192 3.8179e-06 0)
(0.00100897 1.87001e-05 0)
(0.00100225 1.57734e-05 0)
(0.000997618 5.7534e-06 0)
(0.00099697 -3.07516e-07 0)
(0.000998569 -1.27103e-06 0)
(0.00100039 -1.30236e-07 0)
(0.00100112 6.01685e-07 0)
(0.0010012 6.36059e-07 0)
(0.00100069 2.37743e-07 0)
(0.000999802 -1.7994e-08 0)
(0.00100015 -6.00825e-08 0)
(0.000999208 -1.39854e-07 0)
(0.000999914 -2.36907e-07 0)
(0.000997531 -5.88886e-07 0)
(0.000998843 -1.14017e-06 0)
(0.000993334 -2.89664e-06 0)
(0.000997516 -5.60113e-06 0)
(0.000991663 -1.15452e-05 0)
(0.000915847 -1.27063e-05 0)
(0.000951496 2.72819e-07 0)
(0.00101025 1.46344e-05 0)
(0.000990982 1.3085e-05 0)
(0.000984032 5.15141e-06 0)
(0.000989675 2.02378e-07 0)
(0.000996393 -7.81065e-07 0)
(0.000999358 -1.24541e-07 0)
(0.000999531 2.3301e-07 0)
(0.000998776 1.55223e-07 0)
(0.000998658 -1.97057e-07 0)
(0.000999802 1.26593e-08 0)
(0.00100015 4.66883e-08 0)
(0.000999208 1.15444e-07 0)
(0.000999913 1.93417e-07 0)
(0.000997528 5.21003e-07 0)
(0.000998837 1.044e-06 0)
(0.000993326 2.77636e-06 0)
(0.000997505 5.45845e-06 0)
(0.000991648 1.13869e-05 0)
(0.000915827 1.25419e-05 0)
(0.000951459 -4.62551e-07 0)
(0.00101023 -1.48889e-05 0)
(0.00099098 -1.3386e-05 0)
(0.000984023 -5.52135e-06 0)
(0.000989654 -6.3608e-07 0)
(0.000996354 2.56587e-07 0)
(0.000999316 -4.66314e-07 0)
(0.000999482 -1.00217e-06 0)
(0.000998762 -1.01391e-06 0)
(0.000998608 -9.09413e-07 0)
(0.000999993 4.06196e-08 0)
(0.000999897 1.79508e-07 0)
(0.000999748 3.39047e-07 0)
(0.000999541 6.64141e-07 0)
(0.000999294 1.25763e-06 0)
(0.00099921 2.39416e-06 0)
(0.000999695 4.57906e-06 0)
(0.00100138 7.91331e-06 0)
(0.00100489 1.30922e-05 0)
(0.00100959 1.47037e-05 0)
(0.00101191 -4.04266e-06 0)
(0.00100893 -1.8957e-05 0)
(0.00100218 -1.60623e-05 0)
(0.000997532 -6.11144e-06 0)
(0.000996898 -7.69613e-08 0)
(0.00099851 7.91993e-07 0)
(0.00100029 -4.04892e-07 0)
(0.00100097 -1.28914e-06 0)
(0.00100101 -1.40463e-06 0)
(0.00100052 -1.27651e-06 0)
(0.000999994 8.38204e-08 0)
(0.000999949 2.62003e-07 0)
(0.000999898 5.20562e-07 0)
(0.000999878 8.73872e-07 0)
(0.000999874 1.48678e-06 0)
(0.00100008 2.25435e-06 0)
(0.00100047 3.28396e-06 0)
(0.00100147 3.95291e-06 0)
(0.00100303 4.15916e-06 0)
(0.00100596 2.3465e-06 0)
(0.00100905 -9.43121e-07 0)
(0.00100909 -4.47352e-06 0)
(0.00100545 -4.97575e-06 0)
(0.00100072 -3.11734e-06 0)
(0.000998139 -1.12568e-06 0)
(0.000998238 -2.25176e-07 0)
(0.000999738 -2.77129e-07 0)
(0.00100076 -7.10609e-07 0)
(0.00100119 -9.96496e-07 0)
(0.0010007 -1.10462e-06 0)
(0.000999998 9.52769e-08 0)
(0.000999985 3.06004e-07 0)
(0.00100001 5.40924e-07 0)
(0.00100007 8.72927e-07 0)
(0.0010002 1.30329e-06 0)
(0.00100046 1.86766e-06 0)
(0.00100097 2.39589e-06 0)
(0.00100185 2.94092e-06 0)
(0.00100318 3.05966e-06 0)
(0.0010047 2.70933e-06 0)
(0.00100571 5.4821e-07 0)
(0.0010053 -2.68197e-06 0)
(0.00100342 -5.02614e-06 0)
(0.00100102 -5.06046e-06 0)
(0.000999486 -3.4461e-06 0)
(0.00099922 -1.76591e-06 0)
(0.000999853 -9.63075e-07 0)
(0.00100037 -1.01852e-06 0)
(0.00100074 -1.33895e-06 0)
(0.00100038 -1.55005e-06 0)
(0.000999999 9.87355e-08 0)
(0.00100001 2.93552e-07 0)
(0.00100007 5.03157e-07 0)
(0.00100018 7.58806e-07 0)
(0.00100036 1.09102e-06 0)
(0.00100065 1.45941e-06 0)
(0.00100111 1.77852e-06 0)
(0.00100174 1.9142e-06 0)
(0.00100248 1.72271e-06 0)
(0.00100319 1.01288e-06 0)
(0.00100368 -2.26609e-07 0)
(0.00100367 -1.69686e-06 0)
(0.00100296 -2.65941e-06 0)
(0.00100176 -2.62567e-06 0)
(0.00100065 -1.77879e-06 0)
(0.000999994 -8.68664e-07 0)
(0.000999959 -3.69202e-07 0)
(0.00100009 -4.03471e-07 0)
(0.00100034 -6.46773e-07 0)
(0.00100014 -8.83383e-07 0)
(0.000999999 8.95703e-08 0)
(0.00100002 2.57254e-07 0)
(0.0010001 4.23732e-07 0)
(0.00100023 6.16856e-07 0)
(0.00100041 8.50198e-07 0)
(0.00100068 1.08764e-06 0)
(0.00100105 1.23284e-06 0)
(0.00100151 1.21927e-06 0)
(0.00100201 1.01951e-06 0)
(0.00100251 6.38976e-07 0)
(0.00100282 6.76346e-08 0)
(0.00100277 -6.88649e-07 0)
(0.00100232 -1.39753e-06 0)
(0.00100152 -1.76697e-06 0)
(0.00100069 -1.6705e-06 0)
(0.00100008 -1.3242e-06 0)
(0.000999889 -9.71174e-07 0)
(0.00099988 -8.93918e-07 0)
(0.00100001 -9.77885e-07 0)
(0.000999896 -1.14331e-06 0)
(0.000999998 7.4781e-08 0)
(0.00100003 2.05404e-07 0)
(0.00100012 3.28513e-07 0)
(0.00100024 4.63251e-07 0)
(0.00100041 6.21664e-07 0)
(0.00100065 7.71245e-07 0)
(0.00100096 8.43299e-07 0)
(0.0010013 7.98638e-07 0)
(0.00100165 6.43375e-07 0)
(0.00100193 3.88711e-07 0)
(0.00100208 -4.63806e-09 0)
(0.00100204 -5.04761e-07 0)
(0.00100176 -9.92507e-07 0)
(0.00100125 -1.28135e-06 0)
(0.0010007 -1.23658e-06 0)
(0.00100023 -9.74153e-07 0)
(0.001 -6.50182e-07 0)
(0.00099985 -5.19879e-07 0)
(0.000999877 -5.17029e-07 0)
(0.000999685 -6.28656e-07 0)
(0.000999997 5.64279e-08 0)
(0.00100003 1.46469e-07 0)
(0.00100012 2.25949e-07 0)
(0.00100023 3.0889e-07 0)
(0.00100039 4.05496e-07 0)
(0.0010006 4.90155e-07 0)
(0.00100086 5.14492e-07 0)
(0.00100114 4.51067e-07 0)
(0.00100139 3.21554e-07 0)
(0.00100159 1.40961e-07 0)
(0.00100169 -8.25397e-08 0)
(0.00100164 -3.66849e-07 0)
(0.00100144 -6.51853e-07 0)
(0.00100109 -8.45152e-07 0)
(0.00100069 -8.57014e-07 0)
(0.00100028 -7.57225e-07 0)
(0.00100003 -6.00087e-07 0)
(0.000999802 -5.68756e-07 0)
(0.000999756 -5.83134e-07 0)
(0.000999509 -7.07334e-07 0)
(0.000999996 3.95292e-08 0)
(0.00100002 1.03654e-07 0)
(0.0010001 1.62491e-07 0)
(0.00100021 2.24156e-07 0)
(0.00100035 2.9306e-07 0)
(0.00100054 3.55235e-07 0)
(0.00100077 3.80746e-07 0)
(0.001001 3.56494e-07 0)
(0.00100119 2.96197e-07 0)
(0.00100132 2.15242e-07 0)
(0.00100139 1.0441e-07 0)
(0.00100136 -3.6447e-08 0)
(0.00100121 -1.85245e-07 0)
(0.00100091 -2.98439e-07 0)
(0.00100058 -3.18403e-07 0)
(0.00100022 -2.75005e-07 0)
(0.000999981 -1.79183e-07 0)
(0.000999731 -1.52075e-07 0)
(0.000999648 -1.35125e-07 0)
(0.000999371 -2.14674e-07 0)
(0.000999996 -2.07781e-09 0)
(0.00100003 -9.11737e-09 0)
(0.00100011 -1.52714e-08 0)
(0.00100022 -1.93244e-08 0)
(0.00100035 -1.99729e-08 0)
(0.00100054 -2.12287e-08 0)
(0.00100076 -3.1022e-08 0)
(0.00100097 -5.49556e-08 0)
(0.00100114 -8.67436e-08 0)
(0.00100125 -1.23213e-07 0)
(0.0010013 -1.5872e-07 0)
(0.00100125 -2.17694e-07 0)
(0.00100112 -2.85085e-07 0)
(0.00100086 -3.43339e-07 0)
(0.00100058 -3.62155e-07 0)
(0.00100023 -3.65312e-07 0)
(0.00100002 -3.33553e-07 0)
(0.000999723 -3.46595e-07 0)
(0.000999651 -3.3336e-07 0)
(0.000999251 -4.15373e-07 0)
)
;

boundaryField
{
    sides
    {
        type            slip;
    }
    inlet
    {
        type            fixedValue;
        value           uniform (0.001 0 0);
    }
    outlet
    {
        type            zeroGradient;
    }
    frontAndBack
    {
        type            empty;
    }
}


// ************************************************************************* //
