/*--------------------------------*- C++ -*----------------------------------*\
  =========                 |
  \\      /  F ield         | OpenFOAM: The Open Source CFD Toolbox
   \\    /   O peration     | Website:  https://openfoam.org
    \\  /    A nd           | Version:  9
     \\/     M anipulation  |
\*---------------------------------------------------------------------------*/
FoamFile
{
    format      ascii;
    class       surfaceScalarField;
    location    "33";
    object      phi;
}
// * * * * * * * * * * * * * * * * * * * * * * * * * * * * * * * * * * * * * //

dimensions      [0 4 -1 0 0 0 0];

internalField   nonuniform List<scalar> 
760
(
5.00008e-06
-1.06951e-10
5.00034e-06
-3.00741e-10
5.00079e-06
-4.68504e-10
5.00144e-06
-6.35736e-10
5.00234e-06
-8.34383e-10
5.00347e-06
-1.02911e-09
5.00467e-06
-1.11246e-09
5.00576e-06
-1.01702e-09
5.00657e-06
-7.85677e-10
5.00706e-06
-5.0406e-10
5.00719e-06
-1.80903e-10
5.00686e-06
2.72273e-10
5.00603e-06
7.95259e-10
5.0049e-06
1.12534e-09
5.00372e-06
1.21673e-09
5.00285e-06
9.47122e-10
5.00231e-06
6.24303e-10
5.00224e-06
1.43696e-10
5.00217e-06
1.17495e-10
-3.67068e-10
5.0001e-06
-2.3451e-10
5.00039e-06
-6.17717e-10
5.00086e-06
-9.57649e-10
5.00155e-06
-1.30901e-09
5.00251e-06
-1.72713e-09
5.00371e-06
-2.14256e-09
5.00504e-06
-2.34328e-09
5.00628e-06
-2.19647e-09
5.00728e-06
-1.7538e-09
5.00789e-06
-1.12154e-09
5.00791e-06
-2.42974e-10
5.00745e-06
6.78185e-10
5.00649e-06
1.71943e-09
5.00517e-06
2.44368e-09
5.00391e-06
2.51306e-09
5.00308e-06
1.8427e-09
5.0027e-06
1.09154e-09
5.0025e-06
4.28335e-10
5.0023e-06
3.61622e-10
-9.44146e-11
5.00009e-06
-3.37425e-10
5.00037e-06
-9.20724e-10
5.00085e-06
-1.45096e-09
5.00158e-06
-2.01668e-09
5.00259e-06
-2.69141e-09
5.00391e-06
-3.37077e-09
5.0054e-06
-3.74425e-09
5.00687e-06
-3.59872e-09
5.00808e-06
-2.9363e-09
5.00887e-06
-1.9127e-09
5.00908e-06
-4.93775e-10
5.00846e-06
1.26721e-09
5.0071e-06
3.04543e-09
5.00538e-06
4.16104e-09
5.00374e-06
4.18661e-09
5.00262e-06
3.03639e-09
5.00213e-06
1.65989e-09
5.00211e-06
5.24036e-10
5.00212e-06
4.07791e-10
-1.68193e-10
5.00007e-06
-4.24725e-10
5.00035e-06
-1.21106e-09
5.00084e-06
-1.95227e-09
5.00162e-06
-2.77553e-09
5.00274e-06
-3.76874e-09
5.00425e-06
-4.80263e-09
5.00607e-06
-5.4894e-09
5.00807e-06
-5.53189e-09
5.00997e-06
-4.81253e-09
5.01121e-06
-3.14035e-09
5.01135e-06
-6.57762e-10
5.01018e-06
2.40724e-09
5.00787e-06
5.35179e-09
5.00539e-06
6.65373e-09
5.00376e-06
5.85138e-09
5.00308e-06
3.79239e-09
5.00296e-06
1.85683e-09
5.00288e-06
6.86525e-10
5.00265e-06
6.93054e-10
3.98241e-10
5.00005e-06
-4.9151e-10
5.00028e-06
-1.45194e-09
5.00075e-06
-2.42323e-09
5.00153e-06
-3.55196e-09
5.00277e-06
-4.96906e-09
5.00453e-06
-6.51259e-09
5.00681e-06
-7.71311e-09
5.00948e-06
-8.15789e-09
5.0125e-06
-7.7703e-09
5.01489e-06
-5.53478e-09
5.01501e-06
-7.40002e-10
5.01305e-06
4.36102e-09
5.0089e-06
9.50635e-09
5.00485e-06
1.07453e-08
5.00253e-06
8.2224e-09
5.00212e-06
4.28574e-09
5.00255e-06
1.50881e-09
5.00289e-06
4.16848e-10
5.00269e-06
9.41488e-10
6.94809e-10
5.00001e-06
-5.21441e-10
5.00014e-06
-1.59714e-09
5.00046e-06
-2.75738e-09
5.00113e-06
-4.22003e-09
5.00235e-06
-6.16473e-09
5.00448e-06
-8.61759e-09
5.00757e-06
-1.07852e-08
5.01169e-06
-1.22182e-08
5.0156e-06
-1.16442e-08
5.01915e-06
-9.03207e-09
5.02034e-06
-1.91411e-09
5.0162e-06
8.59147e-09
5.00972e-06
1.60139e-08
5.0045e-06
1.60085e-08
5.00256e-06
1.02482e-08
5.00297e-06
3.96294e-09
5.0038e-06
7.63121e-10
5.00398e-06
3.11502e-10
5.00346e-06
1.50766e-09
1.46632e-09
4.99994e-06
-4.96628e-10
4.99988e-06
-1.5545e-09
4.99997e-06
-2.86361e-09
5.00031e-06
-4.57502e-09
5.00119e-06
-7.04067e-09
5.00287e-06
-1.03141e-08
5.00675e-06
-1.46539e-08
5.01392e-06
-1.93523e-08
5.02379e-06
-2.14955e-08
5.03104e-06
-1.61721e-08
5.02891e-06
2.49421e-10
5.01692e-06
2.06174e-08
5.00442e-06
2.86287e-08
4.99903e-06
2.14802e-08
5.00097e-06
8.39574e-09
5.00333e-06
1.70624e-09
5.00428e-06
-9.25688e-11
5.00426e-06
4.10594e-10
5.00372e-06
2.10588e-09
1.70136e-09
4.99983e-06
-3.64851e-10
4.99949e-06
-1.25251e-09
4.99907e-06
-2.47035e-09
4.99883e-06
-4.35805e-09
4.99931e-06
-7.55605e-09
5.00031e-06
-1.13369e-08
5.00356e-06
-1.79171e-08
5.00975e-06
-2.55292e-08
5.02493e-06
-3.65973e-08
5.05625e-06
-4.74973e-08
5.05022e-06
5.50713e-09
5.02332e-06
4.75623e-08
4.99839e-06
5.36526e-08
4.99383e-06
2.61552e-08
4.99992e-06
2.41662e-09
5.00463e-06
-2.89038e-09
5.00547e-06
-8.25342e-10
5.00434e-06
1.62859e-09
5.0042e-06
2.31205e-09
9.61048e-10
4.99973e-06
-1.42244e-10
4.9991e-06
-6.58074e-10
4.99788e-06
-1.29083e-09
4.9961e-06
-2.62293e-09
4.99401e-06
-5.51892e-09
4.9937e-06
-1.10679e-08
4.99936e-06
-2.36109e-08
5.01706e-06
-4.32299e-08
5.05569e-06
-7.52125e-08
5.06693e-06
-5.8574e-08
5.04984e-06
2.35891e-08
4.99669e-06
1.00918e-07
4.98953e-06
6.09695e-08
4.99625e-06
1.95691e-08
5.00065e-06
-1.86076e-09
5.0035e-06
-5.62404e-09
5.00312e-06
-3.79972e-10
5.00245e-06
2.38706e-09
5.00323e-06
1.59548e-09
3.53065e-11
4.99983e-06
-1.27545e-11
4.99915e-06
-3.25753e-11
4.99787e-06
-5.97043e-11
4.99531e-06
-1.0945e-10
4.9899e-06
-1.74163e-10
4.97904e-06
-2.52678e-10
4.95572e-06
-3.23021e-10
4.91286e-06
-3.85719e-10
4.83814e-06
-4.43539e-10
4.78007e-06
-4.82895e-10
4.80443e-06
-5.73332e-10
4.90622e-06
-6.89795e-10
4.96802e-06
-7.04397e-10
4.98858e-06
-8.5039e-10
4.98795e-06
-1.10107e-09
4.98383e-06
-1.38888e-09
4.98517e-06
-1.56255e-09
4.98951e-06
-1.84977e-09
4.99316e-06
-1.98881e-09
-2.66592e-09
4.99983e-06
1.17534e-10
4.99916e-06
5.92153e-10
4.99787e-06
1.17625e-09
4.9953e-06
2.41251e-09
4.98988e-06
5.18646e-09
4.97901e-06
1.05777e-08
4.95567e-06
2.29855e-08
4.9128e-06
4.24538e-08
4.83803e-06
7.4352e-08
4.77986e-06
5.77933e-08
4.80438e-06
-2.50772e-08
4.90617e-06
-1.02273e-07
4.968e-06
-6.2362e-08
4.98843e-06
-2.11244e-08
4.98785e-06
-4.0142e-10
4.98351e-06
3.05998e-09
4.98503e-06
-2.97157e-09
4.9895e-06
-6.23179e-09
4.99303e-06
-5.46377e-09
-5.10255e-09
4.99974e-06
3.42921e-10
4.9991e-06
1.19184e-09
4.99788e-06
2.35368e-09
4.9961e-06
4.15093e-09
4.99403e-06
7.21766e-09
4.99371e-06
1.08628e-08
4.99935e-06
1.73117e-08
5.01699e-06
2.48035e-08
5.05557e-06
3.57765e-08
5.06718e-06
4.63714e-08
5.04968e-06
-7.12691e-09
4.99628e-06
-4.87984e-08
4.98909e-06
-5.49803e-08
4.99603e-06
-2.79397e-08
5.00057e-06
-4.82368e-09
5.00289e-06
8.47802e-10
5.00225e-06
-2.22403e-09
5.00152e-06
-5.40478e-09
5.00237e-06
-6.2524e-09
-6.09714e-09
4.99984e-06
4.80335e-10
4.9995e-06
1.50078e-09
4.99907e-06
2.75485e-09
4.99882e-06
4.38127e-09
4.99927e-06
6.74146e-09
5.00022e-06
9.88575e-09
5.00338e-06
1.41443e-08
5.00952e-06
1.86789e-08
5.02465e-06
2.07127e-08
5.05565e-06
1.53228e-08
5.04983e-06
-1.49868e-09
5.02297e-06
-2.1755e-08
4.99806e-06
-3.00057e-08
4.99346e-06
-2.32433e-08
4.99908e-06
-1.03281e-08
5.00398e-06
-3.93275e-09
5.00433e-06
-2.462e-09
5.00297e-06
-3.95541e-09
5.00284e-06
-6.05966e-09
-6.69918e-09
4.99995e-06
5.14126e-10
4.99988e-06
1.55511e-09
4.99996e-06
2.66354e-09
5.00027e-06
4.05246e-09
5.00111e-06
5.90287e-09
5.00276e-06
8.23384e-09
5.00663e-06
1.02741e-08
5.01376e-06
1.15843e-08
5.02361e-06
1.09249e-08
5.03077e-06
8.17869e-09
5.02854e-06
8.65389e-10
5.0164e-06
-9.62493e-09
5.00371e-06
-1.72408e-08
4.99807e-06
-1.7522e-08
4.99982e-06
-1.19831e-08
5.00212e-06
-6.12239e-09
5.00296e-06
-3.20473e-09
5.00273e-06
-3.6456e-09
5.00186e-06
-5.126e-09
-6.15371e-09
5.00001e-06
4.92895e-10
5.00013e-06
1.42424e-09
5.00045e-06
2.34661e-09
5.0011e-06
3.40534e-09
5.00228e-06
4.73422e-09
5.00436e-06
6.17104e-09
5.00739e-06
7.27062e-09
5.01139e-06
7.62344e-09
5.01518e-06
7.18848e-09
5.0186e-06
4.81166e-09
5.01971e-06
-2.04763e-10
5.01539e-06
-5.25807e-09
5.00874e-06
-1.05336e-08
5.00339e-06
-1.21053e-08
5.00125e-06
-9.7708e-09
5.00147e-06
-6.25408e-09
5.00209e-06
-3.73115e-09
5.00192e-06
-3.39777e-09
5.00101e-06
-4.16226e-09
-5.15451e-09
5.00005e-06
4.29206e-10
5.00028e-06
1.19431e-09
5.00073e-06
1.89434e-09
5.00149e-06
2.65594e-09
5.00269e-06
3.57171e-09
5.00438e-06
4.52164e-09
5.00657e-06
5.12728e-09
5.00915e-06
5.08995e-09
5.01212e-06
4.25978e-09
5.01453e-06
2.42288e-09
5.01423e-06
1.06417e-10
5.01222e-06
-3.22952e-09
5.00796e-06
-6.25303e-09
5.00376e-06
-7.86565e-09
5.00126e-06
-7.21605e-09
5.00055e-06
-5.47199e-09
5.00063e-06
-3.73423e-09
5.00049e-06
-3.18776e-09
4.99982e-06
-3.44441e-09
-4.33418e-09
5.00008e-06
3.37484e-10
5.00035e-06
9.0824e-10
5.00083e-06
1.40961e-09
5.00157e-06
1.92864e-09
5.00265e-06
2.54302e-09
5.0041e-06
3.14437e-09
5.00584e-06
3.45443e-09
5.00772e-06
3.2579e-09
5.00942e-06
2.58979e-09
5.01034e-06
1.5132e-09
5.01056e-06
-1.44123e-10
5.00921e-06
-1.89667e-09
5.00672e-06
-3.76683e-09
5.00391e-06
-5.04372e-09
5.00183e-06
-5.10105e-09
5.00072e-06
-4.30198e-09
5.00019e-06
-3.13406e-09
4.99976e-06
-2.69322e-09
4.99908e-06
-2.7203e-09
-3.35152e-09
5.00009e-06
2.30181e-10
5.00037e-06
6.03163e-10
5.00084e-06
9.25017e-10
5.00153e-06
1.24759e-09
5.00251e-06
1.6235e-09
5.00376e-06
1.97917e-09
5.00518e-06
2.12185e-09
5.00658e-06
1.91954e-09
5.00776e-06
1.43196e-09
5.0085e-06
7.66528e-10
5.00829e-06
2.32104e-11
5.00748e-06
-1.12594e-09
5.0059e-06
-2.22436e-09
5.00391e-06
-3.06099e-09
5.00205e-06
-3.20852e-09
5.00068e-06
-2.86205e-09
4.99979e-06
-2.1753e-09
4.99913e-06
-1.95961e-09
4.99836e-06
-1.90612e-09
-2.37703e-09
5.00007e-06
1.33613e-10
5.00033e-06
3.10396e-10
5.00077e-06
4.63503e-10
5.00141e-06
6.18458e-10
5.00229e-06
7.98204e-10
5.0034e-06
9.68167e-10
5.00458e-06
1.02818e-09
5.00566e-06
9.16339e-10
5.00645e-06
6.70334e-10
5.00687e-06
3.34914e-10
5.00694e-06
-8.6856e-11
5.00627e-06
-5.10174e-10
5.00501e-06
-1.00788e-09
5.00337e-06
-1.42046e-09
5.00171e-06
-1.5213e-09
5.00034e-06
-1.42549e-09
4.99936e-06
-1.11715e-09
4.99855e-06
-1.06798e-09
4.99771e-06
-1.01144e-09
-1.47592e-09
5.0001e-06
5.00038e-06
5.00081e-06
5.00144e-06
5.00229e-06
5.00335e-06
5.00448e-06
5.00546e-06
5.00617e-06
5.00649e-06
5.00635e-06
5.00578e-06
5.00473e-06
5.00331e-06
5.00183e-06
5.00048e-06
4.99944e-06
4.99846e-06
4.99751e-06
)
;

boundaryField
{
    sides
    {
        type            calculated;
        value           uniform 0;
    }
    inlet
    {
        type            calculated;
        value           nonuniform List<scalar> 
20
(
-5e-06
-5e-06
-5e-06
-5e-06
-5e-06
-5e-06
-5e-06
-5e-06
-5e-06
-5e-06
-5e-06
-5e-06
-5e-06
-5e-06
-5e-06
-5e-06
-5e-06
-5e-06
-5e-06
-5e-06
)
;
    }
    outlet
    {
        type            calculated;
        value           nonuniform List<scalar> 
20
(
5.00256e-06
5.00205e-06
5.00221e-06
5.0021e-06
5.00241e-06
5.00271e-06
5.0035e-06
5.00496e-06
5.00418e-06
4.99589e-06
4.99549e-06
5.00339e-06
5.00346e-06
5.00133e-06
5.00003e-06
4.99901e-06
4.99812e-06
4.99741e-06
4.99683e-06
4.99605e-06
)
;
    }
    frontAndBack
    {
        type            empty;
        value           nonuniform List<scalar> 0();
    }
}


// ************************************************************************* //
