/*--------------------------------*- C++ -*----------------------------------*\
  =========                 |
  \\      /  F ield         | OpenFOAM: The Open Source CFD Toolbox
   \\    /   O peration     | Website:  https://openfoam.org
    \\  /    A nd           | Version:  9
     \\/     M anipulation  |
\*---------------------------------------------------------------------------*/
FoamFile
{
    format      ascii;
    class       surfaceScalarField;
    location    "33";
    object      phi_0;
}
// * * * * * * * * * * * * * * * * * * * * * * * * * * * * * * * * * * * * * //

dimensions      [0 4 -1 0 0 0 0];

internalField   nonuniform List<scalar> 
760
(
5.00009e-06
-1.02399e-10
5.00035e-06
-2.90944e-10
5.00079e-06
-4.61467e-10
5.00143e-06
-6.36406e-10
5.00232e-06
-8.42527e-10
5.00345e-06
-1.03207e-09
5.00465e-06
-1.09831e-09
5.00574e-06
-9.93655e-10
5.00657e-06
-7.69598e-10
5.00709e-06
-5.01788e-10
5.00725e-06
-1.8649e-10
5.00692e-06
2.8426e-10
5.00607e-06
8.12085e-10
5.00492e-06
1.13582e-09
5.00373e-06
1.21188e-09
5.00286e-06
9.30329e-10
5.00232e-06
6.12866e-10
5.00224e-06
1.54831e-10
5.00216e-06
1.32041e-10
-3.66257e-10
5.00011e-06
-2.28293e-10
5.0004e-06
-6.02151e-10
5.00086e-06
-9.4491e-10
5.00154e-06
-1.31054e-09
5.00249e-06
-1.74251e-09
5.00369e-06
-2.14711e-09
5.00502e-06
-2.3183e-09
5.00627e-06
-2.14877e-09
5.00728e-06
-1.72139e-09
5.00791e-06
-1.11336e-09
5.00796e-06
-2.45888e-10
5.00751e-06
6.93115e-10
5.00653e-06
1.756e-09
5.00519e-06
2.46458e-09
5.00391e-06
2.50649e-09
5.00308e-06
1.81794e-09
5.0027e-06
1.07461e-09
5.0025e-06
4.42389e-10
5.0023e-06
3.82628e-10
-9.31796e-11
5.00009e-06
-3.31485e-10
5.00038e-06
-9.03018e-10
5.00085e-06
-1.43449e-09
5.00157e-06
-2.01873e-09
5.00258e-06
-2.71029e-09
5.00389e-06
-3.37875e-09
5.00539e-06
-3.70778e-09
5.00686e-06
-3.53034e-09
5.00808e-06
-2.88271e-09
5.00889e-06
-1.9027e-09
5.00913e-06
-4.88978e-10
5.00851e-06
1.29047e-09
5.00713e-06
3.09554e-09
5.0054e-06
4.19314e-09
5.00375e-06
4.17518e-09
5.00262e-06
2.99809e-09
5.00214e-06
1.63383e-09
5.00212e-06
5.49918e-10
5.00211e-06
4.42542e-10
-1.65505e-10
5.00008e-06
-4.19819e-10
5.00036e-06
-1.19353e-09
5.00085e-06
-1.93499e-09
5.00162e-06
-2.77734e-09
5.00273e-06
-3.7923e-09
5.00424e-06
-4.81127e-09
5.00606e-06
-5.44072e-09
5.00806e-06
-5.44589e-09
5.00997e-06
-4.74287e-09
5.01123e-06
-3.12084e-09
5.01138e-06
-6.58173e-10
5.01023e-06
2.44663e-09
5.0079e-06
5.40568e-09
5.0054e-06
6.68875e-09
5.00377e-06
5.83932e-09
5.00308e-06
3.74881e-09
5.00296e-06
1.8286e-09
5.00288e-06
7.09903e-10
5.00265e-06
7.28245e-10
4.01469e-10
5.00006e-06
-4.88186e-10
5.00029e-06
-1.43758e-09
5.00075e-06
-2.40684e-09
5.00154e-06
-3.55507e-09
5.00277e-06
-4.99414e-09
5.00453e-06
-6.51816e-09
5.00681e-06
-7.66018e-09
5.00949e-06
-8.05818e-09
5.0125e-06
-7.70065e-09
5.01491e-06
-5.49473e-09
5.01503e-06
-7.2898e-10
5.01307e-06
4.39744e-09
5.00892e-06
9.57818e-09
5.00486e-06
1.07786e-08
5.00254e-06
8.20221e-09
5.00212e-06
4.2344e-09
5.00256e-06
1.47517e-09
5.00289e-06
4.48596e-10
5.00269e-06
9.83285e-10
6.99366e-10
5.00001e-06
-5.20014e-10
5.00014e-06
-1.58699e-09
5.00047e-06
-2.74404e-09
5.00114e-06
-4.22433e-09
5.00236e-06
-6.18831e-09
5.00449e-06
-8.62119e-09
5.00758e-06
-1.07291e-08
5.01169e-06
-1.21304e-08
5.01563e-06
-1.1555e-08
5.01915e-06
-9.00933e-09
5.02037e-06
-1.8734e-09
5.01621e-06
8.61236e-09
5.00973e-06
1.60751e-08
5.00453e-06
1.605e-08
5.00257e-06
1.02334e-08
5.00297e-06
3.91424e-09
5.0038e-06
7.27827e-10
5.00398e-06
3.33939e-10
5.00347e-06
1.54393e-09
1.47109e-09
4.99995e-06
-4.96769e-10
4.99989e-06
-1.54875e-09
4.99998e-06
-2.85395e-09
5.00033e-06
-4.58038e-09
5.0012e-06
-7.06065e-09
5.00289e-06
-1.03155e-08
5.00676e-06
-1.46098e-08
5.01394e-06
-1.9267e-08
5.02381e-06
-2.14299e-08
5.03107e-06
-1.61521e-08
5.02888e-06
2.71551e-10
5.01694e-06
2.0684e-08
5.00443e-06
2.86806e-08
4.99904e-06
2.1507e-08
5.00099e-06
8.37962e-09
5.00333e-06
1.66477e-09
5.00428e-06
-1.26426e-10
5.00426e-06
4.22396e-10
5.00372e-06
2.13398e-09
1.70441e-09
4.99984e-06
-3.66158e-10
4.99951e-06
-1.24976e-09
4.99909e-06
-2.46496e-09
4.99885e-06
-4.36331e-09
4.99934e-06
-7.57186e-09
5.00033e-06
-1.13405e-08
5.00358e-06
-1.78857e-08
5.00978e-06
-2.54765e-08
5.02493e-06
-3.65409e-08
5.05628e-06
-4.74272e-08
5.05014e-06
7.04843e-09
5.0233e-06
4.75669e-08
4.9984e-06
5.37132e-08
4.99385e-06
2.61848e-08
4.99994e-06
2.40433e-09
5.00465e-06
-2.9216e-09
5.00547e-06
-8.51314e-10
5.00434e-06
1.63326e-09
5.00421e-06
2.32665e-09
9.63669e-10
4.99974e-06
-1.43703e-10
4.99911e-06
-6.57696e-10
4.9979e-06
-1.28905e-09
4.99613e-06
-2.6284e-09
4.99404e-06
-5.53118e-09
4.99372e-06
-1.10753e-08
4.99939e-06
-2.36018e-08
5.01709e-06
-4.31999e-08
5.05573e-06
-7.51866e-08
5.06691e-06
-5.85629e-08
5.04988e-06
2.35768e-08
4.99668e-06
1.00974e-07
4.98952e-06
6.09901e-08
4.99626e-06
1.95808e-08
5.00066e-06
-1.87016e-09
5.00351e-06
-5.64093e-09
5.00312e-06
-2.95136e-10
5.00246e-06
2.38613e-09
5.00325e-06
1.59876e-09
3.77349e-11
4.99983e-06
-1.34061e-11
4.99917e-06
-3.3552e-11
4.99789e-06
-6.27894e-11
4.99534e-06
-1.15481e-10
4.98993e-06
-1.84135e-10
4.97907e-06
-2.63513e-10
4.95575e-06
-3.32616e-10
4.9129e-06
-3.95694e-10
4.83816e-06
-4.35941e-10
4.78006e-06
-4.77628e-10
4.80444e-06
-5.78861e-10
4.90618e-06
-7.0145e-10
4.96801e-06
-6.97649e-10
4.98859e-06
-8.45143e-10
4.98796e-06
-1.10504e-09
4.98383e-06
-1.39978e-09
4.98518e-06
-1.56869e-09
4.98952e-06
-1.86028e-09
4.99318e-06
-1.99776e-09
-2.66372e-09
4.99983e-06
1.18287e-10
4.99917e-06
5.8995e-10
4.99789e-06
1.16808e-09
4.99533e-06
2.4043e-09
4.98991e-06
5.17946e-09
4.97903e-06
1.05633e-08
4.9557e-06
2.29572e-08
4.91285e-06
4.24162e-08
4.83806e-06
7.43201e-08
4.77984e-06
5.77657e-08
4.80439e-06
-2.49018e-08
4.90615e-06
-1.0232e-07
4.968e-06
-6.23823e-08
4.98843e-06
-2.114e-08
4.98786e-06
-4.03973e-10
4.98351e-06
3.06479e-09
4.98503e-06
-2.96973e-09
4.9895e-06
-6.24796e-09
4.99305e-06
-5.48181e-09
-5.10005e-09
4.99974e-06
3.44525e-10
4.99911e-06
1.1871e-09
4.9979e-06
2.33977e-09
4.99613e-06
4.14122e-09
4.99405e-06
7.21397e-09
4.99373e-06
1.08471e-08
4.99938e-06
1.72684e-08
5.01703e-06
2.47433e-08
5.0556e-06
3.5706e-08
5.06719e-06
4.6333e-08
5.04955e-06
-8.68454e-09
4.99629e-06
-4.87693e-08
4.98908e-06
-5.50467e-08
4.99604e-06
-2.79838e-08
5.00058e-06
-4.82449e-09
5.0029e-06
8.64954e-10
5.00225e-06
-2.20977e-09
5.00153e-06
-5.42449e-09
5.00239e-06
-6.28027e-09
-6.09478e-09
4.99984e-06
4.81007e-10
4.99951e-06
1.49194e-09
4.99909e-06
2.73617e-09
4.99883e-06
4.37116e-09
4.99929e-06
6.7435e-09
5.00024e-06
9.87079e-09
5.0034e-06
1.4088e-08
5.00955e-06
1.85939e-08
5.02466e-06
2.06512e-08
5.05565e-06
1.52681e-08
5.04994e-06
-1.35555e-09
5.02294e-06
-2.18342e-08
4.99807e-06
-3.0075e-08
4.99349e-06
-2.32842e-08
4.9991e-06
-1.03227e-08
5.00399e-06
-3.90241e-09
5.00433e-06
-2.44182e-09
5.00297e-06
-3.98229e-09
5.00285e-06
-6.09815e-09
-6.69765e-09
4.99995e-06
5.12039e-10
4.99989e-06
1.54096e-09
4.99997e-06
2.64197e-09
5.00029e-06
4.04377e-09
5.00112e-06
5.91076e-09
5.00277e-06
8.22322e-09
5.00665e-06
1.02101e-08
5.01378e-06
1.14918e-08
5.02361e-06
1.08532e-08
5.03082e-06
8.16782e-09
5.0285e-06
8.1817e-10
5.0164e-06
-9.66114e-09
5.00373e-06
-1.73018e-08
4.9981e-06
-1.75624e-08
4.99985e-06
-1.19737e-08
5.00212e-06
-6.08515e-09
5.00296e-06
-3.18293e-09
5.00274e-06
-3.68117e-09
5.00187e-06
-5.17192e-09
-6.15285e-09
5.00001e-06
4.87478e-10
5.00014e-06
1.40509e-09
5.00045e-06
2.32354e-09
5.0011e-06
3.3998e-09
5.00228e-06
4.74724e-09
5.00437e-06
6.16586e-09
5.0074e-06
7.20836e-09
5.0114e-06
7.52429e-09
5.0152e-06
7.11562e-09
5.01862e-06
4.79348e-09
5.01972e-06
-2.13082e-10
5.01541e-06
-5.28453e-09
5.00877e-06
-1.05947e-08
5.00342e-06
-1.21444e-08
5.00127e-06
-9.75989e-09
5.00148e-06
-6.21573e-09
5.00209e-06
-3.71114e-09
5.00192e-06
-3.43674e-09
5.00101e-06
-4.21002e-09
-5.15368e-09
5.00006e-06
4.21821e-10
5.00028e-06
1.17192e-09
5.00073e-06
1.87153e-09
5.00149e-06
2.65162e-09
5.00268e-06
3.58785e-09
5.00438e-06
4.52063e-09
5.00657e-06
5.07437e-09
5.00915e-06
4.99991e-09
5.01212e-06
4.19378e-09
5.01455e-06
2.40509e-09
5.01426e-06
9.70023e-11
5.01225e-06
-3.26634e-09
5.00799e-06
-6.31183e-09
5.00378e-06
-7.90131e-09
5.00127e-06
-7.20866e-09
5.00055e-06
-5.43926e-09
5.00063e-06
-3.71645e-09
5.00049e-06
-3.22341e-09
4.99981e-06
-3.48857e-09
-4.33307e-09
5.00009e-06
3.30789e-10
5.00036e-06
8.85774e-10
5.00083e-06
1.38797e-09
5.00157e-06
1.92451e-09
5.00264e-06
2.5577e-09
5.00409e-06
3.14841e-09
5.00583e-06
3.41373e-09
5.00772e-06
3.18842e-09
5.00943e-06
2.53638e-09
5.01036e-06
1.50308e-09
5.01061e-06
-1.41508e-10
5.00925e-06
-1.91959e-09
5.00675e-06
-3.81538e-09
5.00392e-06
-5.07936e-09
5.00184e-06
-5.09856e-09
5.00072e-06
-4.27524e-09
5.00019e-06
-3.11956e-09
4.99976e-06
-2.7245e-09
4.99908e-06
-2.75787e-09
-3.35074e-09
5.0001e-06
2.26224e-10
5.00038e-06
5.85243e-10
5.00084e-06
9.06648e-10
5.00153e-06
1.24371e-09
5.0025e-06
1.63392e-09
5.00375e-06
1.98325e-09
5.00516e-06
2.097e-09
5.00657e-06
1.87466e-09
5.00776e-06
1.40057e-09
5.00852e-06
7.6206e-10
5.00834e-06
2.93597e-11
5.00753e-06
-1.14619e-09
5.00594e-06
-2.26165e-09
5.00394e-06
-3.08506e-09
5.00206e-06
-3.20497e-09
5.00068e-06
-2.84303e-09
4.9998e-06
-2.16473e-09
4.99913e-06
-1.98184e-09
4.99836e-06
-1.93367e-09
-2.37717e-09
5.00008e-06
1.32476e-10
5.00034e-06
3.0068e-10
5.00077e-06
4.52506e-10
5.0014e-06
6.16067e-10
5.00228e-06
8.04384e-10
5.00338e-06
9.70433e-10
5.00456e-06
1.01663e-09
5.00564e-06
8.93868e-10
5.00645e-06
6.55266e-10
5.0069e-06
3.35419e-10
5.00699e-06
-8.31485e-11
5.00633e-06
-5.15717e-10
5.00505e-06
-1.02471e-09
5.00338e-06
-1.43264e-09
5.00172e-06
-1.52112e-09
5.00035e-06
-1.41643e-09
4.99938e-06
-1.11049e-09
4.99855e-06
-1.07776e-09
4.9977e-06
-1.02591e-09
-1.47659e-09
5.00011e-06
5.00038e-06
5.00081e-06
5.00143e-06
5.00228e-06
5.00333e-06
5.00445e-06
5.00544e-06
5.00616e-06
5.00651e-06
5.00641e-06
5.00584e-06
5.00478e-06
5.00333e-06
5.00184e-06
5.00049e-06
4.99946e-06
4.99846e-06
4.9975e-06
)
;

boundaryField
{
    sides
    {
        type            calculated;
        value           uniform 0;
    }
    inlet
    {
        type            calculated;
        value           nonuniform List<scalar> 
20
(
-5e-06
-5e-06
-5e-06
-5e-06
-5e-06
-5e-06
-5e-06
-5e-06
-5e-06
-5e-06
-5e-06
-5e-06
-5e-06
-5e-06
-5e-06
-5e-06
-5e-06
-5e-06
-5e-06
-5e-06
)
;
    }
    outlet
    {
        type            calculated;
        value           nonuniform List<scalar> 
20
(
5.00255e-06
5.00205e-06
5.0022e-06
5.00211e-06
5.00241e-06
5.00271e-06
5.00351e-06
5.00497e-06
5.0042e-06
4.99591e-06
4.99551e-06
5.00341e-06
5.00348e-06
5.00134e-06
5.00003e-06
4.99901e-06
4.99812e-06
4.9974e-06
4.99683e-06
4.99605e-06
)
;
    }
    frontAndBack
    {
        type            empty;
        value           nonuniform List<scalar> 0();
    }
}


// ************************************************************************* //
