/*--------------------------------*- C++ -*----------------------------------*\
  =========                 |
  \\      /  F ield         | OpenFOAM: The Open Source CFD Toolbox
   \\    /   O peration     | Website:  https://openfoam.org
    \\  /    A nd           | Version:  9
     \\/     M anipulation  |
\*---------------------------------------------------------------------------*/
FoamFile
{
    format      ascii;
    class       volVectorField;
    location    "33";
    object      U;
}
// * * * * * * * * * * * * * * * * * * * * * * * * * * * * * * * * * * * * * //

dimensions      [0 1 -1 0 0 0 0];

internalField   nonuniform List<vector> 
400
(
(0.0999948 -2.59185e-06 0)
(0.0999979 -6.91767e-06 0)
(0.100006 -1.07109e-05 0)
(0.100019 -1.43821e-05 0)
(0.100035 -1.83007e-05 0)
(0.100057 -2.20362e-05 0)
(0.100084 -2.42844e-05 0)
(0.10011 -2.4468e-05 0)
(0.100132 -2.29234e-05 0)
(0.100147 -2.08282e-05 0)
(0.100155 -1.78052e-05 0)
(0.100155 -1.39886e-05 0)
(0.100144 -1.05156e-05 0)
(0.100123 -9.14702e-06 0)
(0.100096 -9.53312e-06 0)
(0.100071 -1.36241e-05 0)
(0.100051 -1.62584e-05 0)
(0.100044 -2.05434e-05 0)
(0.100038 -1.89331e-05 0)
(0.100046 -2.65947e-05 0)
(0.0999953 -3.04353e-06 0)
(0.099999 -7.63864e-06 0)
(0.100008 -1.14337e-05 0)
(0.100021 -1.52674e-05 0)
(0.100039 -2.00726e-05 0)
(0.100062 -2.47879e-05 0)
(0.100091 -2.61331e-05 0)
(0.10012 -2.21394e-05 0)
(0.100145 -1.40044e-05 0)
(0.100163 -4.11565e-06 0)
(0.100174 7.50175e-06 0)
(0.100172 2.14115e-05 0)
(0.100158 3.71696e-05 0)
(0.100133 4.82532e-05 0)
(0.100103 5.17212e-05 0)
(0.100075 4.50565e-05 0)
(0.100057 3.51561e-05 0)
(0.100047 2.28731e-05 0)
(0.100046 2.07078e-05 0)
(0.100042 8.80897e-06 0)
(0.0999952 -5.63122e-06 0)
(0.0999985 -1.54855e-05 0)
(0.100008 -2.45869e-05 0)
(0.100022 -3.41225e-05 0)
(0.10004 -4.53842e-05 0)
(0.100065 -5.65842e-05 0)
(0.100096 -6.25862e-05 0)
(0.100129 -5.9908e-05 0)
(0.100159 -4.9646e-05 0)
(0.100183 -3.42167e-05 0)
(0.100196 -1.37948e-05 0)
(0.100195 1.10014e-05 0)
(0.100178 3.71599e-05 0)
(0.100146 5.2711e-05 0)
(0.100105 5.16601e-05 0)
(0.10007 3.51305e-05 0)
(0.100044 1.67452e-05 0)
(0.100036 9.45441e-07 0)
(0.100034 -2.84599e-07 0)
(0.100043 -1.0619e-05 0)
(0.0999946 -7.56126e-06 0)
(0.0999978 -2.14157e-05 0)
(0.100007 -3.45514e-05 0)
(0.100022 -4.87168e-05 0)
(0.100042 -6.54621e-05 0)
(0.10007 -8.21744e-05 0)
(0.100106 -9.15614e-05 0)
(0.100147 -8.8632e-05 0)
(0.100189 -7.27274e-05 0)
(0.100224 -4.62821e-05 0)
(0.100245 -6.7489e-06 0)
(0.100243 4.2533e-05 0)
(0.100214 8.98927e-05 0)
(0.100163 0.000114704 0)
(0.100108 0.000107555 0)
(0.100066 7.37365e-05 0)
(0.100049 3.73031e-05 0)
(0.100045 1.19492e-05 0)
(0.100052 1.00694e-05 0)
(0.100048 1.34326e-06 0)
(0.0999937 -9.02706e-06 0)
(0.0999962 -2.6613e-05 0)
(0.100005 -4.42317e-05 0)
(0.10002 -6.4394e-05 0)
(0.100041 -8.89412e-05 0)
(0.100072 -0.000114981 0)
(0.100115 -0.000132681 0)
(0.100168 -0.000133753 0)
(0.100226 -0.000114616 0)
(0.100282 -7.68434e-05 0)
(0.10032 -2.14337e-05 0)
(0.100319 5.00366e-05 0)
(0.10027 0.000118219 0)
(0.100185 0.000151288 0)
(0.100095 0.000139301 0)
(0.100035 9.57182e-05 0)
(0.100017 5.24223e-05 0)
(0.10003 2.54871e-05 0)
(0.100049 2.61123e-05 0)
(0.100057 1.82363e-05 0)
(0.0999924 -1.00007e-05 0)
(0.0999935 -3.03726e-05 0)
(0.1 -5.24469e-05 0)
(0.100013 -7.91752e-05 0)
(0.100033 -0.000113912 0)
(0.100067 -0.000153441 0)
(0.100119 -0.000188689 0)
(0.100191 -0.000205346 0)
(0.100276 -0.000187959 0)
(0.100358 -0.00011876 0)
(0.100415 4.08848e-06 0)
(0.100417 0.000146538 0)
(0.100341 0.000238811 0)
(0.100211 0.000231186 0)
(0.10009 0.000145073 0)
(0.100022 4.85742e-05 0)
(0.100022 -3.95703e-06 0)
(0.100046 -1.39596e-05 0)
(0.100077 5.24313e-06 0)
(0.100069 5.97891e-06 0)
(0.0999909 -9.75931e-06 0)
(0.0999894 -3.17594e-05 0)
(0.0999918 -5.6503e-05 0)
(0.0999988 -9.11224e-05 0)
(0.100013 -0.000136022 0)
(0.100043 -0.000195446 0)
(0.1001 -0.000251469 0)
(0.100199 -0.000308579 0)
(0.100348 -0.000321093 0)
(0.100519 -0.000287073 0)
(0.100633 -7.12215e-05 0)
(0.100592 0.000248771 0)
(0.100385 0.000478433 0)
(0.100121 0.000473861 0)
(0.0999535 0.000304613 0)
(0.09993 0.000125508 0)
(0.100003 3.74251e-05 0)
(0.100067 2.67648e-05 0)
(0.100107 5.52656e-05 0)
(0.100081 5.41028e-05 0)
(0.0999891 -8.72876e-06 0)
(0.099984 -2.74118e-05 0)
(0.0999778 -5.45466e-05 0)
(0.0999752 -9.14254e-05 0)
(0.0999752 -0.00015505 0)
(0.0999978 -0.000235197 0)
(0.100043 -0.000342367 0)
(0.100155 -0.000412607 0)
(0.100331 -0.000435407 0)
(0.100658 -0.00025464 0)
(0.101007 7.23117e-05 0)
(0.101014 0.000421366 0)
(0.100607 0.000468738 0)
(0.100076 0.000278171 0)
(0.0997891 7.47338e-05 0)
(0.0998063 -2.81343e-05 0)
(0.0999783 -3.31672e-05 0)
(0.1001 -5.80256e-06 0)
(0.100151 1.98388e-05 0)
(0.100102 1.04365e-05 0)
(0.0999882 -4.50464e-06 0)
(0.0999773 -1.92434e-05 0)
(0.0999601 -3.63718e-05 0)
(0.0999363 -7.05619e-05 0)
(0.0999086 -0.000132087 0)
(0.0998985 -0.000248749 0)
(0.0999523 -0.000470303 0)
(0.100139 -0.000807151 0)
(0.100532 -0.00132784 0)
(0.101059 -0.00149239 0)
(0.101323 0.000382334 0)
(0.100998 0.00187099 0)
(0.100243 0.00157671 0)
(0.0997237 0.000574659 0)
(0.0996517 -3.06148e-05 0)
(0.099832 -0.000126541 0)
(0.100036 -1.25033e-05 0)
(0.100119 6.01687e-05 0)
(0.100125 6.34472e-05 0)
(0.10007 2.37298e-05 0)
(0.0999692 -1.77594e-06 0)
(0.100003 -6.00148e-06 0)
(0.099905 -1.39703e-05 0)
(0.0999704 -2.35756e-05 0)
(0.0997241 -5.86585e-05 0)
(0.0998409 -0.000113806 0)
(0.0992717 -0.000289485 0)
(0.0996694 -0.000559797 0)
(0.0991133 -0.00115424 0)
(0.102 -0.00141533 0)
(0.10628 3.00802e-05 0)
(0.101267 0.00146672 0)
(0.0990093 0.00130703 0)
(0.0982267 0.000513958 0)
(0.098863 2.02747e-05 0)
(0.0996155 -7.78395e-05 0)
(0.099947 -1.22119e-05 0)
(0.099964 2.34128e-05 0)
(0.0998795 1.55786e-05 0)
(0.0998641 -1.97485e-05 0)
(0.0999699 1.25896e-06 0)
(0.100003 4.69665e-06 0)
(0.0999057 1.16544e-05 0)
(0.099971 1.94752e-05 0)
(0.0997245 5.22461e-05 0)
(0.099841 0.000104601 0)
(0.0992715 0.000277829 0)
(0.0996689 0.000545818 0)
(0.0991121 0.00113837 0)
(0.101998 0.00139698 0)
(0.106276 -5.22267e-05 0)
(0.101266 -0.0014921 0)
(0.0990094 -0.00133727 0)
(0.0982264 -0.000550962 0)
(0.0988614 -6.34562e-05 0)
(0.099612 2.57506e-05 0)
(0.0999428 -4.65677e-05 0)
(0.0999594 -9.99392e-05 0)
(0.0998784 -0.000101099 0)
(0.0998592 -9.09958e-05 0)
(0.0999904 4.03058e-06 0)
(0.0999794 1.80065e-05 0)
(0.0999622 3.41121e-05 0)
(0.0999386 6.65755e-05 0)
(0.0999108 0.000125838 0)
(0.099901 0.000239659 0)
(0.0999543 0.000458566 0)
(0.100141 0.000792376 0)
(0.100532 0.00131081 0)
(0.10106 0.00147244 0)
(0.101324 -0.000404132 0)
(0.100996 -0.00189712 0)
(0.100237 -0.00160554 0)
(0.0997162 -0.000610235 0)
(0.0996458 -7.65545e-06 0)
(0.0998275 7.8864e-05 0)
(0.100027 -4.06972e-05 0)
(0.100104 -0.000128633 0)
(0.100106 -0.000140025 0)
(0.100053 -0.000127699 0)
(0.0999927 8.35497e-06 0)
(0.0999876 2.63192e-05 0)
(0.0999813 5.23672e-05 0)
(0.0999786 8.7572e-05 0)
(0.0999782 0.000148663 0)
(0.0999999 0.000225715 0)
(0.100044 0.000329406 0)
(0.100154 0.000396837 0)
(0.100329 0.000417364 0)
(0.100654 0.000235619 0)
(0.101 -9.37468e-05 0)
(0.101008 -0.000446986 0)
(0.100602 -0.000496559 0)
(0.10007 -0.000310929 0)
(0.0997818 -0.000112576 0)
(0.099794 -2.31272e-05 0)
(0.0999621 -2.80906e-05 0)
(0.100078 -7.05609e-05 0)
(0.100124 -9.8965e-05 0)
(0.100071 -0.000110502 0)
(0.0999959 9.53729e-06 0)
(0.0999943 3.0823e-05 0)
(0.0999967 5.44936e-05 0)
(0.100003 8.74701e-05 0)
(0.100017 0.000130201 0)
(0.100046 0.000187007 0)
(0.100102 0.000240799 0)
(0.100201 0.000295941 0)
(0.100349 0.000307456 0)
(0.100519 0.000271617 0)
(0.100631 5.4623e-05 0)
(0.100588 -0.000267454 0)
(0.100377 -0.000501584 0)
(0.100108 -0.000505246 0)
(0.0999365 -0.000344694 0)
(0.0999076 -0.000177273 0)
(0.0999785 -9.67164e-05 0)
(0.100037 -0.00010116 0)
(0.100078 -0.000133021 0)
(0.100039 -0.000155031 0)
(0.0999988 9.94548e-06 0)
(0.0999997 2.96893e-05 0)
(0.100006 5.07669e-05 0)
(0.100019 7.60192e-05 0)
(0.100038 0.000108878 0)
(0.100071 0.000146091 0)
(0.100122 0.000179148 0)
(0.100192 0.000193424 0)
(0.100275 0.000173782 0)
(0.100353 0.00010162 0)
(0.100409 -2.23143e-05 0)
(0.100407 -0.000168919 0)
(0.100328 -0.000264649 0)
(0.100194 -0.000261775 0)
(0.10007 -0.000178089 0)
(0.0999968 -8.76195e-05 0)
(0.099993 -3.73576e-05 0)
(0.100009 -3.96386e-05 0)
(0.100036 -6.37387e-05 0)
(0.100015 -8.83484e-05 0)
(0.100001 9.08189e-06 0)
(0.100004 2.61497e-05 0)
(0.100013 4.28438e-05 0)
(0.100027 6.17839e-05 0)
(0.100047 8.47128e-05 0)
(0.100078 0.000108823 0)
(0.100119 0.00012447 0)
(0.10017 0.000123864 0)
(0.100226 0.000103379 0)
(0.100281 6.4328e-05 0)
(0.100316 6.84143e-06 0)
(0.10031 -6.82247e-05 0)
(0.100259 -0.000138607 0)
(0.10017 -0.000175967 0)
(0.100077 -0.000167218 0)
(0.10001 -0.000133128 0)
(0.0999879 -9.75038e-05 0)
(0.0999878 -8.86052e-05 0)
(0.100002 -9.68286e-05 0)
(0.0999904 -0.00011435 0)
(0.100004 7.61386e-06 0)
(0.100007 2.09959e-05 0)
(0.100016 3.33085e-05 0)
(0.100031 4.64182e-05 0)
(0.10005 6.18572e-05 0)
(0.100076 7.7092e-05 0)
(0.100111 8.52784e-05 0)
(0.10015 8.14883e-05 0)
(0.100188 6.55727e-05 0)
(0.100219 3.91858e-05 0)
(0.100236 -4.1208e-07 0)
(0.100231 -4.98726e-05 0)
(0.100199 -9.81488e-05 0)
(0.100142 -0.000127406 0)
(0.100081 -0.000123784 0)
(0.100029 -9.80383e-05 0)
(0.100003 -6.5331e-05 0)
(0.0999868 -5.12585e-05 0)
(0.0999893 -5.0851e-05 0)
(0.0999695 -6.28894e-05 0)
(0.100006 5.75838e-06 0)
(0.100009 1.5077e-05 0)
(0.100018 2.30128e-05 0)
(0.100032 3.09673e-05 0)
(0.100049 4.02845e-05 0)
(0.100073 4.89377e-05 0)
(0.100103 5.21376e-05 0)
(0.100135 4.62928e-05 0)
(0.100163 3.30115e-05 0)
(0.100184 1.42057e-05 0)
(0.100195 -8.32941e-06 0)
(0.100188 -3.62102e-05 0)
(0.100165 -6.43008e-05 0)
(0.100126 -8.39494e-05 0)
(0.100082 -8.57998e-05 0)
(0.100037 -7.61921e-05 0)
(0.100008 -6.02757e-05 0)
(0.0999834 -5.63728e-05 0)
(0.0999777 -5.76759e-05 0)
(0.0999519 -7.07401e-05 0)
(0.100007 4.00003e-06 0)
(0.10001 1.06423e-05 0)
(0.100019 1.65461e-05 0)
(0.100031 2.24853e-05 0)
(0.100047 2.91444e-05 0)
(0.100069 3.54691e-05 0)
(0.100095 3.84586e-05 0)
(0.100121 3.63381e-05 0)
(0.100142 3.00759e-05 0)
(0.100156 2.15344e-05 0)
(0.100162 1.03158e-05 0)
(0.100158 -3.48311e-06 0)
(0.100141 -1.80237e-05 0)
(0.100108 -2.94805e-05 0)
(0.100071 -3.18812e-05 0)
(0.100031 -2.78046e-05 0)
(0.100004 -1.81139e-05 0)
(0.0999769 -1.48898e-05 0)
(0.0999673 -1.30874e-05 0)
(0.0999382 -2.14636e-05 0)
(0.100009 -2.1242e-07 0)
(0.100012 -8.40402e-07 0)
(0.100021 -1.4278e-06 0)
(0.100033 -1.8912e-06 0)
(0.100049 -2.03477e-06 0)
(0.10007 -2.14198e-06 0)
(0.100095 -3.00801e-06 0)
(0.100119 -5.30259e-06 0)
(0.100138 -8.52711e-06 0)
(0.10015 -1.2308e-05 0)
(0.100155 -1.59173e-05 0)
(0.100148 -2.16332e-05 0)
(0.100132 -2.82841e-05 0)
(0.100104 -3.42132e-05 0)
(0.100072 -3.62454e-05 0)
(0.100034 -3.66511e-05 0)
(0.10001 -3.34352e-05 0)
(0.0999776 -3.45504e-05 0)
(0.0999687 -3.31875e-05 0)
(0.0999267 -4.15365e-05 0)
)
;

boundaryField
{
    sides
    {
        type            calculated;
        value           nonuniform List<vector> 
40
(
(0.100009 0 0)
(0.100012 0 0)
(0.100021 0 0)
(0.100033 0 0)
(0.100049 0 0)
(0.10007 0 0)
(0.100095 0 0)
(0.100119 0 0)
(0.100138 0 0)
(0.10015 0 0)
(0.100155 0 0)
(0.100148 0 0)
(0.100132 0 0)
(0.100104 0 0)
(0.100072 0 0)
(0.100034 0 0)
(0.10001 0 0)
(0.0999776 0 0)
(0.0999687 0 0)
(0.0999267 0 0)
(0.0999948 0 0)
(0.0999979 0 0)
(0.100006 0 0)
(0.100019 0 0)
(0.100035 0 0)
(0.100057 0 0)
(0.100084 0 0)
(0.10011 0 0)
(0.100132 0 0)
(0.100147 0 0)
(0.100155 0 0)
(0.100155 0 0)
(0.100144 0 0)
(0.100123 0 0)
(0.100096 0 0)
(0.100071 0 0)
(0.100051 0 0)
(0.100044 0 0)
(0.100038 0 0)
(0.100046 0 0)
)
;
    }
    inlet
    {
        type            calculated;
        value           nonuniform List<vector> 
20
(
(0.099995 0 0)
(0.0999954 0 0)
(0.0999953 0 0)
(0.0999947 0 0)
(0.0999937 0 0)
(0.0999924 0 0)
(0.099991 0 0)
(0.0999897 0 0)
(0.0999888 0 0)
(0.0999888 0 0)
(0.0999896 0 0)
(0.0999909 0 0)
(0.0999932 0 0)
(0.0999959 0 0)
(0.0999988 0 0)
(0.100002 0 0)
(0.100004 0 0)
(0.100006 0 0)
(0.100008 0 0)
(0.100009 0 0)
)
;
    }
    outlet
    {
        type            calculated;
        value           nonuniform List<vector> 
20
(
(0.100046 -2.65948e-05 0)
(0.100042 8.80896e-06 0)
(0.100043 -1.0619e-05 0)
(0.100048 1.34325e-06 0)
(0.100057 1.82362e-05 0)
(0.100069 5.97886e-06 0)
(0.10008 5.41021e-05 0)
(0.1001 1.04363e-05 0)
(0.100069 2.37294e-05 0)
(0.0998655 -1.97488e-05 0)
(0.0998604 -9.09969e-05 0)
(0.100052 -0.000127697 0)
(0.10007 -0.0001105 0)
(0.100038 -0.000155029 0)
(0.100014 -8.83473e-05 0)
(0.0999897 -0.000114349 0)
(0.0999686 -6.28889e-05 0)
(0.0999511 -7.07395e-05 0)
(0.0999373 -2.14635e-05 0)
(0.0999253 -4.1536e-05 0)
)
;
    }
    frontAndBack
    {
        type            empty;
    }
}


// ************************************************************************* //
