/*--------------------------------*- C++ -*----------------------------------*\
  =========                 |
  \\      /  F ield         | OpenFOAM: The Open Source CFD Toolbox
   \\    /   O peration     | Website:  https://openfoam.org
    \\  /    A nd           | Version:  9
     \\/     M anipulation  |
\*---------------------------------------------------------------------------*/
FoamFile
{
    format      ascii;
    class       volScalarField;
    location    "19";
    object      h_0;
}
// * * * * * * * * * * * * * * * * * * * * * * * * * * * * * * * * * * * * * //

dimensions      [0 1 0 0 0 0 0];

internalField   nonuniform List<scalar> 
400
(
0.0100009
0.010001
0.0100012
0.0100014
0.0100016
0.0100014
0.010001
0.0100004
0.00999972
0.00999909
0.00999864
0.00999847
0.00999859
0.00999886
0.00999917
0.00999946
0.0099997
0.00999988
0.00999995
0.00999999
0.0100009
0.0100009
0.0100011
0.0100013
0.0100014
0.0100012
0.0100008
0.0100001
0.00999946
0.00999884
0.00999844
0.00999829
0.00999842
0.00999872
0.00999905
0.00999936
0.00999961
0.00999978
0.00999987
0.00999994
0.0100009
0.0100009
0.0100011
0.0100012
0.0100012
0.010001
0.0100005
0.00999986
0.00999919
0.00999863
0.00999823
0.00999814
0.00999829
0.00999864
0.00999906
0.00999945
0.00999975
0.00999991
0.00999997
0.00999999
0.0100009
0.0100009
0.010001
0.0100011
0.010001
0.0100007
0.0100002
0.0099995
0.0099988
0.00999824
0.00999786
0.00999781
0.0099981
0.00999862
0.0099992
0.00999963
0.00999984
0.00999989
0.00999987
0.00999992
0.0100008
0.0100009
0.010001
0.010001
0.0100008
0.0100005
0.00999987
0.00999912
0.00999837
0.00999772
0.00999731
0.00999729
0.0099978
0.00999867
0.0099996
0.0100002
0.0100004
0.0100002
0.01
0.00999996
0.0100008
0.0100009
0.010001
0.0100009
0.0100007
0.0100003
0.00999961
0.00999876
0.0099979
0.00999712
0.00999663
0.00999663
0.00999743
0.0099988
0.0100001
0.0100007
0.0100007
0.0100003
0.00999993
0.0099999
0.0100008
0.0100009
0.010001
0.0100009
0.0100007
0.0100003
0.00999963
0.00999862
0.00999724
0.00999568
0.00999463
0.00999514
0.00999737
0.0100002
0.010002
0.0100021
0.0100012
0.0100003
0.00999979
0.00999986
0.0100007
0.0100009
0.010001
0.0100011
0.010001
0.0100006
0.0100001
0.00999911
0.00999749
0.00999472
0.00999116
0.00999105
0.00999542
0.0100012
0.0100044
0.0100041
0.010002
0.0100003
0.00999967
0.00999985
0.0100006
0.0100009
0.0100011
0.0100014
0.0100015
0.0100015
0.0100009
0.0099992
0.00999558
0.00999025
0.00998766
0.00999081
0.00999921
0.0100049
0.0100057
0.0100037
0.0100013
0.00999994
0.00999967
0.00999992
0.0100005
0.0100009
0.0100012
0.0100016
0.0100022
0.0100035
0.0100053
0.0100075
0.010005
0.00897905
0.00895338
0.00997699
0.0100101
0.0100192
0.0100119
0.0100037
0.00999999
0.00999956
0.01
0.0100002
0.0100005
0.0100008
0.0100011
0.0100016
0.0100022
0.0100034
0.0100053
0.0100075
0.010005
0.00897905
0.00895334
0.00997696
0.01001
0.0100192
0.0100119
0.0100037
0.00999994
0.00999954
0.01
0.0100002
0.0100004
0.0100007
0.010001
0.0100012
0.0100014
0.0100013
0.0100007
0.00999902
0.00999543
0.00999011
0.00998745
0.00999064
0.00999908
0.0100048
0.0100056
0.0100036
0.0100012
0.0099999
0.00999967
0.00999992
0.0100004
0.0100007
0.0100008
0.0100008
0.0100007
0.0100004
0.00999979
0.00999885
0.00999725
0.00999448
0.00999099
0.00999082
0.00999515
0.0100009
0.0100041
0.0100039
0.0100019
0.0100002
0.00999963
0.00999984
0.0100004
0.0100006
0.0100006
0.0100006
0.0100004
0.00999996
0.00999926
0.00999824
0.00999684
0.00999527
0.00999426
0.00999475
0.00999701
0.00999988
0.0100018
0.0100019
0.0100011
0.0100002
0.00999971
0.00999983
0.0100003
0.0100004
0.0100005
0.0100004
0.0100002
0.00999981
0.00999912
0.00999827
0.0099974
0.00999665
0.00999619
0.00999621
0.00999704
0.00999843
0.00999976
0.0100005
0.0100005
0.0100001
0.00999983
0.00999987
0.0100003
0.0100003
0.0100004
0.0100004
0.0100002
0.00999986
0.00999925
0.00999851
0.00999777
0.00999712
0.00999666
0.00999672
0.00999725
0.00999818
0.00999916
0.00999983
0.0100001
0.00999999
0.00999987
0.0099999
0.0100002
0.0100002
0.0100003
0.0100004
0.0100003
0.01
0.00999945
0.00999875
0.00999807
0.00999751
0.00999721
0.00999717
0.0099975
0.00999807
0.00999871
0.00999923
0.00999955
0.00999969
0.00999975
0.00999988
0.0100001
0.0100001
0.0100002
0.0100003
0.0100004
0.0100001
0.00999962
0.00999896
0.00999829
0.00999771
0.00999733
0.00999728
0.00999751
0.00999793
0.00999842
0.00999887
0.00999924
0.0099995
0.00999968
0.00999987
0.00999998
0.01
0.0100002
0.0100003
0.0100004
0.0100002
0.00999975
0.00999913
0.00999847
0.00999788
0.0099975
0.00999737
0.00999755
0.0099979
0.00999832
0.00999873
0.00999911
0.00999941
0.00999964
0.00999987
0.00999988
0.00999988
0.0100001
0.0100002
0.0100003
0.0100002
0.00999974
0.00999911
0.00999844
0.00999784
0.0099974
0.00999729
0.00999746
0.00999778
0.00999817
0.00999856
0.00999893
0.00999925
0.00999954
0.00999982
)
;

boundaryField
{
    sides
    {
        type            zeroGradient;
    }
    inlet
    {
        type            zeroGradient;
    }
    outlet
    {
        type            fixedValue;
        value           uniform 0.01;
    }
    frontAndBack
    {
        type            empty;
    }
}


// ************************************************************************* //
