/*--------------------------------*- C++ -*----------------------------------*\
  =========                 |
  \\      /  F ield         | OpenFOAM: The Open Source CFD Toolbox
   \\    /   O peration     | Website:  https://openfoam.org
    \\  /    A nd           | Version:  9
     \\/     M anipulation  |
\*---------------------------------------------------------------------------*/
FoamFile
{
    format      ascii;
    class       volScalarField;
    location    "19";
    object      hTotal;
}
// * * * * * * * * * * * * * * * * * * * * * * * * * * * * * * * * * * * * * //

dimensions      [0 1 0 0 0 0 0];

internalField   nonuniform List<scalar> 
400
(
0.0100008
0.010001
0.0100013
0.0100015
0.0100016
0.0100014
0.0100009
0.0100003
0.00999961
0.00999901
0.00999863
0.0099985
0.0099986
0.00999882
0.00999906
0.00999932
0.00999954
0.0099997
0.00999981
0.00999993
0.0100008
0.0100009
0.0100012
0.0100013
0.0100014
0.0100012
0.0100007
0.01
0.00999934
0.00999877
0.00999841
0.00999831
0.00999843
0.00999867
0.00999896
0.00999923
0.00999947
0.00999962
0.00999974
0.00999988
0.0100008
0.0100009
0.0100011
0.0100012
0.0100012
0.0100009
0.0100004
0.00999972
0.00999907
0.00999855
0.00999819
0.00999812
0.00999829
0.0099986
0.00999898
0.00999935
0.00999963
0.00999978
0.00999985
0.00999995
0.0100008
0.0100009
0.0100011
0.0100011
0.010001
0.0100006
0.01
0.00999935
0.00999869
0.00999815
0.00999782
0.00999777
0.00999807
0.00999857
0.00999912
0.00999952
0.00999971
0.00999975
0.00999976
0.00999987
0.0100009
0.010001
0.010001
0.0100009
0.0100007
0.0100003
0.00999972
0.00999897
0.00999828
0.00999766
0.0099973
0.00999726
0.00999775
0.00999862
0.00999953
0.0100001
0.0100003
0.0100001
0.00999991
0.00999991
0.0100009
0.010001
0.010001
0.0100009
0.0100006
0.0100002
0.00999948
0.00999867
0.00999782
0.00999708
0.00999655
0.00999658
0.00999737
0.00999872
0.00999997
0.0100006
0.0100005
0.0100001
0.00999977
0.00999984
0.0100009
0.010001
0.0100011
0.0100009
0.0100007
0.0100002
0.00999955
0.00999858
0.00999722
0.00999565
0.00999462
0.00999507
0.00999731
0.0100001
0.0100019
0.0100019
0.010001
0.01
0.00999959
0.00999978
0.0100009
0.0100011
0.0100012
0.0100011
0.0100009
0.0100006
0.01
0.00999912
0.00999752
0.00999473
0.00999119
0.00999101
0.00999535
0.0100012
0.0100043
0.0100038
0.0100016
0.00999993
0.00999941
0.00999976
0.0100008
0.0100011
0.0100013
0.0100014
0.0100015
0.0100015
0.0100009
0.00999926
0.00999566
0.00999029
0.00998759
0.00999074
0.00999915
0.0100048
0.0100055
0.0100033
0.0100008
0.00999952
0.00999938
0.00999981
0.0100008
0.0100011
0.0100014
0.0100017
0.0100023
0.0100035
0.0100054
0.0100076
0.0100051
0.00997912
0.00995334
0.00997696
0.01001
0.0100191
0.0100117
0.0100033
0.00999952
0.00999912
0.00999972
0.0100001
0.0100007
0.0100011
0.0100013
0.0100016
0.0100022
0.0100035
0.0100053
0.0100076
0.0100051
0.00997909
0.00995332
0.0099769
0.01001
0.010019
0.0100117
0.0100033
0.00999948
0.00999909
0.00999969
0.0100001
0.0100007
0.010001
0.0100012
0.0100013
0.0100014
0.0100013
0.0100008
0.00999909
0.0099955
0.00999011
0.00998753
0.00999056
0.00999901
0.0100047
0.0100054
0.0100032
0.0100007
0.00999948
0.00999938
0.00999981
0.0100006
0.0100008
0.0100009
0.0100009
0.0100007
0.0100003
0.00999976
0.00999886
0.00999726
0.00999451
0.00999082
0.00999078
0.00999508
0.0100008
0.010004
0.0100036
0.0100016
0.00999987
0.00999938
0.00999975
0.0100005
0.0100007
0.0100007
0.0100006
0.0100003
0.00999986
0.00999917
0.00999817
0.00999682
0.00999525
0.00999425
0.0099947
0.00999695
0.0099998
0.0100016
0.0100017
0.0100008
0.00999989
0.00999951
0.00999975
0.0100004
0.0100005
0.0100006
0.0100004
0.0100002
0.00999968
0.00999898
0.00999816
0.00999732
0.0099966
0.00999613
0.00999615
0.00999697
0.00999835
0.00999965
0.0100003
0.0100003
0.0099999
0.00999967
0.00999981
0.0100003
0.0100004
0.0100004
0.0100004
0.0100002
0.00999973
0.00999909
0.00999836
0.00999766
0.00999704
0.00999659
0.00999666
0.0099972
0.00999811
0.00999907
0.00999971
0.00999992
0.00999983
0.00999974
0.00999985
0.0100001
0.0100002
0.0100003
0.0100004
0.0100002
0.00999987
0.00999928
0.00999859
0.00999794
0.00999743
0.00999717
0.00999714
0.00999746
0.00999801
0.00999862
0.00999912
0.00999942
0.00999955
0.00999964
0.00999983
0.01
0.0100001
0.0100002
0.0100003
0.0100003
0.01
0.00999947
0.0099988
0.00999816
0.00999762
0.00999728
0.00999727
0.0099975
0.00999788
0.00999833
0.00999876
0.00999911
0.00999936
0.00999956
0.00999982
0.00999988
0.00999999
0.0100002
0.0100004
0.0100004
0.0100001
0.00999963
0.00999898
0.00999834
0.00999779
0.00999746
0.00999738
0.00999755
0.00999786
0.00999823
0.00999861
0.00999896
0.00999925
0.00999952
0.00999982
0.00999975
0.00999984
0.0100001
0.0100003
0.0100003
0.0100001
0.00999962
0.00999898
0.00999832
0.00999774
0.00999737
0.00999731
0.00999747
0.00999775
0.00999808
0.00999843
0.00999878
0.00999909
0.0099994
0.00999976
)
;

boundaryField
{
    sides
    {
        type            calculated;
        value           nonuniform List<scalar> 
40
(
0.00999975
0.00999984
0.0100001
0.0100003
0.0100003
0.0100001
0.00999962
0.00999898
0.00999832
0.00999774
0.00999737
0.00999731
0.00999747
0.00999775
0.00999808
0.00999843
0.00999878
0.00999909
0.0099994
0.00999976
0.0100008
0.010001
0.0100013
0.0100015
0.0100016
0.0100014
0.0100009
0.0100003
0.00999961
0.00999901
0.00999863
0.0099985
0.0099986
0.00999882
0.00999906
0.00999932
0.00999954
0.0099997
0.00999981
0.00999993
)
;
    }
    inlet
    {
        type            calculated;
        value           nonuniform List<scalar> 
20
(
0.0100008
0.0100008
0.0100008
0.0100008
0.0100009
0.0100009
0.0100009
0.0100009
0.0100008
0.0100008
0.0100007
0.0100007
0.0100006
0.0100005
0.0100004
0.0100003
0.0100001
0.01
0.00999988
0.00999975
)
;
    }
    outlet
    {
        type            calculated;
        value           uniform 0.01;
    }
    frontAndBack
    {
        type            empty;
    }
}


// ************************************************************************* //
