/*--------------------------------*- C++ -*----------------------------------*\
  =========                 |
  \\      /  F ield         | OpenFOAM: The Open Source CFD Toolbox
   \\    /   O peration     | Website:  https://openfoam.org
    \\  /    A nd           | Version:  9
     \\/     M anipulation  |
\*---------------------------------------------------------------------------*/
FoamFile
{
    format      ascii;
    class       volVectorField;
    location    "19";
    object      U;
}
// * * * * * * * * * * * * * * * * * * * * * * * * * * * * * * * * * * * * * //

dimensions      [0 1 -1 0 0 0 0];

internalField   nonuniform List<vector> 
400
(
(0.0999922 -2.26924e-07 0)
(0.0999866 -3.60342e-06 0)
(0.0999858 -1.19078e-05 0)
(0.100005 -1.79078e-05 0)
(0.100024 -2.02134e-05 0)
(0.100044 -2.11762e-05 0)
(0.100073 -2.16597e-05 0)
(0.100103 -2.1737e-05 0)
(0.100129 -2.21536e-05 0)
(0.100152 -2.23823e-05 0)
(0.100169 -1.89691e-05 0)
(0.100172 -1.33179e-05 0)
(0.100155 -8.36881e-06 0)
(0.100129 -8.08551e-06 0)
(0.100106 -1.13285e-05 0)
(0.100093 -1.6679e-05 0)
(0.100086 -1.78601e-05 0)
(0.100083 -1.96183e-05 0)
(0.100072 -1.73523e-05 0)
(0.100082 -2.6212e-05 0)
(0.099993 4.11783e-06 0)
(0.0999876 1.88129e-06 0)
(0.0999879 -1.3529e-05 0)
(0.100009 -2.37896e-05 0)
(0.100028 -2.49537e-05 0)
(0.100049 -2.25498e-05 0)
(0.100081 -1.87267e-05 0)
(0.100113 -1.39581e-05 0)
(0.100142 -1.04686e-05 0)
(0.100168 -6.86007e-06 0)
(0.100187 4.29996e-06 0)
(0.100187 2.48701e-05 0)
(0.100168 4.5707e-05 0)
(0.10014 5.17975e-05 0)
(0.100114 4.52117e-05 0)
(0.100096 3.3634e-05 0)
(0.100089 3.06884e-05 0)
(0.100085 3.24248e-05 0)
(0.100081 3.08636e-05 0)
(0.100081 9.47881e-06 0)
(0.0999926 6.0283e-06 0)
(0.0999868 -5.13304e-07 0)
(0.0999889 -2.69608e-05 0)
(0.100009 -4.59859e-05 0)
(0.100028 -5.15164e-05 0)
(0.100052 -5.15654e-05 0)
(0.100087 -4.93224e-05 0)
(0.100125 -4.55901e-05 0)
(0.100158 -4.29118e-05 0)
(0.100187 -3.73408e-05 0)
(0.100206 -1.77964e-05 0)
(0.100209 1.76599e-05 0)
(0.100188 5.12128e-05 0)
(0.100152 5.74319e-05 0)
(0.100117 4.01273e-05 0)
(0.100092 1.61515e-05 0)
(0.100079 7.43793e-06 0)
(0.100075 1.11173e-05 0)
(0.100069 1.26564e-05 0)
(0.100079 -9.02517e-06 0)
(0.0999921 7.89993e-06 0)
(0.0999856 -2.03621e-06 0)
(0.0999898 -3.71816e-05 0)
(0.100009 -6.27082e-05 0)
(0.10003 -7.15456e-05 0)
(0.100057 -7.38347e-05 0)
(0.100098 -7.29718e-05 0)
(0.100144 -6.89092e-05 0)
(0.100188 -6.3038e-05 0)
(0.100227 -4.96286e-05 0)
(0.100253 -1.04445e-05 0)
(0.100252 5.11043e-05 0)
(0.100221 0.000106392 0)
(0.10017 0.000119387 0)
(0.100121 9.07998e-05 0)
(0.100086 4.6609e-05 0)
(0.100077 2.32679e-05 0)
(0.10008 2.33049e-05 0)
(0.100093 2.44787e-05 0)
(0.100092 1.61219e-06 0)
(0.0999914 9.40768e-06 0)
(0.099984 -4.2822e-06 0)
(0.0999901 -4.61062e-05 0)
(0.100008 -7.84633e-05 0)
(0.100028 -9.42672e-05 0)
(0.10006 -0.000104331 0)
(0.100108 -0.000110389 0)
(0.100167 -0.000110295 0)
(0.100226 -0.000102506 0)
(0.100284 -7.85209e-05 0)
(0.100324 -2.56626e-05 0)
(0.100323 5.95214e-05 0)
(0.100275 0.000136593 0)
(0.100192 0.000156059 0)
(0.100106 0.000119999 0)
(0.100055 6.40239e-05 0)
(0.100048 3.46868e-05 0)
(0.100067 3.74869e-05 0)
(0.100089 4.29194e-05 0)
(0.100101 1.9693e-05 0)
(0.0999905 9.76266e-06 0)
(0.0999818 -7.17398e-06 0)
(0.0999882 -5.34795e-05 0)
(0.100002 -9.21212e-05 0)
(0.10002 -0.000117774 0)
(0.100055 -0.000140898 0)
(0.100114 -0.000163948 0)
(0.10019 -0.000179576 0)
(0.100277 -0.000174368 0)
(0.100357 -0.000119724 0)
(0.100413 1.17866e-06 0)
(0.100416 0.000158286 0)
(0.100344 0.000259072 0)
(0.100218 0.000234278 0)
(0.100102 0.000121695 0)
(0.100039 1.35342e-05 0)
(0.100046 -2.67593e-05 0)
(0.100082 -9.82201e-06 0)
(0.100126 1.67854e-05 0)
(0.100123 6.9123e-06 0)
(0.0999896 9.23798e-06 0)
(0.0999789 -1.0078e-05 0)
(0.099983 -5.68808e-05 0)
(0.0999895 -0.00010217 0)
(0.100001 -0.000138601 0)
(0.100032 -0.00018259 0)
(0.100095 -0.000227435 0)
(0.100199 -0.000283632 0)
(0.100348 -0.00030676 0)
(0.100517 -0.000286287 0)
(0.100629 -7.37798e-05 0)
(0.100588 0.000256286 0)
(0.100382 0.00049386 0)
(0.100122 0.000475282 0)
(0.0999618 0.000279133 0)
(0.0999449 8.56584e-05 0)
(0.100025 1.32358e-05 0)
(0.100103 3.18685e-05 0)
(0.100162 6.7439e-05 0)
(0.100142 5.54768e-05 0)
(0.0999886 7.06713e-06 0)
(0.0999747 -9.85433e-06 0)
(0.0999716 -5.47452e-05 0)
(0.0999667 -0.000100226 0)
(0.0999632 -0.000157107 0)
(0.0999882 -0.000224283 0)
(0.100039 -0.000321646 0)
(0.100156 -0.000390747 0)
(0.100332 -0.000421681 0)
(0.100653 -0.000252052 0)
(0.100995 7.22872e-05 0)
(0.101003 0.00042934 0)
(0.100604 0.000479948 0)
(0.100076 0.0002775 0)
(0.099792 5.41232e-05 0)
(0.0998189 -6.3127e-05 0)
(0.100003 -5.59531e-05 0)
(0.10014 -4.65074e-06 0)
(0.10021 2.94687e-05 0)
(0.10017 1.37567e-05 0)
(0.0999883 6.07432e-06 0)
(0.0999694 -8.41106e-06 0)
(0.0999563 -3.76322e-05 0)
(0.0999286 -7.73942e-05 0)
(0.0998969 -0.000134134 0)
(0.0998902 -0.000241532 0)
(0.09995 -0.000456295 0)
(0.100141 -0.000792664 0)
(0.100532 -0.00131819 0)
(0.101054 -0.00148951 0)
(0.101312 0.000383405 0)
(0.100983 0.00187727 0)
(0.100232 0.00158526 0)
(0.0997204 0.000573546 0)
(0.0996527 -4.46245e-05 0)
(0.0998408 -0.000149425 0)
(0.100058 -2.88724e-05 0)
(0.100159 5.90091e-05 0)
(0.10019 6.96332e-05 0)
(0.100146 2.79013e-05 0)
(0.0999694 1.86355e-06 0)
(0.099995 -3.88657e-06 0)
(0.0999023 -1.74751e-05 0)
(0.0999631 -2.93142e-05 0)
(0.0997122 -6.21271e-05 0)
(0.0998316 -0.000112403 0)
(0.0992689 -0.00028446 0)
(0.0996707 -0.000554309 0)
(0.0991122 -0.00114975 0)
(0.101993 -0.0014118 0)
(0.106265 2.97782e-05 0)
(0.101252 0.00146517 0)
(0.0989998 0.00130763 0)
(0.0982248 0.000511336 0)
(0.0988659 1.02928e-05 0)
(0.0996211 -9.0655e-05 0)
(0.0999645 -1.91035e-05 0)
(0.100006 2.34709e-05 0)
(0.0999481 2.19054e-05 0)
(0.0999413 -1.20691e-05 0)
(0.0999699 -3.18994e-06 0)
(0.0999955 -2.67627e-06 0)
(0.0999027 5.83097e-06 0)
(0.0999632 1.45537e-05 0)
(0.0997123 4.68062e-05 0)
(0.0998318 9.85492e-05 0)
(0.0992689 0.000272335 0)
(0.0996703 0.000543147 0)
(0.0991108 0.00113747 0)
(0.101991 0.00139667 0)
(0.106262 -5.00312e-05 0)
(0.10125 -0.00149162 0)
(0.0989997 -0.00134285 0)
(0.0982246 -0.000558253 0)
(0.0988648 -6.75941e-05 0)
(0.0996191 2.36031e-05 0)
(0.0999611 -4.77101e-05 0)
(0.100001 -0.000104067 0)
(0.099946 -9.73791e-05 0)
(0.0999363 -8.15841e-05 0)
(0.0999897 -7.73798e-06 0)
(0.0999707 1.87025e-06 0)
(0.0999575 2.61589e-05 0)
(0.0999296 6.28234e-05 0)
(0.0998979 0.000119025 0)
(0.0998915 0.000227443 0)
(0.0999508 0.000443631 0)
(0.100142 0.000780348 0)
(0.100532 0.00130521 0)
(0.101055 0.00147377 0)
(0.101315 -0.00040242 0)
(0.100984 -0.00190322 0)
(0.100228 -0.0016185 0)
(0.0997138 -0.00061855 0)
(0.0996485 -3.68401e-06 0)
(0.0998376 8.97396e-05 0)
(0.100048 -3.29883e-05 0)
(0.100143 -0.000132031 0)
(0.100171 -0.000138787 0)
(0.100128 -0.000117346 0)
(0.099991 -9.0857e-06 0)
(0.0999772 3.11191e-06 0)
(0.0999736 4.34439e-05 0)
(0.099968 8.59755e-05 0)
(0.0999643 0.000141781 0)
(0.099989 0.000209682 0)
(0.10004 0.000308117 0)
(0.100155 0.000377957 0)
(0.10033 0.000408527 0)
(0.100649 0.000237403 0)
(0.100989 -9.09603e-05 0)
(0.100998 -0.000454665 0)
(0.1006 -0.000512131 0)
(0.100075 -0.000318543 0)
(0.0997892 -0.000103455 0)
(0.099806 -4.27174e-06 0)
(0.0999842 -1.57374e-05 0)
(0.100116 -7.66249e-05 0)
(0.100182 -0.000100839 0)
(0.100139 -9.946e-05 0)
(0.0999931 -1.16132e-05 0)
(0.0999822 2.88969e-06 0)
(0.0999858 4.59555e-05 0)
(0.0999911 8.88481e-05 0)
(0.100002 0.000124638 0)
(0.100034 0.000169353 0)
(0.100097 0.000215921 0)
(0.1002 0.000272859 0)
(0.100349 0.000296582 0)
(0.100518 0.000274347 0)
(0.10063 5.97222e-05 0)
(0.100586 -0.000274406 0)
(0.100378 -0.000520374 0)
(0.100112 -0.00051525 0)
(0.0999452 -0.000333528 0)
(0.0999216 -0.00015512 0)
(0.1 -8.25641e-05 0)
(0.100074 -0.000110675 0)
(0.100131 -0.00013798 0)
(0.100101 -0.00014362 0)
(0.099995 -1.26027e-05 0)
(0.0999866 -1.67038e-07 0)
(0.0999923 4.32922e-05 0)
(0.100005 8.01714e-05 0)
(0.100023 0.000105507 0)
(0.100057 0.00012949 0)
(0.100115 0.000153946 0)
(0.100191 0.00016993 0)
(0.100277 0.000163581 0)
(0.100355 0.000106337 0)
(0.10041 -1.7641e-05 0)
(0.100409 -0.000181963 0)
(0.100332 -0.000289263 0)
(0.100202 -0.000273597 0)
(0.100082 -0.000166124 0)
(0.100014 -6.42046e-05 0)
(0.100018 -2.24891e-05 0)
(0.100045 -4.98394e-05 0)
(0.100082 -7.11529e-05 0)
(0.100069 -7.80285e-05 0)
(0.0999971 -1.24457e-05 0)
(0.0999904 -2.73867e-06 0)
(0.0999957 3.6946e-05 0)
(0.100012 6.81162e-05 0)
(0.100031 8.37406e-05 0)
(0.100063 9.45824e-05 0)
(0.100111 0.00010165 0)
(0.100168 0.000102272 0)
(0.100226 9.40203e-05 0)
(0.100284 6.87523e-05 0)
(0.100322 1.18646e-05 0)
(0.100318 -7.79279e-05 0)
(0.100269 -0.000159756 0)
(0.10018 -0.000186895 0)
(0.10009 -0.000156574 0)
(0.100029 -0.000111545 0)
(0.100016 -8.57243e-05 0)
(0.100022 -0.000102879 0)
(0.100042 -0.000106888 0)
(0.100038 -0.000105236 0)
(0.0999991 -1.08614e-05 0)
(0.0999936 -4.16426e-06 0)
(0.0999971 2.91243e-05 0)
(0.100015 5.35806e-05 0)
(0.100034 6.26644e-05 0)
(0.100061 6.62851e-05 0)
(0.100101 6.68182e-05 0)
(0.100146 6.36165e-05 0)
(0.100189 5.82777e-05 0)
(0.100225 4.47543e-05 0)
(0.100248 5.5335e-06 0)
(0.100245 -5.76744e-05 0)
(0.100209 -0.000117227 0)
(0.100152 -0.000137162 0)
(0.100096 -0.000113702 0)
(0.10005 -7.89285e-05 0)
(0.100032 -5.61153e-05 0)
(0.100022 -6.52231e-05 0)
(0.100026 -6.03831e-05 0)
(0.100013 -5.46067e-05 0)
(0.100001 -8.24136e-06 0)
(0.0999963 -4.57321e-06 0)
(0.0999973 2.07681e-05 0)
(0.100016 3.82793e-05 0)
(0.100034 4.24173e-05 0)
(0.100058 4.16734e-05 0)
(0.100092 3.88673e-05 0)
(0.100128 3.3606e-05 0)
(0.100161 2.88305e-05 0)
(0.100191 1.99997e-05 0)
(0.100209 -2.90137e-06 0)
(0.100205 -4.25587e-05 0)
(0.100181 -7.92877e-05 0)
(0.100138 -9.16586e-05 0)
(0.100096 -7.87126e-05 0)
(0.100058 -6.23536e-05 0)
(0.100039 -5.36734e-05 0)
(0.100019 -6.74225e-05 0)
(0.100011 -6.65975e-05 0)
(0.0999923 -6.58813e-05 0)
(0.100002 -4.86026e-06 0)
(0.099998 -1.66559e-06 0)
(0.0999975 1.51132e-05 0)
(0.100015 2.73035e-05 0)
(0.100032 3.0947e-05 0)
(0.100053 3.13011e-05 0)
(0.100083 3.03372e-05 0)
(0.100114 2.84536e-05 0)
(0.100141 2.76356e-05 0)
(0.100163 2.54219e-05 0)
(0.10018 1.44325e-05 0)
(0.100179 -6.38945e-06 0)
(0.100156 -2.71495e-05 0)
(0.100118 -3.47529e-05 0)
(0.100085 -2.77464e-05 0)
(0.100054 -1.92548e-05 0)
(0.100037 -1.4639e-05 0)
(0.100012 -2.33982e-05 0)
(0.0999984 -1.98713e-05 0)
(0.099976 -1.87737e-05 0)
(0.100004 -3.31158e-06 0)
(0.100001 -4.79624e-06 0)
(0.0999986 -2.28878e-06 0)
(0.100017 -7.93647e-07 0)
(0.100035 -1.5882e-06 0)
(0.100054 -3.38154e-06 0)
(0.100083 -5.63807e-06 0)
(0.100111 -8.06217e-06 0)
(0.100136 -9.91574e-06 0)
(0.100158 -1.16939e-05 0)
(0.100174 -1.4722e-05 0)
(0.10017 -2.35212e-05 0)
(0.100149 -3.19917e-05 0)
(0.100114 -3.56463e-05 0)
(0.100086 -3.40129e-05 0)
(0.100057 -3.31013e-05 0)
(0.100042 -3.20338e-05 0)
(0.100014 -3.75145e-05 0)
(0.1 -3.53215e-05 0)
(0.0999644 -3.99187e-05 0)
)
;

boundaryField
{
    sides
    {
        type            calculated;
        value           nonuniform List<vector> 
40
(
(0.100004 0 0)
(0.100001 0 0)
(0.0999986 0 0)
(0.100017 0 0)
(0.100035 0 0)
(0.100054 0 0)
(0.100083 0 0)
(0.100111 0 0)
(0.100136 0 0)
(0.100158 0 0)
(0.100174 0 0)
(0.10017 0 0)
(0.100149 0 0)
(0.100114 0 0)
(0.100086 0 0)
(0.100057 0 0)
(0.100042 0 0)
(0.100014 0 0)
(0.1 0 0)
(0.0999644 0 0)
(0.0999922 0 0)
(0.0999866 0 0)
(0.0999858 0 0)
(0.100005 0 0)
(0.100024 0 0)
(0.100044 0 0)
(0.100073 0 0)
(0.100103 0 0)
(0.100129 0 0)
(0.100152 0 0)
(0.100169 0 0)
(0.100172 0 0)
(0.100155 0 0)
(0.100129 0 0)
(0.100106 0 0)
(0.100093 0 0)
(0.100086 0 0)
(0.100083 0 0)
(0.100072 0 0)
(0.100082 0 0)
)
;
    }
    inlet
    {
        type            calculated;
        value           nonuniform List<vector> 
20
(
(0.0999915 0 0)
(0.0999921 0 0)
(0.0999919 0 0)
(0.0999917 0 0)
(0.0999913 0 0)
(0.0999911 0 0)
(0.0999911 0 0)
(0.0999912 0 0)
(0.0999917 0 0)
(0.0999923 0 0)
(0.0999929 0 0)
(0.0999933 0 0)
(0.0999939 0 0)
(0.0999947 0 0)
(0.0999958 0 0)
(0.0999971 0 0)
(0.0999985 0 0)
(0.1 0 0)
(0.100001 0 0)
(0.100003 0 0)
)
;
    }
    outlet
    {
        type            calculated;
        value           nonuniform List<vector> 
20
(
(0.100081 -2.62118e-05 0)
(0.100079 9.4787e-06 0)
(0.100079 -9.02513e-06 0)
(0.100091 1.61217e-06 0)
(0.1001 1.96928e-05 0)
(0.100121 6.91218e-06 0)
(0.10014 5.54756e-05 0)
(0.100167 1.37563e-05 0)
(0.100144 2.79008e-05 0)
(0.0999421 -1.20692e-05 0)
(0.0999369 -8.15846e-05 0)
(0.100126 -0.000117344 0)
(0.100137 -9.94575e-05 0)
(0.100098 -0.000143617 0)
(0.100067 -7.8027e-05 0)
(0.100037 -0.000105234 0)
(0.100011 -5.46058e-05 0)
(0.0999905 -6.58801e-05 0)
(0.0999742 -1.87733e-05 0)
(0.0999621 -3.99177e-05 0)
)
;
    }
    frontAndBack
    {
        type            empty;
    }
}


// ************************************************************************* //
