/*--------------------------------*- C++ -*----------------------------------*\
  =========                 |
  \\      /  F ield         | OpenFOAM: The Open Source CFD Toolbox
   \\    /   O peration     | Website:  https://openfoam.org
    \\  /    A nd           | Version:  9
     \\/     M anipulation  |
\*---------------------------------------------------------------------------*/
FoamFile
{
    format      ascii;
    class       volScalarField;
    location    "34";
    object      ddt0(h);
}
// * * * * * * * * * * * * * * * * * * * * * * * * * * * * * * * * * * * * * //

dimensions      [0 1 -1 0 0 0 0];

internalField   nonuniform List<scalar> 
400
(
-2.45778e-07
-2.58194e-07
-1.78304e-07
-2.17692e-09
2.03025e-07
3.58951e-07
4.65213e-07
4.41938e-07
3.49289e-07
1.79059e-07
-8.63839e-09
-1.53703e-07
-2.63465e-07
-2.51392e-07
-1.89669e-07
-1.02798e-07
-3.13118e-08
-4.41073e-09
9.33754e-09
1.20827e-09
-2.10361e-07
-2.27883e-07
-1.4678e-07
2.9725e-08
1.8893e-07
3.41657e-07
4.18358e-07
4.1482e-07
2.87311e-07
1.42509e-07
-4.84388e-08
-1.89269e-07
-2.48713e-07
-2.66521e-07
-1.87604e-07
-9.78759e-08
-2.32212e-08
2.88766e-08
2.83834e-08
1.21445e-08
-1.58987e-07
-1.78522e-07
-9.45239e-08
3.85958e-08
1.60719e-07
2.85352e-07
3.53146e-07
3.23058e-07
2.32682e-07
5.57165e-08
-6.07603e-08
-2.47103e-07
-2.80828e-07
-2.66007e-07
-2.09375e-07
-1.20366e-07
-4.41672e-08
-1.19875e-09
-2.25768e-09
5.46826e-09
-9.28656e-08
-1.04766e-07
-5.03558e-08
2.34731e-08
1.16205e-07
2.08464e-07
2.48084e-07
1.98608e-07
1.38398e-07
-2.6016e-08
-1.77247e-07
-2.1576e-07
-3.51467e-07
-2.84278e-07
-2.07592e-07
-1.38179e-07
-4.4197e-08
2.91775e-08
5.96409e-08
3.00449e-08
-1.75586e-08
-3.24892e-08
-2.49584e-08
-1.32889e-08
4.7342e-08
1.13277e-07
7.90952e-08
1.20657e-07
-5.74437e-08
-1.04406e-08
-2.61574e-07
-2.84108e-07
-2.71345e-07
-3.33223e-07
-2.4882e-07
-1.44429e-07
-6.05232e-08
1.85439e-08
5.46656e-08
3.08535e-08
4.75966e-08
2.48981e-08
-2.28872e-08
-5.88245e-08
-3.00115e-08
-3.93176e-08
-2.26071e-08
-1.11671e-07
-3.60262e-08
-2.62102e-07
-6.88189e-08
-4.20828e-07
-3.12455e-07
-2.39571e-07
-2.54921e-07
-1.59465e-07
-4.66028e-08
3.64697e-08
6.53624e-08
3.01206e-08
9.39829e-08
5.265e-08
-2.87299e-08
-9.70094e-08
-1.33888e-07
-1.51653e-07
-2.22183e-07
-1.8771e-07
-2.11929e-07
-3.85351e-07
2.34484e-07
-5.30998e-08
-4.17242e-07
-3.11508e-07
-2.07463e-07
-1.33138e-07
-8.426e-08
2.94896e-08
6.29972e-08
3.06989e-08
1.14614e-07
6.01813e-08
-3.43201e-08
-1.27285e-07
-2.10285e-07
-3.09907e-07
-3.44612e-07
-3.45571e-07
-4.13724e-07
4.13045e-07
-6.06757e-06
3.27853e-07
-1.19572e-07
-2.49297e-07
-1.69914e-07
-1.36891e-07
-3.97326e-08
-1.74395e-08
3.38276e-08
2.02812e-08
1.17767e-07
5.51392e-08
-3.16223e-08
-1.40659e-07
-2.84797e-07
-4.13611e-07
-5.09397e-07
-4.47456e-07
-2.67418e-07
-9.76065e-07
5.5389e-06
-7.49732e-07
-3.41697e-07
-1.73433e-07
-1.15614e-07
-7.65562e-08
-4.46091e-08
1.73988e-08
3.48244e-08
1.40847e-08
1.15489e-07
5.92865e-08
-2.12007e-08
-1.38171e-07
-3.28194e-07
-4.98088e-07
-5.17547e-07
-5.11053e-07
-4.22562e-07
-1.0745e-07
-6.80247e-07
-4.78654e-07
1.39114e-08
-1.24207e-07
-1.55491e-07
-1.8724e-08
4.88165e-08
7.7574e-08
4.36132e-08
8.09309e-09
1.20485e-07
6.7806e-08
-4.77172e-09
-1.24992e-07
-3.27306e-07
-4.93179e-07
-5.20844e-07
-4.5709e-07
-4.543e-07
-3.97132e-07
-2.32061e-07
-2.53936e-08
-2.56319e-07
-1.94581e-07
-1.39189e-07
-3.71696e-08
5.25729e-08
8.19514e-08
3.20873e-08
2.19379e-09
1.26915e-07
8.14261e-08
5.06017e-09
-9.55027e-08
-2.68073e-07
-4.15111e-07
-4.62806e-07
-4.40389e-07
-4.67898e-07
2.83489e-08
-4.49353e-06
-9.20366e-08
-2.56747e-07
-2.24703e-07
-1.43136e-07
-7.31584e-08
3.66288e-08
4.08571e-08
2.51673e-08
1.02553e-08
1.23282e-07
8.95624e-08
1.45604e-08
-6.7441e-08
-1.60876e-07
-2.83502e-07
-3.40492e-07
-3.91632e-07
-1.96935e-07
-7.51591e-07
4.43292e-06
-4.26191e-07
-2.32273e-07
-1.77436e-07
-1.5091e-07
-9.01625e-08
-2.30991e-08
1.07059e-08
3.65684e-08
2.128e-08
9.98231e-08
8.11629e-08
2.33008e-08
-3.53346e-08
-6.1144e-08
-1.02872e-07
-2.11641e-07
-2.20528e-07
-2.87469e-07
4.06719e-08
-7.27166e-07
-1.95117e-07
-1.81584e-07
-2.61094e-07
-1.93357e-07
-1.27988e-07
-5.98603e-08
3.93934e-09
4.45182e-08
2.60849e-08
5.61043e-08
5.29194e-08
2.87733e-08
-8.85037e-09
1.62619e-08
4.79929e-08
2.76983e-09
-1.03821e-07
-7.61052e-08
-1.90385e-07
-1.73418e-07
-2.00907e-07
-3.18875e-07
-2.63821e-07
-2.27441e-07
-1.59022e-07
-6.60484e-08
2.26035e-08
6.5641e-08
3.63751e-08
1.55909e-09
-2.89663e-09
1.47091e-08
1.98856e-08
6.53772e-08
1.5324e-07
1.81656e-07
1.09549e-07
3.24104e-08
-4.20123e-08
-8.79125e-08
-2.80568e-07
-2.98802e-07
-2.98156e-07
-2.51182e-07
-1.47937e-07
-2.95101e-08
5.76285e-08
8.63545e-08
4.32374e-08
-6.24294e-08
-7.52252e-08
-2.70201e-08
4.66713e-08
1.11507e-07
2.18479e-07
3.03217e-07
2.93206e-07
1.7632e-07
3.57987e-08
-1.29231e-07
-2.42748e-07
-2.98054e-07
-2.93519e-07
-2.12942e-07
-1.0049e-07
1.31194e-08
7.69628e-08
8.11164e-08
3.68364e-08
-1.33125e-07
-1.53946e-07
-7.56615e-08
4.84642e-08
1.72214e-07
2.79468e-07
3.83671e-07
3.93333e-07
3.02282e-07
1.3631e-07
-4.43132e-08
-1.66554e-07
-2.33924e-07
-2.26272e-07
-1.61342e-07
-5.78141e-08
2.91656e-08
5.63737e-08
4.37491e-08
1.85761e-08
-1.94882e-07
-2.21673e-07
-1.30692e-07
4.06757e-08
2.11741e-07
3.52107e-07
4.46259e-07
4.61382e-07
3.57631e-07
1.85341e-07
1.76454e-08
-1.22338e-07
-1.97919e-07
-2.10886e-07
-1.45535e-07
-5.23512e-08
5.32635e-09
1.74212e-08
4.15308e-09
-7.50518e-10
-2.33883e-07
-2.57359e-07
-1.68227e-07
3.68358e-08
2.35414e-07
3.97874e-07
4.93966e-07
4.98935e-07
3.91287e-07
2.16242e-07
2.87026e-08
-1.04348e-07
-1.89954e-07
-2.06767e-07
-1.40281e-07
-6.34019e-08
-1.56863e-08
1.47219e-10
-1.40221e-08
-1.31565e-08
)
;

boundaryField
{
    sides
    {
        type            calculated;
        value           nonuniform List<scalar> 
40
(
-2.33883e-07
-2.57359e-07
-1.68227e-07
3.68358e-08
2.35414e-07
3.97874e-07
4.93966e-07
4.98935e-07
3.91287e-07
2.16242e-07
2.87026e-08
-1.04348e-07
-1.89954e-07
-2.06767e-07
-1.40281e-07
-6.34019e-08
-1.56863e-08
1.47219e-10
-1.40221e-08
-1.31565e-08
-2.45778e-07
-2.58194e-07
-1.78304e-07
-2.17692e-09
2.03025e-07
3.58951e-07
4.65213e-07
4.41938e-07
3.49289e-07
1.79059e-07
-8.63839e-09
-1.53703e-07
-2.63465e-07
-2.51392e-07
-1.89669e-07
-1.02798e-07
-3.13118e-08
-4.41073e-09
9.33754e-09
1.20827e-09
)
;
    }
    inlet
    {
        type            calculated;
        value           nonuniform List<scalar> 
20
(
-2.45778e-07
-2.10361e-07
-1.58987e-07
-9.28656e-08
-1.75586e-08
4.75966e-08
9.39829e-08
1.14614e-07
1.17767e-07
1.15489e-07
1.20485e-07
1.26915e-07
1.23282e-07
9.98231e-08
5.61043e-08
1.55909e-09
-6.24294e-08
-1.33125e-07
-1.94882e-07
-2.33883e-07
)
;
    }
    outlet
    {
        type            calculated;
        value           uniform 0;
    }
    frontAndBack
    {
        type            empty;
    }
}


// ************************************************************************* //
