/*--------------------------------*- C++ -*----------------------------------*\
  =========                 |
  \\      /  F ield         | OpenFOAM: The Open Source CFD Toolbox
   \\    /   O peration     | Website:  https://openfoam.org
    \\  /    A nd           | Version:  9
     \\/     M anipulation  |
\*---------------------------------------------------------------------------*/
FoamFile
{
    format      ascii;
    class       volVectorField;
    location    "34";
    object      ddtCorrDdt0(hU);
}
// * * * * * * * * * * * * * * * * * * * * * * * * * * * * * * * * * * * * * //

dimensions      [0 2 -2 0 0 0 0];

internalField   nonuniform List<vector> 
400
(
(-7.27579e-09 -1.67007e-09 0)
(4.39642e-08 -2.62467e-09 0)
(4.86265e-08 -1.08157e-08 0)
(4.33753e-08 -1.94893e-08 0)
(4.16636e-08 -1.53548e-08 0)
(1.45186e-08 -3.10387e-10 0)
(-2.95943e-08 8.94177e-09 0)
(-5.5484e-08 2.388e-09 0)
(-2.96127e-08 -8.24591e-09 0)
(2.21836e-08 -7.41006e-09 0)
(6.14811e-08 1.72956e-08 0)
(6.28035e-08 2.16929e-08 0)
(3.54604e-08 1.6665e-08 0)
(2.95793e-08 2.60423e-09 0)
(3.47006e-08 -6.6168e-09 0)
(3.42806e-08 1.50888e-09 0)
(9.57141e-09 1.2295e-08 0)
(-5.19889e-08 9.43269e-09 0)
(-8.78887e-08 3.45069e-09 0)
(-6.9994e-08 -5.4672e-10 0)
(-5.94418e-09 -6.4228e-09 0)
(4.21097e-08 -9.44924e-09 0)
(4.59218e-08 -2.96672e-08 0)
(4.12626e-08 -5.07264e-08 0)
(4.02595e-08 -4.07299e-08 0)
(1.7882e-08 -3.41283e-09 0)
(-2.55836e-08 2.52089e-08 0)
(-4.69305e-08 1.34455e-08 0)
(-2.80935e-08 -1.13184e-08 0)
(2.81509e-08 -1.11696e-08 0)
(5.79113e-08 3.16011e-08 0)
(5.36757e-08 6.70085e-08 0)
(4.34068e-08 4.74845e-08 0)
(2.7739e-08 4.38647e-09 0)
(2.76178e-08 -1.72079e-08 0)
(2.50002e-08 1.77208e-09 0)
(-2.14784e-09 4.71428e-08 0)
(-4.27364e-08 6.03718e-08 0)
(-6.89233e-08 5.44719e-09 0)
(-6.53607e-08 -1.7402e-08 0)
(-4.31296e-09 -1.07629e-08 0)
(3.89036e-08 -1.83393e-08 0)
(4.25631e-08 -4.83401e-08 0)
(3.7572e-08 -7.34309e-08 0)
(3.86553e-08 -5.70332e-08 0)
(2.15825e-08 -1.60937e-09 0)
(-1.33188e-08 4.04867e-08 0)
(-3.15877e-08 2.84293e-08 0)
(-1.63521e-08 -1.51626e-08 0)
(1.4546e-08 -4.13211e-09 0)
(5.48572e-08 4.66227e-08 0)
(5.16396e-08 1.08017e-07 0)
(3.6418e-08 7.92085e-08 0)
(2.75983e-08 5.82237e-09 0)
(2.22355e-08 -2.36606e-08 0)
(2.06911e-08 4.3143e-09 0)
(1.26945e-09 6.42937e-08 0)
(-5.39154e-08 7.88008e-08 0)
(-9.44606e-08 1.25215e-08 0)
(-8.51994e-08 -2.03569e-08 0)
(-2.82246e-09 -1.30516e-08 0)
(3.33832e-08 -2.77649e-08 0)
(3.77372e-08 -6.34183e-08 0)
(3.50299e-08 -8.89673e-08 0)
(3.93515e-08 -6.50884e-08 0)
(2.56858e-08 3.69631e-09 0)
(1.73339e-10 5.79773e-08 0)
(-1.8643e-08 4.0709e-08 0)
(-1.0507e-09 -1.25673e-08 0)
(1.9073e-08 -5.70227e-09 0)
(3.77944e-08 9.16429e-08 0)
(5.49055e-08 1.29014e-07 0)
(2.7221e-08 9.91114e-08 0)
(2.21449e-08 1.06703e-08 0)
(1.63888e-08 -3.21517e-08 0)
(-4.22176e-09 8.04754e-09 0)
(-2.96594e-08 8.89678e-08 0)
(-4.3191e-08 1.02296e-07 0)
(-5.6829e-08 9.22515e-09 0)
(-7.57242e-08 -3.15672e-08 0)
(-1.83233e-09 -1.47149e-08 0)
(2.80141e-08 -3.48574e-08 0)
(3.39921e-08 -6.91995e-08 0)
(3.25102e-08 -9.34206e-08 0)
(3.63031e-08 -6.76122e-08 0)
(3.15108e-08 1.06719e-08 0)
(1.39043e-08 7.30204e-08 0)
(1.13154e-08 4.91473e-08 0)
(1.80056e-09 4.94771e-09 0)
(4.34027e-08 -4.83315e-09 0)
(2.19979e-08 8.81483e-08 0)
(1.93164e-08 1.54467e-07 0)
(4.09959e-08 1.05918e-07 0)
(1.37863e-08 1.99459e-08 0)
(4.09489e-09 -2.62293e-08 0)
(-4.01332e-09 6.95437e-09 0)
(-2.92422e-08 9.2914e-08 0)
(-6.61408e-08 1.13861e-07 0)
(-8.84516e-08 4.96917e-09 0)
(-8.59443e-08 -3.99326e-08 0)
(-8.77327e-10 -1.53684e-08 0)
(2.38258e-08 -3.72687e-08 0)
(3.08004e-08 -6.73746e-08 0)
(2.90326e-08 -9.05315e-08 0)
(3.57083e-08 -6.39433e-08 0)
(3.50062e-08 1.90283e-08 0)
(3.09631e-08 8.00414e-08 0)
(3.00915e-08 6.42295e-08 0)
(3.31089e-08 -5.20311e-09 0)
(4.02052e-09 2.74908e-08 0)
(4.45709e-08 3.67537e-08 0)
(1.17735e-08 1.75281e-07 0)
(2.94267e-08 1.15871e-07 0)
(3.13978e-08 5.16846e-09 0)
(-1.32589e-08 -3.15672e-08 0)
(-4.65145e-08 4.05275e-09 0)
(-6.3674e-08 7.64572e-08 0)
(-5.65838e-08 9.43626e-08 0)
(-5.93944e-08 1.04971e-08 0)
(-8.286e-08 -2.99661e-08 0)
(3.22544e-10 -1.43701e-08 0)
(2.16063e-08 -3.43297e-08 0)
(2.74901e-08 -5.87588e-08 0)
(2.63363e-08 -8.09097e-08 0)
(3.36677e-08 -5.59247e-08 0)
(4.19963e-08 2.20449e-08 0)
(4.79653e-08 8.28257e-08 0)
(4.40878e-08 7.04507e-08 0)
(5.53511e-08 2.0363e-08 0)
(-2.2503e-08 4.79569e-08 0)
(5.38653e-08 -5.84392e-08 0)
(8.40141e-08 8.95588e-08 0)
(-1.30168e-08 1.17979e-07 0)
(4.14423e-09 1.75528e-08 0)
(-5.38451e-09 -3.17287e-08 0)
(-5.47706e-08 7.22182e-09 0)
(-8.22985e-08 9.88019e-08 0)
(-6.32444e-08 1.10235e-07 0)
(-6.12113e-08 1.22891e-08 0)
(-8.22428e-08 -3.10898e-08 0)
(1.41614e-09 -1.10508e-08 0)
(2.07924e-08 -2.66812e-08 0)
(2.38609e-08 -4.49474e-08 0)
(2.1882e-08 -6.41778e-08 0)
(3.41318e-08 -4.46667e-08 0)
(4.91632e-08 2.13803e-08 0)
(6.45979e-08 7.49e-08 0)
(7.81014e-08 6.42419e-08 0)
(7.14418e-08 3.09327e-08 0)
(-6.37245e-08 -1.04856e-08 0)
(-6.73837e-07 2.58894e-07 0)
(2.2986e-07 1.47277e-07 0)
(9.56609e-08 6.38895e-08 0)
(6.27574e-10 1.32846e-08 0)
(-2.68289e-08 -2.11055e-08 0)
(-5.88686e-08 6.04953e-09 0)
(-8.91314e-08 8.27576e-08 0)
(-9.03942e-08 9.32392e-08 0)
(-6.93743e-08 2.23266e-08 0)
(-8.6998e-08 -1.69905e-08 0)
(1.71066e-09 -6.27988e-09 0)
(2.05038e-08 -1.61301e-08 0)
(2.04854e-08 -2.81419e-08 0)
(1.76229e-08 -4.17737e-08 0)
(3.34776e-08 -2.74848e-08 0)
(5.63009e-08 2.11035e-08 0)
(7.49153e-08 5.62349e-08 0)
(8.04666e-08 4.72466e-08 0)
(5.48061e-08 2.69913e-08 0)
(1.00996e-07 -2.54185e-08 0)
(6.49793e-07 2.43039e-07 0)
(-2.20857e-07 1.0493e-07 0)
(-5.06314e-08 3.25963e-08 0)
(2.90373e-08 -1.36414e-09 0)
(-1.49139e-08 -1.79902e-08 0)
(-6.40089e-08 -1.06763e-09 0)
(-9.67521e-08 3.80825e-08 0)
(-8.2992e-08 5.82358e-08 0)
(-6.61282e-08 2.60145e-08 0)
(-9.04369e-08 -4.54936e-09 0)
(1.49554e-09 -1.36391e-09 0)
(2.00644e-08 -4.44628e-09 0)
(1.79278e-08 -9.62215e-09 0)
(1.58908e-08 -1.46331e-08 0)
(3.44962e-08 -6.67551e-09 0)
(5.86374e-08 1.76323e-08 0)
(8.43742e-08 3.08426e-08 0)
(1.00155e-07 2.1149e-08 0)
(4.87516e-08 1.57983e-08 0)
(7.28579e-08 3.54214e-08 0)
(-5.35781e-08 -1.5054e-07 0)
(-9.20945e-08 -2.09122e-08 0)
(5.41176e-08 3.36297e-08 0)
(1.76887e-08 2.55451e-09 0)
(-3.63858e-08 -1.10621e-08 0)
(-6.6001e-08 1.1414e-09 0)
(-8.54141e-08 1.65952e-08 0)
(-7.1145e-08 2.91776e-08 0)
(-6.75884e-08 2.41883e-08 0)
(-9.84498e-08 5.48416e-09 0)
(1.1335e-09 3.03352e-09 0)
(1.89613e-08 7.08135e-09 0)
(1.70152e-08 1.03382e-08 0)
(1.52209e-08 1.55246e-08 0)
(3.49202e-08 1.55692e-08 0)
(5.91805e-08 3.95339e-09 0)
(8.38466e-08 -6.99998e-09 0)
(9.02673e-08 -5.25512e-09 0)
(7.79256e-08 -2.64288e-08 0)
(-9.87116e-09 1.9773e-08 0)
(-2.30287e-08 3.19282e-08 0)
(4.93143e-08 -2.69126e-08 0)
(-6.76502e-10 -1.90476e-08 0)
(-7.85225e-09 -1.21348e-08 0)
(-3.05661e-08 -5.28462e-10 0)
(-6.43719e-08 5.8098e-10 0)
(-8.27361e-08 -4.24808e-09 0)
(-6.78917e-08 -4.25042e-09 0)
(-7.17794e-08 2.13671e-08 0)
(-9.96902e-08 1.72411e-08 0)
(4.57666e-10 5.8449e-09 0)
(1.81391e-08 1.70937e-08 0)
(1.79189e-08 2.88583e-08 0)
(1.47416e-08 4.54646e-08 0)
(3.14126e-08 3.81243e-08 0)
(5.3019e-08 -2.40289e-09 0)
(7.02846e-08 -3.29715e-08 0)
(7.80585e-08 -2.46586e-08 0)
(7.47123e-08 3.3725e-09 0)
(1.71915e-07 -4.14928e-08 0)
(-4.52751e-07 -1.25099e-07 0)
(-9.11907e-08 -7.95423e-08 0)
(2.04827e-08 -8.34339e-08 0)
(-3.81273e-09 -7.5231e-09 0)
(-3.03144e-08 2.28301e-08 0)
(-6.90479e-08 7.56377e-09 0)
(-8.5101e-08 -2.16656e-08 0)
(-7.43298e-08 -3.77334e-08 0)
(-6.85016e-08 1.44651e-08 0)
(-9.19398e-08 2.70354e-08 0)
(5.21907e-11 8.12793e-09 0)
(1.86262e-08 2.50746e-08 0)
(2.15186e-08 4.48146e-08 0)
(1.86846e-08 6.97958e-08 0)
(3.13487e-08 5.96097e-08 0)
(4.67435e-08 -9.28086e-10 0)
(6.54543e-08 -4.7847e-08 0)
(7.93548e-08 -3.59372e-08 0)
(6.02819e-08 -6.43215e-10 0)
(-1.31966e-07 -3.97511e-08 0)
(4.97217e-07 -1.71818e-07 0)
(8.32191e-08 -1.37708e-07 0)
(8.53959e-09 -9.9049e-08 0)
(3.03266e-08 -1.37621e-08 0)
(-2.50468e-08 2.76511e-08 0)
(-6.46195e-08 8.17956e-09 0)
(-8.69932e-08 -5.14568e-08 0)
(-8.2577e-08 -6.86996e-08 0)
(-7.01561e-08 1.79893e-08 0)
(-8.7141e-08 3.95791e-08 0)
(-6.10691e-10 1.10554e-08 0)
(2.03744e-08 3.00769e-08 0)
(2.55816e-08 5.65006e-08 0)
(2.34404e-08 8.50533e-08 0)
(3.06697e-08 7.21118e-08 0)
(3.92182e-08 2.09833e-09 0)
(4.4818e-08 -5.95253e-08 0)
(5.37944e-08 -4.78543e-08 0)
(3.32946e-08 -1.47604e-08 0)
(7.26138e-08 -3.82375e-09 0)
(-4.05964e-08 1.59521e-09 0)
(1.03095e-08 -1.69927e-07 0)
(5.24187e-08 -1.11165e-07 0)
(8.58332e-09 -2.39188e-08 0)
(-2.10901e-08 2.71676e-08 0)
(-5.95016e-08 -8.55957e-11 0)
(-8.12054e-08 -7.4219e-08 0)
(-7.17482e-08 -8.76623e-08 0)
(-6.6104e-08 2.10431e-08 0)
(-8.32389e-08 4.78453e-08 0)
(-1.44341e-09 1.32809e-08 0)
(2.28302e-08 3.07001e-08 0)
(2.82102e-08 6.27689e-08 0)
(2.66602e-08 9.19638e-08 0)
(3.3032e-08 7.69634e-08 0)
(3.08792e-08 7.5101e-09 0)
(2.9725e-08 -5.31755e-08 0)
(3.17102e-08 -4.38062e-08 0)
(4.23447e-08 4.16744e-09 0)
(2.5768e-08 -1.25277e-08 0)
(2.81948e-08 -1.50005e-07 0)
(3.29624e-08 -1.72329e-07 0)
(2.44639e-08 -1.33998e-07 0)
(2.27788e-08 -2.52235e-08 0)
(-1.43813e-08 2.33531e-08 0)
(-5.08275e-08 -5.1487e-09 0)
(-6.47169e-08 -7.61609e-08 0)
(-6.35881e-08 -9.19543e-08 0)
(-6.6323e-08 2.04386e-08 0)
(-7.92718e-08 5.11125e-08 0)
(-1.99834e-09 1.34112e-08 0)
(2.63804e-08 2.71452e-08 0)
(2.99273e-08 6.42881e-08 0)
(2.86376e-08 9.48055e-08 0)
(3.56363e-08 7.59392e-08 0)
(2.86402e-08 9.79535e-09 0)
(1.13074e-08 -4.20267e-08 0)
(6.74107e-09 -3.08509e-08 0)
(1.16917e-08 1.1252e-08 0)
(5.30449e-09 -1.19076e-08 0)
(3.97336e-08 -8.94561e-08 0)
(6.48973e-08 -1.7244e-07 0)
(4.79944e-08 -1.32756e-07 0)
(1.28398e-08 -3.68537e-08 0)
(-9.94397e-09 1.40328e-08 0)
(-2.16508e-08 -8.00946e-09 0)
(-3.74212e-08 -7.99952e-08 0)
(-5.64139e-08 -9.42278e-08 0)
(-6.79754e-08 2.23511e-08 0)
(-7.6201e-08 5.21082e-08 0)
(-2.3349e-09 1.12943e-08 0)
(3.23538e-08 2.1443e-08 0)
(3.29399e-08 5.87407e-08 0)
(2.90426e-08 9.06096e-08 0)
(3.60861e-08 7.15269e-08 0)
(2.54867e-08 8.95869e-09 0)
(-2.17879e-09 -3.5437e-08 0)
(-1.3913e-08 -1.78445e-08 0)
(-1.29319e-10 2.16811e-08 0)
(4.09296e-08 1.23819e-08 0)
(4.90531e-08 -5.88986e-08 0)
(2.89679e-08 -1.36864e-07 0)
(2.35894e-08 -1.1084e-07 0)
(1.85632e-08 -2.27073e-08 0)
(1.50007e-08 2.41811e-08 0)
(2.63864e-09 -3.06441e-09 0)
(-1.5041e-08 -7.32465e-08 0)
(-4.28353e-08 -8.71274e-08 0)
(-6.76885e-08 1.60979e-08 0)
(-7.55424e-08 4.38492e-08 0)
(-2.56571e-09 6.91536e-09 0)
(3.88274e-08 1.36679e-08 0)
(3.72088e-08 4.85063e-08 0)
(3.06211e-08 7.86588e-08 0)
(3.657e-08 6.35359e-08 0)
(2.10894e-08 7.11478e-09 0)
(-1.46185e-08 -2.91782e-08 0)
(-3.33344e-08 -1.02702e-08 0)
(-1.01171e-08 2.91693e-08 0)
(2.67566e-08 1.79125e-08 0)
(5.40621e-08 -5.94513e-08 0)
(6.26399e-08 -1.05008e-07 0)
(4.26773e-08 -7.79709e-08 0)
(2.22696e-08 -7.62705e-09 0)
(1.91814e-08 2.47279e-08 0)
(1.86288e-08 4.29944e-10 0)
(-2.60946e-10 -5.62558e-08 0)
(-4.6063e-08 -7.19165e-08 0)
(-7.62361e-08 3.20056e-09 0)
(-7.11568e-08 2.93382e-08 0)
(-3.62557e-09 3.68833e-09 0)
(4.61238e-08 6.23005e-09 0)
(4.39607e-08 3.04626e-08 0)
(3.41621e-08 5.28049e-08 0)
(3.4608e-08 4.41329e-08 0)
(1.49529e-08 7.19477e-09 0)
(-2.3536e-08 -2.099e-08 0)
(-4.06829e-08 -9.05154e-09 0)
(-1.51851e-08 1.62717e-08 0)
(3.69069e-08 1.12122e-08 0)
(6.67432e-08 -2.78677e-08 0)
(5.03942e-08 -6.33473e-08 0)
(2.80211e-08 -5.14325e-08 0)
(2.43478e-08 -6.73551e-09 0)
(3.22029e-08 1.78767e-08 0)
(2.97704e-08 1.54842e-09 0)
(1.44183e-09 -4.03668e-08 0)
(-5.50474e-08 -5.25727e-08 0)
(-8.2615e-08 -1.99547e-09 0)
(-6.39853e-08 1.74384e-08 0)
(-4.7908e-09 1.68239e-09 0)
(4.97986e-08 1.73863e-09 0)
(4.72258e-08 8.85883e-09 0)
(3.63428e-08 1.69624e-08 0)
(3.39989e-08 1.52293e-08 0)
(1.13374e-08 4.06307e-09 0)
(-2.99719e-08 -7.54417e-09 0)
(-4.87923e-08 -6.38225e-09 0)
(-2.07399e-08 -2.34739e-10 0)
(3.27253e-08 -6.60251e-10 0)
(6.65211e-08 -1.88798e-08 0)
(6.43568e-08 -2.78984e-08 0)
(4.01432e-08 -1.56832e-08 0)
(2.68787e-08 1.67765e-09 0)
(2.96168e-08 8.61986e-09 0)
(2.43561e-08 6.24351e-10 0)
(-1.34321e-09 -1.59966e-08 0)
(-5.34085e-08 -2.06133e-08 0)
(-8.03421e-08 -2.07399e-09 0)
(-5.82799e-08 5.36183e-09 0)
)
;

boundaryField
{
    sides
    {
        type            calculated;
        value           nonuniform List<vector> 
40
(
(-4.7908e-09 0 0)
(4.97986e-08 0 0)
(4.72258e-08 0 0)
(3.63428e-08 0 0)
(3.39989e-08 0 0)
(1.13374e-08 0 0)
(-2.99719e-08 0 0)
(-4.87923e-08 0 0)
(-2.07399e-08 0 0)
(3.27253e-08 0 0)
(6.65211e-08 0 0)
(6.43568e-08 0 0)
(4.01432e-08 0 0)
(2.68787e-08 0 0)
(2.96168e-08 0 0)
(2.43561e-08 0 0)
(-1.34321e-09 0 0)
(-5.34085e-08 0 0)
(-8.03421e-08 0 0)
(-5.82799e-08 0 0)
(-7.27579e-09 0 0)
(4.39642e-08 0 0)
(4.86265e-08 0 0)
(4.33753e-08 0 0)
(4.16636e-08 0 0)
(1.45186e-08 0 0)
(-2.95943e-08 0 0)
(-5.5484e-08 0 0)
(-2.96127e-08 0 0)
(2.21836e-08 0 0)
(6.14811e-08 0 0)
(6.28035e-08 0 0)
(3.54604e-08 0 0)
(2.95793e-08 0 0)
(3.47006e-08 0 0)
(3.42806e-08 0 0)
(9.57141e-09 0 0)
(-5.19889e-08 0 0)
(-8.78887e-08 0 0)
(-6.9994e-08 0 0)
)
;
    }
    inlet
    {
        type            calculated;
        value           uniform (0 0 0);
    }
    outlet
    {
        type            calculated;
        value           nonuniform List<vector> 
20
(
(-6.9994e-08 -5.4672e-10 0)
(-6.53607e-08 -1.7402e-08 0)
(-8.51994e-08 -2.03569e-08 0)
(-7.57242e-08 -3.15672e-08 0)
(-8.59443e-08 -3.99326e-08 0)
(-8.286e-08 -2.99661e-08 0)
(-8.22428e-08 -3.10898e-08 0)
(-8.6998e-08 -1.69905e-08 0)
(-9.04369e-08 -4.54936e-09 0)
(-9.84498e-08 5.48416e-09 0)
(-9.96902e-08 1.72411e-08 0)
(-9.19398e-08 2.70354e-08 0)
(-8.7141e-08 3.95791e-08 0)
(-8.32389e-08 4.78453e-08 0)
(-7.92718e-08 5.11125e-08 0)
(-7.6201e-08 5.21082e-08 0)
(-7.55424e-08 4.38492e-08 0)
(-7.11568e-08 2.93382e-08 0)
(-6.39853e-08 1.74384e-08 0)
(-5.82799e-08 5.36183e-09 0)
)
;
    }
    frontAndBack
    {
        type            empty;
    }
}


// ************************************************************************* //
