/*--------------------------------*- C++ -*----------------------------------*\
  =========                 |
  \\      /  F ield         | OpenFOAM: The Open Source CFD Toolbox
   \\    /   O peration     | Website:  https://openfoam.org
    \\  /    A nd           | Version:  9
     \\/     M anipulation  |
\*---------------------------------------------------------------------------*/
FoamFile
{
    format      ascii;
    class       surfaceScalarField;
    location    "34";
    object      ddtCorrDdt0(phi);
}
// * * * * * * * * * * * * * * * * * * * * * * * * * * * * * * * * * * * * * //

dimensions      [0 4 -2 0 0 0 0];

internalField   nonuniform List<scalar> 
760
(
1.85203e-10
-2.28767e-11
2.68554e-10
-3.35713e-11
2.79865e-10
-9.55113e-11
2.20881e-10
-1.78542e-10
1.07154e-10
-1.44787e-10
-9.06482e-11
-1.27967e-11
-2.49088e-10
8.43615e-11
-2.46655e-10
4.18371e-11
-2.25761e-11
-2.79274e-11
2.08077e-10
-4.69169e-11
3.58472e-10
9.7621e-11
2.82475e-10
2.39361e-10
2.00116e-10
1.69014e-10
1.82443e-10
1.54085e-11
1.60419e-10
-7.38153e-11
9.05617e-11
6.07958e-12
-1.20686e-10
1.58012e-10
-3.7044e-10
2.09284e-10
-3.94654e-10
-1.00581e-11
-4.91432e-11
1.74172e-10
-4.48421e-11
2.60521e-10
-7.05355e-11
2.54501e-10
-2.02019e-10
2.12882e-10
-3.25375e-10
1.19376e-10
-2.50011e-10
-6.81877e-11
-1.46848e-11
-2.21076e-10
1.70773e-10
-2.10136e-10
9.62623e-11
-2.49618e-11
-6.8429e-11
2.6281e-10
-6.06581e-11
2.7278e-10
2.67601e-10
3.04648e-10
4.38315e-10
2.08192e-10
3.08686e-10
1.52492e-10
3.84927e-11
1.28154e-10
-9.19139e-11
4.20145e-11
1.71822e-11
-1.36697e-10
2.70407e-10
-2.9397e-10
3.22605e-10
-3.47065e-10
5.4687e-11
-1.01724e-10
1.60111e-10
-6.13288e-11
2.34088e-10
-1.18669e-10
2.23107e-10
-2.91129e-10
2.10774e-10
-4.11649e-10
1.24146e-10
-3.13984e-10
-1.68291e-11
3.95201e-12
-1.50757e-10
2.2977e-10
-1.26626e-10
1.88417e-10
-3.22698e-11
-8.76909e-11
1.77528e-10
2.67081e-11
3.2209e-10
3.08077e-10
2.37027e-10
6.11189e-10
2.05421e-10
4.68927e-10
1.33213e-10
3.6534e-11
1.02244e-10
-1.3297e-10
3.43609e-11
3.74219e-11
-1.43035e-10
4.00435e-10
-3.87956e-10
5.05581e-10
-4.3668e-10
3.26274e-11
-1.25864e-10
1.30985e-10
-7.12436e-11
1.85964e-10
-1.65247e-10
2.09445e-10
-3.40661e-10
2.09857e-10
-4.63651e-10
1.42059e-10
-3.2716e-10
1.88414e-11
2.66346e-11
-4.11501e-11
3.45405e-10
-1.04928e-10
2.23742e-10
8.16445e-11
1.99184e-12
9.89473e-11
-3.26015e-11
2.99233e-10
5.38146e-10
2.2874e-10
6.44753e-10
1.38002e-10
5.33505e-10
1.2127e-10
9.49392e-11
2.59467e-11
-1.54565e-10
-1.01586e-10
3.8955e-11
-2.06216e-10
4.36368e-10
-2.55002e-10
4.87447e-10
-3.46459e-10
5.1874e-11
-1.55989e-10
8.83497e-11
-7.80583e-11
1.47367e-10
-1.88772e-10
1.96913e-10
-3.52276e-10
2.09774e-10
-4.58791e-10
1.28026e-10
-3.33692e-10
1.04825e-10
8.58649e-11
5.03124e-11
3.87793e-10
2.7872e-11
2.9072e-10
6.07724e-11
6.1275e-11
2.80962e-10
-4.05864e-11
-1.38794e-11
4.93934e-10
2.61995e-10
8.66078e-10
1.37605e-10
4.74027e-10
4.58e-11
3.51724e-11
2.02166e-11
-1.2593e-10
-1.03519e-10
3.92893e-11
-2.54752e-10
4.53498e-10
-4.16001e-10
5.66317e-10
-4.3171e-10
2.00369e-11
-1.88921e-10
4.96195e-11
-7.79796e-11
1.13987e-10
-1.85954e-10
1.92861e-10
-3.17743e-10
1.88446e-10
-4.34403e-10
1.48514e-10
-2.91215e-10
1.61387e-10
1.08031e-10
1.37033e-10
4.05012e-10
2.15583e-10
3.77498e-10
5.23972e-13
-5.92464e-11
1.65704e-10
4.42607e-10
1.8566e-10
-2.40398e-11
4.48741e-11
7.36667e-10
2.21255e-10
6.97616e-10
6.0364e-11
5.98186e-11
-1.50659e-10
-1.60015e-10
-2.9863e-10
1.94834e-11
-3.2641e-10
3.76484e-10
-3.06945e-10
4.95491e-10
-3.52374e-10
4.4494e-11
-1.53904e-10
2.51172e-11
-6.63146e-11
9.60736e-11
-1.54008e-10
1.68853e-10
-2.62245e-10
1.79475e-10
-3.63531e-10
1.68532e-10
-2.54685e-10
2.18063e-10
1.20034e-10
2.97884e-10
4.3397e-10
1.10801e-10
3.0933e-10
3.91793e-10
2.5565e-10
-4.25951e-10
-1.33764e-10
7.79914e-10
2.1073e-09
4.83974e-11
1.30811e-10
-4.11043e-11
4.11428e-10
4.47774e-11
1.0083e-10
-1.41668e-10
-1.43641e-10
-3.82276e-10
3.46686e-11
-3.73276e-10
4.96129e-10
-3.40545e-10
5.02011e-10
-3.51508e-10
9.0327e-11
-1.19446e-10
1.99311e-11
-4.32136e-11
7.767e-11
-1.05984e-10
1.42117e-10
-1.83504e-10
1.55366e-10
-2.73819e-10
1.96008e-10
-1.77033e-10
3.12252e-10
1.04721e-10
3.7342e-10
3.38872e-10
3.90022e-10
3.47437e-10
4.23277e-10
-4.51145e-11
-2.93316e-09
4.13482e-12
-2.71026e-10
2.97212e-08
7.19601e-10
1.43831e-09
1.7565e-10
2.52097e-10
-5.04012e-11
-1.59238e-11
-2.28062e-10
-1.44042e-10
-3.42096e-10
-8.64499e-12
-5.03837e-10
2.51104e-10
-4.27384e-10
3.9009e-10
-3.77132e-10
1.13071e-10
-6.04618e-11
2.12324e-11
-1.54676e-11
6.63082e-11
-4.94803e-11
1.04126e-10
-9.67934e-11
1.45133e-10
-1.4656e-10
2.20599e-10
-9.15298e-11
3.52786e-10
1.20731e-10
4.62164e-10
2.24347e-10
3.24075e-10
1.25032e-10
-3.5376e-12
2.67788e-10
2.88997e-09
-3.59928e-10
2.52619e-10
1.56067e-09
-6.19917e-10
-3.72257e-10
5.80377e-11
2.91295e-11
6.24818e-11
-6.93131e-12
-1.98461e-10
-9.92356e-11
-4.00606e-10
2.93871e-12
-4.92649e-10
-1.59481e-09
-3.93345e-10
2.12723e-10
-3.80392e-10
1.1133e-10
1.18991e-11
2.39629e-11
3.98388e-12
5.28923e-11
6.93472e-12
8.30399e-11
1.27011e-12
1.30134e-10
-7.96648e-13
2.57681e-10
2.90665e-11
4.02418e-10
5.97665e-11
4.52639e-10
6.35997e-11
5.35498e-10
5.03549e-11
-5.38859e-11
-1.54856e-10
5.5845e-10
4.44523e-10
-8.65504e-10
-9.64194e-10
9.04832e-11
2.02346e-10
1.92889e-10
1.55665e-10
-3.93127e-11
-2.04058e-11
-2.40116e-10
-5.65962e-11
-3.91365e-10
9.93608e-12
-4.31914e-10
4.8786e-11
-3.56736e-10
7.70911e-11
-4.07202e-10
1.10124e-10
5.15951e-11
1.79049e-11
2.01398e-11
4.83929e-11
5.9139e-11
7.41774e-11
9.87331e-11
1.31196e-10
1.58902e-10
2.66133e-10
1.37434e-10
3.97816e-10
5.85986e-12
4.66145e-10
-1.0288e-10
3.75156e-10
-6.42743e-11
3.49393e-10
-8.98277e-12
-4.31212e-10
-1.23885e-10
3.31592e-10
3.60214e-09
3.5673e-11
-5.25799e-10
-4.65267e-11
-2.44956e-10
-7.58899e-11
-3.19724e-11
-2.04876e-10
5.78046e-11
-3.9404e-10
-1.13492e-11
-3.89476e-10
-8.87146e-11
-3.80439e-10
-1.15666e-10
-4.20569e-10
7.12046e-11
1.02443e-10
6.08469e-12
3.35365e-11
5.45092e-11
1.05233e-10
8.61306e-11
1.88783e-10
1.23084e-10
3.02658e-10
2.28099e-10
2.49184e-10
3.3123e-10
-2.51961e-11
4.13732e-10
-2.10231e-10
3.48872e-10
-1.5612e-10
4.58878e-10
-2.08231e-11
-2.69246e-11
-3.65191e-10
-2.15608e-09
-3.58384e-08
1.54754e-10
-6.31522e-11
2.84084e-15
-5.89334e-10
-6.18025e-11
-7.89228e-11
-2.46913e-10
1.47712e-10
-3.91951e-10
-1.93999e-11
-4.07735e-10
-1.92176e-10
-3.95848e-10
-2.668e-10
-3.96584e-10
8.84559e-11
1.71936e-10
6.24905e-12
4.81693e-11
6.42935e-11
1.41167e-10
1.26343e-10
2.58811e-10
1.37039e-10
3.95171e-10
1.85876e-10
3.29803e-10
2.98942e-10
-2.0379e-11
3.92528e-10
-3.09826e-10
4.16303e-10
-2.17174e-10
-5.59492e-11
-2.17245e-11
2.26901e-10
-9.97478e-11
2.25951e-09
1.98507e-09
-1.7375e-10
-1.18897e-09
2.11869e-10
-4.45207e-10
1.50166e-11
-6.58111e-11
-2.2424e-10
1.43778e-10
-3.82812e-10
2.58732e-11
-4.64161e-10
-2.705e-10
-4.03379e-10
-3.8147e-10
-3.83665e-10
1.02064e-10
2.1596e-10
1.91654e-11
6.35571e-11
8.12546e-11
1.58662e-10
1.59696e-10
2.99821e-10
1.6781e-10
4.43772e-10
1.41497e-10
3.72945e-10
2.01745e-10
2.74839e-11
2.83551e-10
-2.9924e-10
2.49735e-10
-2.4304e-10
1.54678e-10
-6.78463e-11
2.85268e-10
7.69717e-11
-3.35192e-10
-9.33545e-10
3.37744e-10
-5.75358e-10
1.33119e-10
-6.18856e-10
-1.57582e-11
-1.32656e-10
-2.04336e-10
1.29868e-10
-3.71639e-10
-6.16507e-12
-4.05074e-10
-3.69044e-10
-3.67758e-10
-4.47867e-10
-3.64985e-10
1.07742e-10
2.46524e-10
4.47506e-11
7.11051e-11
9.74816e-11
1.50445e-10
1.76228e-10
3.24557e-10
1.92321e-10
4.64278e-10
1.30095e-10
3.84282e-10
1.06841e-10
4.8159e-11
1.91758e-10
-2.3378e-10
1.73004e-10
-2.33546e-10
1.90161e-10
1.87072e-11
8.84155e-11
-1.91091e-10
2.04357e-10
-3.33735e-10
1.39051e-10
-9.18499e-10
1.50113e-10
-6.97495e-10
3.83663e-11
-1.47608e-10
-1.69468e-10
9.02505e-11
-3.08041e-10
-4.84511e-11
-3.4089e-10
-4.12224e-10
-3.45376e-10
-4.68144e-10
-3.59642e-10
1.16346e-10
2.62346e-10
7.57415e-11
6.48318e-11
1.27419e-10
1.26869e-10
1.73674e-10
3.17413e-10
2.07023e-10
4.6886e-10
1.39567e-10
3.61801e-10
6.10535e-11
5.38251e-11
2.63398e-11
-1.87153e-10
7.28015e-11
-1.05673e-10
2.87819e-11
7.25405e-11
2.73638e-11
7.02145e-11
3.72847e-10
-3.84535e-10
2.92132e-10
-7.43325e-10
1.81784e-10
-5.90177e-10
1.57476e-11
-1.50675e-10
-8.28109e-11
7.41119e-11
-1.66083e-10
-4.18938e-11
-2.53021e-10
-3.78884e-10
-3.27331e-10
-4.4566e-10
-3.59512e-10
9.07339e-11
2.39635e-10
1.15257e-10
4.7016e-11
1.70536e-10
9.42691e-11
1.80153e-10
2.75388e-10
1.89239e-10
4.31912e-10
1.47519e-10
3.41317e-10
1.785e-11
3.15613e-11
-7.10591e-11
-1.60647e-10
-5.45193e-11
-6.34862e-11
6.86172e-11
1.39908e-10
3.02623e-10
4.47928e-11
1.58915e-10
-3.01247e-10
1.91832e-10
-6.13072e-10
1.25075e-10
-5.05384e-10
9.3561e-11
-1.0542e-10
4.64792e-11
1.18127e-10
-4.51037e-11
2.2966e-12
-1.63065e-10
-3.18421e-10
-2.90311e-10
-3.95309e-10
-3.61048e-10
5.04441e-11
1.83859e-10
1.58089e-10
2.88736e-11
2.12325e-10
5.26193e-11
2.01509e-10
2.04316e-10
1.83293e-10
3.36365e-10
1.2237e-10
2.79657e-10
-1.43823e-11
3.6574e-11
-1.60052e-10
-1.32624e-10
-1.36284e-10
-5.88818e-11
2.9635e-11
1.11777e-10
2.07053e-10
8.81198e-11
3.38378e-10
-2.54923e-10
2.91897e-10
-4.13268e-10
1.89894e-10
-3.01994e-10
1.22291e-10
-7.55043e-12
9.44923e-11
1.24226e-10
2.90727e-11
9.23135e-12
-1.35464e-10
-2.48659e-10
-3.18701e-10
-3.16677e-10
-3.71834e-10
6.45612e-12
1.16432e-10
1.91248e-10
1.29651e-11
2.62181e-10
1.89786e-11
2.35647e-10
1.08822e-10
1.83818e-10
1.9318e-10
8.63397e-11
1.58334e-10
-5.78769e-11
3.03508e-11
-2.03297e-10
-8.29742e-11
-1.6961e-10
-4.06716e-11
3.79032e-11
4.03671e-11
2.94057e-10
2.63046e-11
3.11458e-10
-8.63124e-11
2.32586e-10
-2.11181e-10
1.63603e-10
-1.62406e-10
1.58914e-10
-1.86298e-11
1.55426e-10
6.54657e-11
6.11171e-11
9.11308e-12
-1.55521e-10
-1.33404e-10
-3.61253e-10
-1.78106e-10
-3.67314e-10
-1.75175e-11
5.19503e-11
2.04669e-10
2.87286e-10
2.59922e-10
1.80629e-10
7.36231e-11
-9.77994e-11
-2.31929e-10
-2.07089e-10
1.92115e-11
2.64047e-10
3.65075e-10
2.96159e-10
1.99121e-10
1.67771e-10
1.30938e-10
3.35381e-11
-1.58678e-10
-3.51671e-10
-3.46931e-10
)
;

boundaryField
{
    sides
    {
        type            calculated;
        value           uniform 0;
    }
    inlet
    {
        type            calculated;
        value           uniform 0;
    }
    outlet
    {
        type            calculated;
        value           nonuniform List<scalar> 
20
(
-3.39214e-10
-2.95031e-10
-4.47807e-10
-3.50284e-10
-4.11946e-10
-3.88427e-10
-3.78635e-10
-4.0135e-10
-4.20661e-10
-4.73407e-10
-4.69946e-10
-4.21657e-10
-4.06021e-10
-3.8797e-10
-3.71481e-10
-3.6727e-10
-3.69533e-10
-3.49699e-10
-3.1051e-10
-2.75419e-10
)
;
    }
    frontAndBack
    {
        type            empty;
        value           nonuniform List<scalar> 0();
    }
}


// ************************************************************************* //
