/*--------------------------------*- C++ -*----------------------------------*\
  =========                 |
  \\      /  F ield         | OpenFOAM: The Open Source CFD Toolbox
   \\    /   O peration     | Website:  https://openfoam.org
    \\  /    A nd           | Version:  9
     \\/     M anipulation  |
\*---------------------------------------------------------------------------*/
FoamFile
{
    format      ascii;
    class       volScalarField;
    location    "34";
    object      h_0;
}
// * * * * * * * * * * * * * * * * * * * * * * * * * * * * * * * * * * * * * //

dimensions      [0 1 0 0 0 0 0];

internalField   nonuniform List<scalar> 
400
(
0.0100005
0.0100005
0.0100003
0.0100001
0.00999994
0.00999975
0.00999956
0.00999938
0.0099992
0.00999905
0.00999895
0.00999891
0.00999896
0.00999911
0.00999932
0.00999957
0.00999978
0.00999994
0.01
0.01
0.0100005
0.0100004
0.0100003
0.0100001
0.00999987
0.00999966
0.00999945
0.00999923
0.00999901
0.00999883
0.0099987
0.00999868
0.00999876
0.00999895
0.00999921
0.00999947
0.00999969
0.00999983
0.00999991
0.00999997
0.0100005
0.0100004
0.0100003
0.0100001
0.0099999
0.00999967
0.00999941
0.00999913
0.00999886
0.00999862
0.00999846
0.00999842
0.00999854
0.00999881
0.00999917
0.00999954
0.00999982
0.00999997
0.01
0.01
0.0100006
0.0100005
0.0100004
0.0100002
0.00999997
0.00999969
0.00999936
0.00999898
0.00999858
0.0099982
0.00999796
0.00999794
0.00999818
0.00999866
0.00999919
0.00999961
0.00999983
0.00999989
0.0099999
0.00999994
0.0100007
0.0100006
0.0100005
0.0100003
0.0100001
0.00999978
0.00999936
0.00999883
0.00999824
0.00999765
0.00999721
0.0099972
0.00999764
0.00999848
0.00999939
0.01
0.0100002
0.0100001
0.01
0.00999996
0.0100008
0.0100008
0.0100007
0.0100006
0.0100003
0.00999998
0.00999943
0.00999868
0.00999779
0.00999694
0.00999631
0.00999622
0.00999697
0.00999828
0.00999956
0.0100003
0.0100003
0.0100001
0.00999986
0.00999989
0.010001
0.010001
0.010001
0.0100009
0.0100007
0.0100004
0.00999976
0.00999871
0.00999717
0.00999534
0.00999415
0.00999443
0.00999655
0.00999932
0.0100011
0.0100013
0.0100006
0.00999992
0.00999966
0.00999985
0.0100012
0.0100012
0.0100013
0.0100013
0.0100012
0.010001
0.0100004
0.0099993
0.00999735
0.00999421
0.00999052
0.00999012
0.00999432
0.01
0.0100031
0.0100029
0.0100011
0.00999971
0.00999941
0.0099998
0.0100013
0.0100014
0.0100015
0.0100018
0.010002
0.0100021
0.0100015
0.00999949
0.00999545
0.00998963
0.00998651
0.00998953
0.00999785
0.0100035
0.0100042
0.0100022
0.0100001
0.0099992
0.00999935
0.00999985
0.0100013
0.0100014
0.0100017
0.0100021
0.0100029
0.0100042
0.0100059
0.0100078
0.0100048
0.00897836
0.00895219
0.00997567
0.0100086
0.0100176
0.0100102
0.0100021
0.00999866
0.00999876
0.00999969
0.0100001
0.0100012
0.0100013
0.0100016
0.0100021
0.0100028
0.0100041
0.0100059
0.0100078
0.0100048
0.00897829
0.00895225
0.0099756
0.0100085
0.0100175
0.0100102
0.0100021
0.00999865
0.00999874
0.00999966
0.0100001
0.010001
0.0100012
0.0100013
0.0100016
0.0100018
0.0100019
0.0100013
0.0099993
0.00999526
0.00998942
0.00998636
0.0099894
0.00999771
0.0100034
0.0100041
0.0100021
0.01
0.00999918
0.00999937
0.00999986
0.0100008
0.0100008
0.0100009
0.010001
0.0100009
0.0100007
0.0100001
0.009999
0.00999707
0.00999397
0.00999023
0.00998983
0.00999407
0.00999974
0.0100029
0.0100027
0.0100009
0.00999963
0.00999939
0.0099998
0.0100005
0.0100005
0.0100005
0.0100004
0.0100002
0.00999991
0.00999931
0.00999827
0.00999672
0.00999493
0.00999367
0.00999406
0.0099962
0.009999
0.0100009
0.0100011
0.0100005
0.00999977
0.00999956
0.00999981
0.0100002
0.0100002
0.0100001
0.00999995
0.00999972
0.00999938
0.00999885
0.00999812
0.00999725
0.00999641
0.00999582
0.00999577
0.00999654
0.0099979
0.00999922
0.00999997
0.0100001
0.00999987
0.00999974
0.00999986
0.0099999
0.00999985
0.00999975
0.00999958
0.00999935
0.00999904
0.00999863
0.00999813
0.00999756
0.00999699
0.0099966
0.0099966
0.00999708
0.00999796
0.00999891
0.0099996
0.00999988
0.00999988
0.00999984
0.0099999
0.00999965
0.00999959
0.00999946
0.00999929
0.00999907
0.00999881
0.0099985
0.00999814
0.00999777
0.00999744
0.00999724
0.00999726
0.00999754
0.00999806
0.00999867
0.00999919
0.00999951
0.00999967
0.00999977
0.0099999
0.00999945
0.00999937
0.00999924
0.00999906
0.00999886
0.00999864
0.00999839
0.00999814
0.00999788
0.00999766
0.00999753
0.00999755
0.00999774
0.00999808
0.00999851
0.00999893
0.00999928
0.00999954
0.00999973
0.00999989
0.00999929
0.0099992
0.00999907
0.0099989
0.00999871
0.00999852
0.00999833
0.00999814
0.00999797
0.00999782
0.00999774
0.00999774
0.00999788
0.00999814
0.00999848
0.00999885
0.00999919
0.00999947
0.00999971
0.0099999
0.00999915
0.00999906
0.00999891
0.00999873
0.00999856
0.00999838
0.00999821
0.00999805
0.0099979
0.00999778
0.00999771
0.00999773
0.00999785
0.00999807
0.00999836
0.00999869
0.00999903
0.00999933
0.0099996
0.00999985
)
;

boundaryField
{
    sides
    {
        type            zeroGradient;
    }
    inlet
    {
        type            zeroGradient;
    }
    outlet
    {
        type            fixedValue;
        value           uniform 0.01;
    }
    frontAndBack
    {
        type            empty;
    }
}


// ************************************************************************* //
