/*--------------------------------*- C++ -*----------------------------------*\
  =========                 |
  \\      /  F ield         | OpenFOAM: The Open Source CFD Toolbox
   \\    /   O peration     | Website:  https://openfoam.org
    \\  /    A nd           | Version:  9
     \\/     M anipulation  |
\*---------------------------------------------------------------------------*/
FoamFile
{
    format      ascii;
    class       volScalarField;
    location    "34";
    object      hTotal;
}
// * * * * * * * * * * * * * * * * * * * * * * * * * * * * * * * * * * * * * //

dimensions      [0 1 0 0 0 0 0];

internalField   nonuniform List<scalar> 
400
(
0.0100005
0.0100004
0.0100003
0.0100001
0.00999996
0.00999979
0.00999961
0.00999942
0.00999923
0.00999907
0.00999895
0.00999889
0.00999894
0.00999908
0.00999931
0.00999956
0.00999978
0.00999994
0.01
0.01
0.0100005
0.0100004
0.0100002
0.0100001
0.00999989
0.0099997
0.00999949
0.00999927
0.00999904
0.00999884
0.00999869
0.00999866
0.00999874
0.00999893
0.00999919
0.00999947
0.00999969
0.00999983
0.00999992
0.00999997
0.0100005
0.0100004
0.0100003
0.0100001
0.00999992
0.0099997
0.00999944
0.00999916
0.00999888
0.00999862
0.00999845
0.00999839
0.00999851
0.00999879
0.00999915
0.00999953
0.00999981
0.00999997
0.01
0.01
0.0100006
0.0100005
0.0100004
0.0100002
0.00999998
0.00999971
0.00999939
0.009999
0.00999859
0.0099982
0.00999794
0.00999791
0.00999815
0.00999863
0.00999917
0.0099996
0.00999983
0.00999989
0.0099999
0.00999994
0.0100007
0.0100006
0.0100005
0.0100003
0.0100001
0.00999979
0.00999936
0.00999884
0.00999823
0.00999764
0.00999719
0.00999716
0.00999761
0.00999845
0.00999937
0.01
0.0100002
0.0100001
0.01
0.00999997
0.0100008
0.0100008
0.0100007
0.0100006
0.0100003
0.00999997
0.00999943
0.00999867
0.00999778
0.00999691
0.00999631
0.00999619
0.00999693
0.00999826
0.00999954
0.0100003
0.0100003
0.0100001
0.00999986
0.00999989
0.010001
0.010001
0.010001
0.0100009
0.0100007
0.0100004
0.00999974
0.0099987
0.00999715
0.00999533
0.00999411
0.00999443
0.00999652
0.00999929
0.0100011
0.0100013
0.0100006
0.00999992
0.00999967
0.00999985
0.0100012
0.0100012
0.0100013
0.0100013
0.0100012
0.010001
0.0100004
0.00999927
0.00999732
0.00999425
0.00999026
0.00999011
0.00999431
0.00999998
0.0100031
0.0100028
0.0100011
0.00999971
0.00999942
0.0099998
0.0100013
0.0100014
0.0100015
0.0100018
0.010002
0.010002
0.0100014
0.00999945
0.00999542
0.00998955
0.00998674
0.00998951
0.00999781
0.0100034
0.0100042
0.0100022
0.0100001
0.00999921
0.00999936
0.00999985
0.0100013
0.0100014
0.0100017
0.0100021
0.0100028
0.0100041
0.0100059
0.0100078
0.0100048
0.00997832
0.00995219
0.00997562
0.0100086
0.0100176
0.0100102
0.0100021
0.00999866
0.00999877
0.0099997
0.0100001
0.0100012
0.0100014
0.0100016
0.0100021
0.0100028
0.0100041
0.0100058
0.0100077
0.0100047
0.00997827
0.0099522
0.0099756
0.0100085
0.0100175
0.0100102
0.0100021
0.00999866
0.00999875
0.00999967
0.0100001
0.0100011
0.0100012
0.0100013
0.0100016
0.0100018
0.0100018
0.0100012
0.00999926
0.00999522
0.00998941
0.00998637
0.00998937
0.00999769
0.0100033
0.0100041
0.0100021
0.01
0.00999919
0.00999938
0.00999986
0.0100008
0.0100009
0.0100009
0.0100009
0.0100009
0.0100006
0.0100001
0.00999897
0.00999705
0.00999393
0.00999019
0.00998982
0.00999404
0.00999973
0.0100029
0.0100027
0.0100009
0.00999964
0.00999939
0.0099998
0.0100005
0.0100005
0.0100005
0.0100004
0.0100002
0.0099999
0.00999929
0.00999825
0.0099967
0.00999492
0.00999366
0.00999403
0.00999618
0.00999898
0.0100008
0.0100011
0.0100005
0.00999977
0.00999956
0.00999981
0.0100002
0.0100002
0.0100001
0.00999995
0.00999973
0.00999938
0.00999885
0.00999811
0.00999724
0.0099964
0.0099958
0.00999575
0.00999651
0.00999787
0.0099992
0.00999996
0.0100001
0.00999987
0.00999975
0.00999986
0.0099999
0.00999985
0.00999975
0.00999958
0.00999935
0.00999905
0.00999865
0.00999814
0.00999756
0.00999699
0.00999659
0.00999657
0.00999705
0.00999793
0.00999889
0.00999958
0.00999987
0.00999988
0.00999985
0.00999991
0.00999964
0.00999958
0.00999946
0.0099993
0.00999908
0.00999883
0.00999853
0.00999817
0.00999778
0.00999744
0.00999722
0.00999723
0.00999751
0.00999803
0.00999865
0.00999918
0.00999952
0.00999968
0.00999978
0.0099999
0.00999943
0.00999935
0.00999923
0.00999907
0.00999888
0.00999867
0.00999843
0.00999817
0.00999791
0.00999767
0.00999752
0.00999753
0.00999771
0.00999806
0.00999849
0.00999893
0.00999929
0.00999954
0.00999973
0.0099999
0.00999927
0.00999918
0.00999906
0.0099989
0.00999874
0.00999856
0.00999838
0.00999819
0.009998
0.00999784
0.00999773
0.00999773
0.00999786
0.00999811
0.00999847
0.00999885
0.0099992
0.00999948
0.00999971
0.0099999
0.00999913
0.00999903
0.0099989
0.00999874
0.00999858
0.00999842
0.00999826
0.00999809
0.00999793
0.00999779
0.00999771
0.00999772
0.00999783
0.00999805
0.00999835
0.00999869
0.00999903
0.00999933
0.0099996
0.00999985
)
;

boundaryField
{
    sides
    {
        type            calculated;
        value           nonuniform List<scalar> 
40
(
0.00999913
0.00999903
0.0099989
0.00999874
0.00999858
0.00999842
0.00999826
0.00999809
0.00999793
0.00999779
0.00999771
0.00999772
0.00999783
0.00999805
0.00999835
0.00999869
0.00999903
0.00999933
0.0099996
0.00999985
0.0100005
0.0100004
0.0100003
0.0100001
0.00999996
0.00999979
0.00999961
0.00999942
0.00999923
0.00999907
0.00999895
0.00999889
0.00999894
0.00999908
0.00999931
0.00999956
0.00999978
0.00999994
0.01
0.01
)
;
    }
    inlet
    {
        type            calculated;
        value           nonuniform List<scalar> 
20
(
0.0100005
0.0100005
0.0100005
0.0100006
0.0100007
0.0100008
0.010001
0.0100012
0.0100013
0.0100013
0.0100012
0.0100011
0.0100008
0.0100005
0.0100002
0.0099999
0.00999964
0.00999943
0.00999927
0.00999913
)
;
    }
    outlet
    {
        type            calculated;
        value           uniform 0.01;
    }
    frontAndBack
    {
        type            empty;
    }
}


// ************************************************************************* //
