/*--------------------------------*- C++ -*----------------------------------*\
  =========                 |
  \\      /  F ield         | OpenFOAM: The Open Source CFD Toolbox
   \\    /   O peration     | Website:  https://openfoam.org
    \\  /    A nd           | Version:  9
     \\/     M anipulation  |
\*---------------------------------------------------------------------------*/
FoamFile
{
    format      ascii;
    class       volVectorField;
    location    "34";
    object      hU;
}
// * * * * * * * * * * * * * * * * * * * * * * * * * * * * * * * * * * * * * //

dimensions      [0 2 -1 0 0 0 0];

internalField   nonuniform List<vector> 
400
(
(0.00100001 -2.37783e-08 0)
(0.00100006 -7.18217e-08 0)
(0.00100015 -1.16012e-07 0)
(0.00100028 -1.53805e-07 0)
(0.00100043 -1.86059e-07 0)
(0.00100059 -2.17164e-07 0)
(0.00100078 -2.44962e-07 0)
(0.00100099 -2.60063e-07 0)
(0.00100119 -2.49066e-07 0)
(0.00100134 -2.14135e-07 0)
(0.00100142 -1.64844e-07 0)
(0.00100141 -1.28409e-07 0)
(0.00100132 -1.03518e-07 0)
(0.00100117 -9.83059e-08 0)
(0.00100095 -9.92328e-08 0)
(0.00100072 -1.28598e-07 0)
(0.0010005 -1.49309e-07 0)
(0.00100039 -1.97405e-07 0)
(0.00100033 -1.8559e-07 0)
(0.00100042 -2.66344e-07 0)
(0.00100001 -2.62054e-08 0)
(0.00100007 -8.25046e-08 0)
(0.00100016 -1.36799e-07 0)
(0.0010003 -1.8082e-07 0)
(0.00100046 -2.13585e-07 0)
(0.00100063 -2.43191e-07 0)
(0.00100084 -2.66384e-07 0)
(0.00100108 -2.57567e-07 0)
(0.00100131 -1.86714e-07 0)
(0.00100149 -5.66407e-08 0)
(0.00100158 1.01485e-07 0)
(0.00100156 2.47887e-07 0)
(0.00100145 3.72565e-07 0)
(0.00100125 4.59724e-07 0)
(0.001001 5.05501e-07 0)
(0.00100075 4.71667e-07 0)
(0.00100055 3.99342e-07 0)
(0.00100043 2.49885e-07 0)
(0.0010004 1.79268e-07 0)
(0.00100036 7.14771e-08 0)
(0.00100001 -5.30042e-08 0)
(0.00100006 -1.659e-07 0)
(0.00100015 -2.81271e-07 0)
(0.00100029 -3.85509e-07 0)
(0.00100046 -4.75456e-07 0)
(0.00100066 -5.60676e-07 0)
(0.0010009 -6.34599e-07 0)
(0.00100117 -6.53007e-07 0)
(0.00100144 -5.65583e-07 0)
(0.00100166 -3.64276e-07 0)
(0.00100178 -9.76135e-08 0)
(0.00100178 1.64149e-07 0)
(0.00100163 3.75521e-07 0)
(0.00100137 4.92946e-07 0)
(0.00100102 4.99633e-07 0)
(0.0010007 3.83283e-07 0)
(0.00100043 2.34904e-07 0)
(0.00100031 4.34097e-08 0)
(0.00100028 -2.95428e-08 0)
(0.00100038 -1.26607e-07 0)
(0.00100001 -7.52761e-08 0)
(0.00100006 -2.32744e-07 0)
(0.00100014 -3.94215e-07 0)
(0.00100029 -5.45393e-07 0)
(0.00100047 -6.82479e-07 0)
(0.0010007 -8.16673e-07 0)
(0.001001 -9.28551e-07 0)
(0.00100135 -9.55711e-07 0)
(0.00100172 -8.16289e-07 0)
(0.00100204 -4.88792e-07 0)
(0.00100224 -4.03842e-09 0)
(0.00100222 4.94351e-07 0)
(0.00100196 9.07066e-07 0)
(0.00100152 1.10896e-06 0)
(0.00100104 1.05768e-06 0)
(0.00100066 7.84087e-07 0)
(0.00100048 4.66068e-07 0)
(0.00100042 1.65446e-07 0)
(0.00100047 6.64679e-08 0)
(0.00100041 -1.3966e-08 0)
(0.00100001 -9.44317e-08 0)
(0.00100005 -2.91187e-07 0)
(0.00100013 -4.99479e-07 0)
(0.00100026 -7.11467e-07 0)
(0.00100046 -9.23829e-07 0)
(0.00100073 -1.14712e-06 0)
(0.0010011 -1.34279e-06 0)
(0.00100156 -1.41475e-06 0)
(0.00100208 -1.24001e-06 0)
(0.00100258 -7.94214e-07 0)
(0.00100292 -1.48684e-07 0)
(0.00100291 5.87717e-07 0)
(0.00100249 1.2026e-06 0)
(0.00100173 1.48098e-06 0)
(0.00100093 1.37929e-06 0)
(0.00100038 1.00876e-06 0)
(0.00100019 6.27259e-07 0)
(0.00100027 3.04942e-07 0)
(0.00100043 2.12879e-07 0)
(0.0010005 1.4792e-07 0)
(0.00100001 -1.08497e-07 0)
(0.00100003 -3.33248e-07 0)
(0.00100008 -5.85011e-07 0)
(0.0010002 -8.62057e-07 0)
(0.00100039 -1.17589e-06 0)
(0.00100069 -1.53288e-06 0)
(0.00100115 -1.90329e-06 0)
(0.0010018 -2.13211e-06 0)
(0.00100255 -1.97927e-06 0)
(0.00100327 -1.21483e-06 0)
(0.0010038 1.01155e-07 0)
(0.00100381 1.5484e-06 0)
(0.00100314 2.40224e-06 0)
(0.00100197 2.27448e-06 0)
(0.00100087 1.43832e-06 0)
(0.00100025 5.38851e-07 0)
(0.00100024 5.93371e-08 0)
(0.00100044 -8.56932e-08 0)
(0.0010007 2.48395e-08 0)
(0.00100061 3.35665e-08 0)
(0.001 -1.08693e-07 0)
(0.001 -3.47497e-07 0)
(0.00100001 -6.21932e-07 0)
(0.00100007 -9.76613e-07 0)
(0.00100021 -1.39441e-06 0)
(0.00100049 -1.95331e-06 0)
(0.00100101 -2.5284e-06 0)
(0.00100189 -3.15196e-06 0)
(0.00100322 -3.29002e-06 0)
(0.00100474 -2.89096e-06 0)
(0.00100576 -6.56198e-07 0)
(0.0010054 2.56708e-06 0)
(0.00100355 4.8104e-06 0)
(0.00100118 4.71603e-06 0)
(0.000999663 3.0427e-06 0)
(0.000999429 1.31575e-06 0)
(0.00100007 4.80688e-07 0)
(0.00100063 3.23313e-07 0)
(0.00100098 5.21457e-07 0)
(0.00100071 5.13972e-07 0)
(0.001 -9.80425e-08 0)
(0.000999962 -2.99424e-07 0)
(0.00099989 -5.91205e-07 0)
(0.000999863 -9.66584e-07 0)
(0.000999874 -1.57746e-06 0)
(0.0010001 -2.34956e-06 0)
(0.00100052 -3.43524e-06 0)
(0.00100154 -4.18316e-06 0)
(0.00100309 -4.42256e-06 0)
(0.00100602 -2.56416e-06 0)
(0.00100912 7.82157e-07 0)
(0.00100921 4.27891e-06 0)
(0.00100555 4.7078e-06 0)
(0.00100078 2.77263e-06 0)
(0.000998198 7.50709e-07 0)
(0.000998328 -2.27013e-07 0)
(0.000999861 -2.39022e-07 0)
(0.00100095 -5.10553e-09 0)
(0.00100139 1.85291e-07 0)
(0.0010009 8.69632e-08 0)
(0.001 -5.2249e-08 0)
(0.000999907 -2.08533e-07 0)
(0.000999733 -3.92124e-07 0)
(0.000999511 -7.3724e-07 0)
(0.000999278 -1.33453e-06 0)
(0.000999209 -2.48073e-06 0)
(0.000999716 -4.70589e-06 0)
(0.00100141 -8.10481e-06 0)
(0.00100493 -1.33198e-05 0)
(0.0010096 -1.49271e-05 0)
(0.00101193 3.86249e-06 0)
(0.00100897 1.8734e-05 0)
(0.00100227 1.57715e-05 0)
(0.000997617 5.73798e-06 0)
(0.000996933 -3.05254e-07 0)
(0.000998514 -1.2328e-06 0)
(0.00100034 -6.36517e-08 0)
(0.00100108 6.40601e-07 0)
(0.00100113 6.34194e-07 0)
(0.00100059 2.2778e-07 0)
(0.000999809 -1.90524e-08 0)
(0.00100016 -6.37342e-08 0)
(0.000999189 -1.46549e-07 0)
(0.000999881 -2.4107e-07 0)
(0.000997509 -5.81951e-07 0)
(0.000998844 -1.12352e-06 0)
(0.000993361 -2.88475e-06 0)
(0.000997548 -5.60226e-06 0)
(0.00099168 -1.15523e-05 0)
(0.000915847 -1.27126e-05 0)
(0.00095149 2.64991e-07 0)
(0.00101027 1.46463e-05 0)
(0.000991002 1.30917e-05 0)
(0.000984018 5.14816e-06 0)
(0.000989628 2.06558e-07 0)
(0.000996336 -7.62597e-07 0)
(0.000999303 -9.59542e-08 0)
(0.000999484 2.55144e-07 0)
(0.0009987 1.67233e-07 0)
(0.000998552 -1.98566e-07 0)
(0.000999809 1.78545e-08 0)
(0.00100016 5.6561e-08 0)
(0.000999189 1.32746e-07 0)
(0.000999879 2.1768e-07 0)
(0.000997506 5.4549e-07 0)
(0.000998838 1.06436e-06 0)
(0.000993352 2.79845e-06 0)
(0.000997534 5.48057e-06 0)
(0.000991665 1.13959e-05 0)
(0.000915819 1.2547e-05 0)
(0.000951453 -4.82075e-07 0)
(0.00101025 -1.49145e-05 0)
(0.000990997 -1.34004e-05 0)
(0.000984009 -5.5189e-06 0)
(0.00098961 -6.32693e-07 0)
(0.000996296 2.60177e-07 0)
(0.000999261 -4.68054e-07 0)
(0.000999438 -9.91483e-07 0)
(0.000998684 -9.81404e-07 0)
(0.000998501 -8.99605e-07 0)
(0.001 5.03248e-08 0)
(0.000999907 2.00861e-07 0)
(0.000999731 3.77858e-07 0)
(0.00099951 7.13731e-07 0)
(0.000999276 1.298e-06 0)
(0.00099921 2.42116e-06 0)
(0.000999713 4.61795e-06 0)
(0.00100141 7.97813e-06 0)
(0.00100492 1.3157e-05 0)
(0.0010096 1.47162e-05 0)
(0.00101191 -4.08402e-06 0)
(0.00100894 -1.90088e-05 0)
(0.00100219 -1.60764e-05 0)
(0.000997523 -6.09561e-06 0)
(0.000996858 -7.18444e-08 0)
(0.000998452 7.7249e-07 0)
(0.00100023 -4.36957e-07 0)
(0.00100092 -1.29638e-06 0)
(0.00100093 -1.36233e-06 0)
(0.00100042 -1.2579e-06 0)
(0.001 9.51057e-08 0)
(0.000999962 2.91093e-07 0)
(0.000999887 5.7603e-07 0)
(0.000999858 9.42631e-07 0)
(0.000999867 1.53818e-06 0)
(0.00100008 2.28609e-06 0)
(0.00100049 3.33608e-06 0)
(0.0010015 4.04758e-06 0)
(0.00100304 4.25218e-06 0)
(0.00100595 2.36487e-06 0)
(0.00100905 -1.00479e-06 0)
(0.00100911 -4.54744e-06 0)
(0.00100547 -4.99586e-06 0)
(0.0010007 -3.09776e-06 0)
(0.0009981 -1.12132e-06 0)
(0.000998187 -2.66422e-07 0)
(0.000999686 -3.44434e-07 0)
(0.00100071 -7.28433e-07 0)
(0.00100112 -9.3771e-07 0)
(0.0010006 -1.07721e-06 0)
(0.001 1.05112e-07 0)
(0.001 3.38131e-07 0)
(0.00100001 6.06433e-07 0)
(0.00100007 9.52167e-07 0)
(0.0010002 1.35732e-06 0)
(0.00100047 1.89599e-06 0)
(0.00100098 2.4474e-06 0)
(0.00100187 3.04362e-06 0)
(0.00100319 3.16184e-06 0)
(0.0010047 2.7367e-06 0)
(0.0010057 4.83227e-07 0)
(0.00100531 -2.76746e-06 0)
(0.00100343 -5.04837e-06 0)
(0.00100101 -5.02913e-06 0)
(0.00099946 -3.4367e-06 0)
(0.000999179 -1.81502e-06 0)
(0.000999811 -1.04993e-06 0)
(0.00100032 -1.04229e-06 0)
(0.00100067 -1.2683e-06 0)
(0.00100029 -1.51629e-06 0)
(0.00100001 1.04666e-07 0)
(0.00100003 3.23785e-07 0)
(0.00100008 5.70347e-07 0)
(0.00100019 8.39546e-07 0)
(0.00100038 1.14265e-06 0)
(0.00100067 1.48288e-06 0)
(0.00100113 1.8318e-06 0)
(0.00100175 2.02987e-06 0)
(0.00100249 1.8433e-06 0)
(0.00100318 1.04071e-06 0)
(0.00100367 -3.09364e-07 0)
(0.00100366 -1.78165e-06 0)
(0.00100296 -2.66535e-06 0)
(0.00100175 -2.58164e-06 0)
(0.00100063 -1.76524e-06 0)
(0.000999964 -9.18402e-07 0)
(0.000999925 -4.58283e-07 0)
(0.00100005 -4.31595e-07 0)
(0.00100028 -5.74034e-07 0)
(0.00100006 -8.46796e-07 0)
(0.00100001 9.03354e-08 0)
(0.00100004 2.82045e-07 0)
(0.00100012 4.86224e-07 0)
(0.00100026 6.92137e-07 0)
(0.00100045 8.94799e-07 0)
(0.00100071 1.10453e-06 0)
(0.00100106 1.28193e-06 0)
(0.00100151 1.33156e-06 0)
(0.00100201 1.13452e-06 0)
(0.00100249 6.65344e-07 0)
(0.00100282 -7.02239e-09 0)
(0.00100277 -7.76798e-07 0)
(0.0010023 -1.41394e-06 0)
(0.00100151 -1.72946e-06 0)
(0.00100068 -1.65525e-06 0)
(0.00100007 -1.37172e-06 0)
(0.000999859 -1.06049e-06 0)
(0.000999829 -9.18536e-07 0)
(0.00099995 -9.01556e-07 0)
(0.000999831 -1.10631e-06 0)
(0.00100001 7.09644e-08 0)
(0.00100005 2.23051e-07 0)
(0.00100014 3.80641e-07 0)
(0.00100028 5.27158e-07 0)
(0.00100046 6.57712e-07 0)
(0.00100068 7.81604e-07 0)
(0.00100096 8.82008e-07 0)
(0.00100129 8.96287e-07 0)
(0.00100164 7.47972e-07 0)
(0.00100192 4.16909e-07 0)
(0.00100207 -6.48871e-08 0)
(0.00100201 -5.76582e-07 0)
(0.00100174 -9.96177e-07 0)
(0.00100125 -1.235e-06 0)
(0.00100071 -1.21568e-06 0)
(0.00100023 -1.0154e-06 0)
(0.000999981 -7.29657e-07 0)
(0.000999801 -5.40078e-07 0)
(0.000999816 -4.48389e-07 0)
(0.000999626 -5.96017e-07 0)
(0.00100001 5.01822e-08 0)
(0.00100006 1.58767e-07 0)
(0.00100015 2.66334e-07 0)
(0.00100028 3.57431e-07 0)
(0.00100045 4.3068e-07 0)
(0.00100064 4.94642e-07 0)
(0.00100086 5.43527e-07 0)
(0.00100112 5.29498e-07 0)
(0.00100138 4.06871e-07 0)
(0.00100158 1.64253e-07 0)
(0.00100168 -1.30497e-07 0)
(0.00100162 -4.17024e-07 0)
(0.00100142 -6.47155e-07 0)
(0.00100108 -8.05152e-07 0)
(0.0010007 -8.3915e-07 0)
(0.00100029 -7.87024e-07 0)
(0.00100001 -6.60383e-07 0)
(0.000999747 -5.86516e-07 0)
(0.000999695 -5.33185e-07 0)
(0.000999458 -6.82514e-07 0)
(0.00100001 3.36569e-08 0)
(0.00100006 1.09188e-07 0)
(0.00100014 1.86058e-07 0)
(0.00100027 2.53276e-07 0)
(0.00100042 3.08088e-07 0)
(0.00100058 3.57e-07 0)
(0.00100077 3.96883e-07 0)
(0.00100098 4.03833e-07 0)
(0.00100118 3.48049e-07 0)
(0.00100131 2.2961e-07 0)
(0.00100137 7.67822e-08 0)
(0.00100132 -7.20411e-08 0)
(0.00100118 -1.87414e-07 0)
(0.00100092 -2.73576e-07 0)
(0.00100061 -3.04015e-07 0)
(0.00100024 -2.92237e-07 0)
(0.000999964 -2.18183e-07 0)
(0.000999669 -1.62807e-07 0)
(0.000999589 -1.01143e-07 0)
(0.000999328 -1.98193e-07 0)
(0.00100001 -4.53985e-09 0)
(0.00100006 -8.96588e-09 0)
(0.00100015 -9.385e-09 0)
(0.00100028 -1.0304e-08 0)
(0.00100043 -1.40822e-08 0)
(0.00100058 -2.00041e-08 0)
(0.00100076 -2.73158e-08 0)
(0.00100095 -4.30658e-08 0)
(0.00100113 -7.23387e-08 0)
(0.00100125 -1.19391e-07 0)
(0.00100129 -1.72045e-07 0)
(0.00100122 -2.27259e-07 0)
(0.00100109 -2.79281e-07 0)
(0.00100086 -3.30745e-07 0)
(0.0010006 -3.55973e-07 0)
(0.00100026 -3.71256e-07 0)
(0.00100001 -3.47585e-07 0)
(0.000999664 -3.50313e-07 0)
(0.000999593 -3.21252e-07 0)
(0.000999209 -4.09826e-07 0)
)
;

boundaryField
{
    sides
    {
        type            slip;
    }
    inlet
    {
        type            fixedValue;
        value           uniform (0.001 0 0);
    }
    outlet
    {
        type            zeroGradient;
    }
    frontAndBack
    {
        type            empty;
    }
}


// ************************************************************************* //
