/*--------------------------------*- C++ -*----------------------------------*\
  =========                 |
  \\      /  F ield         | OpenFOAM: The Open Source CFD Toolbox
   \\    /   O peration     | Website:  https://openfoam.org
    \\  /    A nd           | Version:  9
     \\/     M anipulation  |
\*---------------------------------------------------------------------------*/
FoamFile
{
    format      ascii;
    class       volVectorField;
    location    "34";
    object      hU_0;
}
// * * * * * * * * * * * * * * * * * * * * * * * * * * * * * * * * * * * * * //

dimensions      [0 2 -1 0 0 0 0];

internalField   nonuniform List<vector> 
400
(
(0.00100001 -2.34643e-08 0)
(0.00100006 -7.14336e-08 0)
(0.00100015 -1.14842e-07 0)
(0.00100028 -1.51794e-07 0)
(0.00100043 -1.84528e-07 0)
(0.00100059 -2.17118e-07 0)
(0.00100078 -2.46045e-07 0)
(0.001001 -2.60584e-07 0)
(0.00100119 -2.48555e-07 0)
(0.00100134 -2.1355e-07 0)
(0.00100141 -1.6657e-07 0)
(0.0010014 -1.30757e-07 0)
(0.00100132 -1.05234e-07 0)
(0.00100117 -9.87241e-08 0)
(0.00100095 -9.86317e-08 0)
(0.00100072 -1.2863e-07 0)
(0.0010005 -1.50428e-07 0)
(0.00100039 -1.98244e-07 0)
(0.00100034 -1.85886e-07 0)
(0.00100042 -2.66252e-07 0)
(0.00100001 -2.52352e-08 0)
(0.00100006 -8.12181e-08 0)
(0.00100016 -1.33635e-07 0)
(0.00100029 -1.75758e-07 0)
(0.00100045 -2.09571e-07 0)
(0.00100063 -2.42936e-07 0)
(0.00100084 -2.69341e-07 0)
(0.00100108 -2.59765e-07 0)
(0.00100131 -1.86283e-07 0)
(0.00100149 -5.59924e-08 0)
(0.00100157 9.84814e-08 0)
(0.00100155 2.41012e-07 0)
(0.00100144 3.67347e-07 0)
(0.00100124 4.58866e-07 0)
(0.001001 5.0706e-07 0)
(0.00100074 4.71715e-07 0)
(0.00100055 3.94926e-07 0)
(0.00100043 2.43715e-07 0)
(0.0010004 1.78251e-07 0)
(0.00100037 7.31423e-08 0)
(0.00100001 -5.15113e-08 0)
(0.00100006 -1.63579e-07 0)
(0.00100015 -2.76328e-07 0)
(0.00100029 -3.7838e-07 0)
(0.00100046 -4.69878e-07 0)
(0.00100066 -5.60717e-07 0)
(0.0010009 -6.39404e-07 0)
(0.00100117 -6.57121e-07 0)
(0.00100144 -5.65238e-07 0)
(0.00100166 -3.64173e-07 0)
(0.00100177 -1.02367e-07 0)
(0.00100177 1.53558e-07 0)
(0.00100163 3.66773e-07 0)
(0.00100136 4.9157e-07 0)
(0.00100102 5.01846e-07 0)
(0.00100069 3.83171e-07 0)
(0.00100043 2.28865e-07 0)
(0.00100032 3.53639e-08 0)
(0.00100029 -3.11977e-08 0)
(0.00100039 -1.24635e-07 0)
(0.00100001 -7.34767e-08 0)
(0.00100005 -2.2948e-07 0)
(0.00100014 -3.87956e-07 0)
(0.00100028 -5.36885e-07 0)
(0.00100047 -6.76151e-07 0)
(0.0010007 -8.17371e-07 0)
(0.001001 -9.3544e-07 0)
(0.00100135 -9.61235e-07 0)
(0.00100172 -8.16687e-07 0)
(0.00100204 -4.88314e-07 0)
(0.00100223 -1.28136e-08 0)
(0.00100221 4.81118e-07 0)
(0.00100196 8.96716e-07 0)
(0.00100152 1.10696e-06 0)
(0.00100104 1.06056e-06 0)
(0.00100066 7.83825e-07 0)
(0.00100048 4.57785e-07 0)
(0.00100043 1.55024e-07 0)
(0.00100047 6.49799e-08 0)
(0.00100042 -1.09194e-08 0)
(0.00100001 -9.25066e-08 0)
(0.00100004 -2.87358e-07 0)
(0.00100012 -4.92823e-07 0)
(0.00100026 -7.02623e-07 0)
(0.00100046 -9.17382e-07 0)
(0.00100073 -1.14872e-06 0)
(0.0010011 -1.35116e-06 0)
(0.00100156 -1.42167e-06 0)
(0.00100207 -1.2415e-06 0)
(0.00100258 -7.94783e-07 0)
(0.00100291 -1.5589e-07 0)
(0.00100291 5.72223e-07 0)
(0.00100248 1.19116e-06 0)
(0.00100173 1.47844e-06 0)
(0.00100093 1.38171e-06 0)
(0.00100038 1.00863e-06 0)
(0.0010002 6.18659e-07 0)
(0.00100028 2.9324e-07 0)
(0.00100044 2.11419e-07 0)
(0.00100051 1.51646e-07 0)
(0.00100001 -1.06673e-07 0)
(0.00100003 -3.29392e-07 0)
(0.00100008 -5.78624e-07 0)
(0.0010002 -8.53514e-07 0)
(0.00100039 -1.16995e-06 0)
(0.00100069 -1.53533e-06 0)
(0.00100115 -1.91257e-06 0)
(0.00100179 -2.14029e-06 0)
(0.00100255 -1.98037e-06 0)
(0.00100327 -1.21746e-06 0)
(0.00100379 9.67907e-08 0)
(0.00100381 1.53323e-06 0)
(0.00100314 2.38975e-06 0)
(0.00100196 2.27299e-06 0)
(0.00100087 1.44166e-06 0)
(0.00100026 5.3917e-07 0)
(0.00100025 5.22821e-08 0)
(0.00100045 -9.54099e-08 0)
(0.0010007 2.29901e-08 0)
(0.00100061 3.63137e-08 0)
(0.001 -1.07179e-07 0)
(0.001 -3.44118e-07 0)
(0.00100001 -6.16373e-07 0)
(0.00100007 -9.68981e-07 0)
(0.00100021 -1.3893e-06 0)
(0.00100048 -1.95615e-06 0)
(0.001001 -2.53791e-06 0)
(0.00100189 -3.16049e-06 0)
(0.00100322 -3.29387e-06 0)
(0.00100474 -2.89233e-06 0)
(0.00100576 -6.63103e-07 0)
(0.00100539 2.55919e-06 0)
(0.00100354 4.79978e-06 0)
(0.00100118 4.71375e-06 0)
(0.000999664 3.04608e-06 0)
(0.000999434 1.31582e-06 0)
(0.00100008 4.71519e-07 0)
(0.00100064 3.11733e-07 0)
(0.00100099 5.19153e-07 0)
(0.00100072 5.16757e-07 0)
(0.001 -9.70136e-08 0)
(0.00099996 -2.96892e-07 0)
(0.000999887 -5.86923e-07 0)
(0.00099986 -9.6051e-07 0)
(0.00099987 -1.57345e-06 0)
(0.00100009 -2.35237e-06 0)
(0.00100051 -3.44378e-06 0)
(0.00100153 -4.19102e-06 0)
(0.00100309 -4.42611e-06 0)
(0.00100602 -2.56632e-06 0)
(0.00100915 7.70824e-07 0)
(0.0010092 4.26285e-06 0)
(0.00100554 4.70039e-06 0)
(0.00100078 2.77142e-06 0)
(0.000998201 7.53211e-07 0)
(0.000998333 -2.26808e-07 0)
(0.00099987 -2.46519e-07 0)
(0.00100096 -1.4586e-08 0)
(0.0010014 1.82338e-07 0)
(0.00100091 8.83707e-08 0)
(0.001 -5.17153e-08 0)
(0.000999904 -2.07007e-07 0)
(0.00099973 -3.89378e-07 0)
(0.000999509 -7.33237e-07 0)
(0.000999274 -1.33215e-06 0)
(0.000999203 -2.48328e-06 0)
(0.000999708 -4.71214e-06 0)
(0.0010014 -8.11045e-06 0)
(0.00100492 -1.33226e-05 0)
(0.0010096 -1.49279e-05 0)
(0.0010119 3.85278e-06 0)
(0.00100897 1.87213e-05 0)
(0.00100227 1.57674e-05 0)
(0.000997616 5.7382e-06 0)
(0.000996935 -3.034e-07 0)
(0.00099852 -1.23193e-06 0)
(0.00100035 -6.66386e-08 0)
(0.00100108 6.35233e-07 0)
(0.00100114 6.31421e-07 0)
(0.0010006 2.28073e-07 0)
(0.000999808 -1.89147e-08 0)
(0.00100016 -6.32516e-08 0)
(0.000999187 -1.45514e-07 0)
(0.000999878 -2.39575e-07 0)
(0.000997504 -5.81386e-07 0)
(0.000998837 -1.12538e-06 0)
(0.000993353 -2.88783e-06 0)
(0.000997539 -5.60463e-06 0)
(0.000991674 -1.15546e-05 0)
(0.000915843 -1.27136e-05 0)
(0.000951486 2.66841e-07 0)
(0.00101027 1.46497e-05 0)
(0.000991001 1.30896e-05 0)
(0.000984015 5.14773e-06 0)
(0.000989632 2.07406e-07 0)
(0.000996343 -7.6242e-07 0)
(0.000999312 -9.71125e-08 0)
(0.000999491 2.52652e-07 0)
(0.000998706 1.64799e-07 0)
(0.000998561 -1.99237e-07 0)
(0.000999808 1.76664e-08 0)
(0.00100016 5.59917e-08 0)
(0.000999186 1.31891e-07 0)
(0.000999877 2.16387e-07 0)
(0.000997502 5.44218e-07 0)
(0.000998832 1.06426e-06 0)
(0.000993344 2.79934e-06 0)
(0.000997525 5.48141e-06 0)
(0.000991658 1.13978e-05 0)
(0.000915816 1.25464e-05 0)
(0.000951459 -4.84857e-07 0)
(0.00101025 -1.49109e-05 0)
(0.000990995 -1.33987e-05 0)
(0.000984009 -5.51806e-06 0)
(0.000989613 -6.32623e-07 0)
(0.000996302 2.59914e-07 0)
(0.00099927 -4.67739e-07 0)
(0.000999444 -9.91036e-07 0)
(0.000998691 -9.83505e-07 0)
(0.000998511 -9.01404e-07 0)
(0.000999999 4.98666e-08 0)
(0.000999905 1.99354e-07 0)
(0.000999729 3.75218e-07 0)
(0.000999508 7.09649e-07 0)
(0.000999272 1.29486e-06 0)
(0.000999204 2.42202e-06 0)
(0.000999706 4.62191e-06 0)
(0.0010014 7.98113e-06 0)
(0.00100491 1.3158e-05 0)
(0.00100959 1.47183e-05 0)
(0.00101191 -4.0707e-06 0)
(0.00100895 -1.90008e-05 0)
(0.00100219 -1.60684e-05 0)
(0.000997523 -6.0942e-06 0)
(0.000996861 -7.38861e-08 0)
(0.000998459 7.71214e-07 0)
(0.00100024 -4.35397e-07 0)
(0.00100093 -1.2929e-06 0)
(0.00100094 -1.36349e-06 0)
(0.00100042 -1.2605e-06 0)
(0.001 9.43125e-08 0)
(0.00099996 2.88762e-07 0)
(0.000999885 5.71872e-07 0)
(0.000999856 9.36192e-07 0)
(0.000999863 1.53305e-06 0)
(0.00100008 2.28708e-06 0)
(0.00100049 3.34183e-06 0)
(0.0010015 4.05244e-06 0)
(0.00100303 4.25343e-06 0)
(0.00100596 2.36824e-06 0)
(0.00100905 -9.90366e-07 0)
(0.0010091 -4.53372e-06 0)
(0.00100547 -4.98529e-06 0)
(0.0010007 -3.09572e-06 0)
(0.000998102 -1.12403e-06 0)
(0.000998194 -2.67884e-07 0)
(0.000999695 -3.40201e-07 0)
(0.00100072 -7.21599e-07 0)
(0.00100113 -9.38788e-07 0)
(0.00100061 -1.08097e-06 0)
(0.001 1.03874e-07 0)
(0.000999999 3.35182e-07 0)
(0.00100001 6.01147e-07 0)
(0.00100006 9.44161e-07 0)
(0.0010002 1.35076e-06 0)
(0.00100047 1.89675e-06 0)
(0.00100098 2.45462e-06 0)
(0.00100186 3.05007e-06 0)
(0.00100318 3.16405e-06 0)
(0.0010047 2.73893e-06 0)
(0.0010057 4.83049e-07 0)
(0.00100531 -2.75183e-06 0)
(0.00100342 -5.03657e-06 0)
(0.00100101 -5.02633e-06 0)
(0.000999462 -3.43957e-06 0)
(0.000999185 -1.81579e-06 0)
(0.00099982 -1.04335e-06 0)
(0.00100033 -1.03317e-06 0)
(0.00100068 -1.26939e-06 0)
(0.0010003 -1.52085e-06 0)
(0.00100001 1.03073e-07 0)
(0.00100003 3.20562e-07 0)
(0.00100008 5.64391e-07 0)
(0.00100019 8.30777e-07 0)
(0.00100037 1.1353e-06 0)
(0.00100067 1.48283e-06 0)
(0.00100112 1.83872e-06 0)
(0.00100175 2.0361e-06 0)
(0.00100248 1.8445e-06 0)
(0.00100318 1.04151e-06 0)
(0.00100367 -2.95334e-07 0)
(0.00100366 -1.76412e-06 0)
(0.00100296 -2.65184e-06 0)
(0.00100175 -2.57848e-06 0)
(0.00100063 -1.76772e-06 0)
(0.000999969 -9.18603e-07 0)
(0.000999932 -4.51202e-07 0)
(0.00100006 -4.21791e-07 0)
(0.00100028 -5.74925e-07 0)
(0.00100007 -8.51631e-07 0)
(0.00100001 8.86072e-08 0)
(0.00100004 2.78943e-07 0)
(0.00100012 4.79979e-07 0)
(0.00100025 6.83078e-07 0)
(0.00100044 8.8732e-07 0)
(0.00100071 1.10388e-06 0)
(0.00100106 1.28752e-06 0)
(0.00100151 1.33679e-06 0)
(0.00100201 1.1349e-06 0)
(0.00100249 6.66704e-07 0)
(0.00100282 1.63317e-09 0)
(0.00100277 -7.60342e-07 0)
(0.0010023 -1.40009e-06 0)
(0.0010015 -1.72515e-06 0)
(0.00100068 -1.65657e-06 0)
(0.00100007 -1.37128e-06 0)
(0.000999863 -1.05275e-06 0)
(0.000999835 -9.08419e-07 0)
(0.000999956 -9.02692e-07 0)
(0.000999838 -1.1113e-06 0)
(0.00100001 6.93217e-08 0)
(0.00100005 2.20371e-07 0)
(0.00100014 3.74782e-07 0)
(0.00100028 5.18466e-07 0)
(0.00100046 6.50725e-07 0)
(0.00100068 7.8083e-07 0)
(0.00100096 8.86481e-07 0)
(0.00100129 8.99902e-07 0)
(0.00100164 7.47313e-07 0)
(0.00100192 4.16216e-07 0)
(0.00100206 -5.9214e-08 0)
(0.00100201 -5.62843e-07 0)
(0.00100174 -9.84281e-07 0)
(0.00100125 -1.23177e-06 0)
(0.00100071 -1.21761e-06 0)
(0.00100023 -1.01521e-06 0)
(0.000999983 -7.22574e-07 0)
(0.000999806 -5.30949e-07 0)
(0.000999822 -4.49313e-07 0)
(0.000999633 -6.00356e-07 0)
(0.00100001 4.89263e-08 0)
(0.00100005 1.5683e-07 0)
(0.00100014 2.61382e-07 0)
(0.00100028 3.49799e-07 0)
(0.00100045 4.24584e-07 0)
(0.00100064 4.94087e-07 0)
(0.00100087 5.47063e-07 0)
(0.00100113 5.31721e-07 0)
(0.00100138 4.05138e-07 0)
(0.00100158 1.62858e-07 0)
(0.00100167 -1.24697e-07 0)
(0.00100161 -4.06115e-07 0)
(0.00100141 -6.38425e-07 0)
(0.00100108 -8.03373e-07 0)
(0.0010007 -8.41132e-07 0)
(0.00100029 -7.87195e-07 0)
(0.00100002 -6.55184e-07 0)
(0.000999751 -5.79358e-07 0)
(0.000999702 -5.33295e-07 0)
(0.000999465 -6.85539e-07 0)
(0.00100001 3.28428e-08 0)
(0.00100005 1.08109e-07 0)
(0.00100014 1.82851e-07 0)
(0.00100027 2.48157e-07 0)
(0.00100042 3.03887e-07 0)
(0.00100058 3.56543e-07 0)
(0.00100077 3.99369e-07 0)
(0.00100098 4.05443e-07 0)
(0.00100118 3.4702e-07 0)
(0.00100131 2.28706e-07 0)
(0.00100136 7.94854e-08 0)
(0.00100131 -6.55792e-08 0)
(0.00100117 -1.81742e-07 0)
(0.00100092 -2.7233e-07 0)
(0.00100061 -3.05522e-07 0)
(0.00100024 -2.92629e-07 0)
(0.000999963 -2.14679e-07 0)
(0.000999674 -1.57743e-07 0)
(0.000999597 -1.009e-07 0)
(0.000999334 -2.00047e-07 0)
(0.00100001 -4.8749e-09 0)
(0.00100006 -9.31801e-09 0)
(0.00100015 -1.03589e-08 0)
(0.00100028 -1.1924e-08 0)
(0.00100043 -1.55055e-08 0)
(0.00100058 -2.02727e-08 0)
(0.00100076 -2.64273e-08 0)
(0.00100095 -4.22126e-08 0)
(0.00100113 -7.21363e-08 0)
(0.00100124 -1.19265e-07 0)
(0.00100128 -1.70249e-07 0)
(0.00100121 -2.24397e-07 0)
(0.00100109 -2.77496e-07 0)
(0.00100086 -3.30732e-07 0)
(0.0010006 -3.5676e-07 0)
(0.00100025 -3.7146e-07 0)
(0.00100001 -3.46232e-07 0)
(0.000999669 -3.48333e-07 0)
(0.000999601 -3.21027e-07 0)
(0.000999215 -4.10406e-07 0)
)
;

boundaryField
{
    sides
    {
        type            slip;
    }
    inlet
    {
        type            fixedValue;
        value           uniform (0.001 0 0);
    }
    outlet
    {
        type            zeroGradient;
    }
    frontAndBack
    {
        type            empty;
    }
}


// ************************************************************************* //
