/*--------------------------------*- C++ -*----------------------------------*\
  =========                 |
  \\      /  F ield         | OpenFOAM: The Open Source CFD Toolbox
   \\    /   O peration     | Website:  https://openfoam.org
    \\  /    A nd           | Version:  9
     \\/     M anipulation  |
\*---------------------------------------------------------------------------*/
FoamFile
{
    format      ascii;
    class       volVectorField;
    location    "34";
    object      U;
}
// * * * * * * * * * * * * * * * * * * * * * * * * * * * * * * * * * * * * * //

dimensions      [0 1 -1 0 0 0 0];

internalField   nonuniform List<vector> 
400
(
(0.0999955 -2.3777e-06 0)
(0.100002 -7.18186e-06 0)
(0.100012 -1.16009e-05 0)
(0.100027 -1.53803e-05 0)
(0.100044 -1.8606e-05 0)
(0.100062 -2.17168e-05 0)
(0.100082 -2.44972e-05 0)
(0.100105 -2.60078e-05 0)
(0.100127 -2.49085e-05 0)
(0.100144 -2.14155e-05 0)
(0.100152 -1.64862e-05 0)
(0.100152 -1.28423e-05 0)
(0.100143 -1.03529e-05 0)
(0.100126 -9.83149e-06 0)
(0.100102 -9.92397e-06 0)
(0.100077 -1.28603e-05 0)
(0.100052 -1.49313e-05 0)
(0.10004 -1.97406e-05 0)
(0.100032 -1.8559e-05 0)
(0.100041 -2.66343e-05 0)
(0.099996 -2.62042e-06 0)
(0.100003 -8.25015e-06 0)
(0.100014 -1.36796e-05 0)
(0.100029 -1.80819e-05 0)
(0.100047 -2.13587e-05 0)
(0.100066 -2.43198e-05 0)
(0.100089 -2.66397e-05 0)
(0.100115 -2.57586e-05 0)
(0.10014 -1.86732e-05 0)
(0.100161 -5.66473e-06 0)
(0.100171 1.01498e-05 0)
(0.100169 2.47921e-05 0)
(0.100157 3.72612e-05 0)
(0.100135 4.59773e-05 0)
(0.100108 5.05542e-05 0)
(0.10008 4.71693e-05 0)
(0.100058 3.99354e-05 0)
(0.100044 2.49889e-05 0)
(0.10004 1.7927e-05 0)
(0.100036 7.14773e-06 0)
(0.0999958 -5.30015e-06 0)
(0.100002 -1.65893e-05 0)
(0.100012 -2.81263e-05 0)
(0.100028 -3.85504e-05 0)
(0.100047 -4.7546e-05 0)
(0.100069 -5.60693e-05 0)
(0.100095 -6.34634e-05 0)
(0.100125 -6.53062e-05 0)
(0.100155 -5.65646e-05 0)
(0.10018 -3.64326e-05 0)
(0.100194 -9.76286e-06 0)
(0.100194 1.64175e-05 0)
(0.100178 3.75577e-05 0)
(0.100149 4.93005e-05 0)
(0.100111 4.99675e-05 0)
(0.100074 3.83302e-05 0)
(0.100045 2.34909e-05 0)
(0.100032 4.34098e-06 0)
(0.100028 -2.95427e-06 0)
(0.100038 -1.26607e-05 0)
(0.0999951 -7.52718e-06 0)
(0.100001 -2.32732e-05 0)
(0.100011 -3.942e-05 0)
(0.100027 -5.45382e-05 0)
(0.100048 -6.8248e-05 0)
(0.100073 -8.16696e-05 0)
(0.100106 -9.28608e-05 0)
(0.100145 -9.55807e-05 0)
(0.100186 -8.16404e-05 0)
(0.100222 -4.8888e-05 0)
(0.100244 -4.03925e-07 0)
(0.100242 4.94454e-05 0)
(0.100215 9.07234e-05 0)
(0.100166 0.000110911 0)
(0.100112 0.000105777 0)
(0.10007 7.84118e-05 0)
(0.10005 4.66077e-05 0)
(0.100043 1.65448e-05 0)
(0.100048 6.64686e-06 0)
(0.100042 -1.39661e-06 0)
(0.0999938 -9.44253e-06 0)
(0.0999984 -2.91169e-05 0)
(0.100007 -4.99453e-05 0)
(0.100023 -7.11443e-05 0)
(0.100045 -9.23819e-05 0)
(0.100075 -0.000114714 0)
(0.100116 -0.000134287 0)
(0.100168 -0.000141492 0)
(0.100225 -0.000124023 0)
(0.100282 -7.94401e-05 0)
(0.10032 -1.48726e-05 0)
(0.100319 5.87884e-05 0)
(0.100273 0.000120289 0)
(0.100188 0.000148121 0)
(0.100099 0.000137938 0)
(0.100038 0.000100876 0)
(0.100017 6.27245e-05 0)
(0.100026 3.04937e-05 0)
(0.100043 2.12878e-05 0)
(0.10005 1.4792e-05 0)
(0.0999922 -1.08488e-05 0)
(0.099995 -3.33221e-05 0)
(0.100001 -5.84969e-05 0)
(0.100014 -8.62008e-05 0)
(0.100036 -0.000117585 0)
(0.100069 -0.000153288 0)
(0.100121 -0.00019034 0)
(0.100193 -0.000213239 0)
(0.100277 -0.000197971 0)
(0.100358 -0.000121521 0)
(0.100417 1.01193e-05 0)
(0.10042 0.000154899 0)
(0.100345 0.000240298 0)
(0.100214 0.000227487 0)
(0.100092 0.000143839 0)
(0.100023 5.38837e-05 0)
(0.100021 5.93352e-06 0)
(0.100044 -8.56926e-06 0)
(0.100071 2.48399e-06 0)
(0.100062 3.35668e-06 0)
(0.0999904 -1.08682e-05 0)
(0.0999902 -3.47462e-05 0)
(0.0999915 -6.21872e-05 0)
(0.0999985 -9.76528e-05 0)
(0.100014 -0.000139431 0)
(0.100045 -0.000195324 0)
(0.100103 -0.000252846 0)
(0.100202 -0.000315237 0)
(0.100351 -0.000329096 0)
(0.100521 -0.000289231 0)
(0.100635 -6.56585e-05 0)
(0.100596 0.000256851 0)
(0.10039 0.000481207 0)
(0.100125 0.000471637 0)
(0.0999553 0.000304236 0)
(0.0999296 0.000131558 0)
(0.100001 4.80658e-05 0)
(0.100064 3.23315e-05 0)
(0.100102 5.21474e-05 0)
(0.100073 5.1398e-05 0)
(0.0999884 -9.80311e-06 0)
(0.0999842 -2.99388e-05 0)
(0.0999764 -5.9113e-05 0)
(0.0999734 -9.6646e-05 0)
(0.0999752 -0.000157727 0)
(0.1 -0.000234933 0)
(0.100048 -0.000343511 0)
(0.100162 -0.000418346 0)
(0.100336 -0.000442375 0)
(0.10066 -0.000256563 0)
(0.101011 7.8292e-05 0)
(0.101021 0.000428315 0)
(0.100613 0.000471048 0)
(0.100078 0.000277263 0)
(0.099789 7.50477e-05 0)
(0.0998043 -2.26948e-05 0)
(0.0999754 -2.38997e-05 0)
(0.100098 -5.10567e-07 0)
(0.100145 1.85302e-05 0)
(0.100092 8.69649e-06 0)
(0.0999873 -5.22424e-06 0)
(0.099977 -2.08505e-05 0)
(0.0999578 -3.92064e-05 0)
(0.0999334 -7.37109e-05 0)
(0.0999078 -0.000133427 0)
(0.0999005 -0.000248022 0)
(0.0999572 -0.000470522 0)
(0.100146 -0.000810525 0)
(0.100539 -0.00133259 0)
(0.101065 -0.00149427 0)
(0.101328 0.000386762 0)
(0.101003 0.00187537 0)
(0.100249 0.0015775 0)
(0.0997274 0.0005736 0)
(0.0996516 -3.05126e-05 0)
(0.0998295 -0.000123253 0)
(0.100033 -6.36511e-06 0)
(0.100116 6.40652e-05 0)
(0.100119 6.34235e-05 0)
(0.10006 2.27783e-05 0)
(0.0999681 -1.90499e-06 0)
(0.100002 -6.37252e-06 0)
(0.0999023 -1.46525e-05 0)
(0.0999669 -2.41019e-05 0)
(0.0997226 -5.81787e-05 0)
(0.0998429 -0.000112306 0)
(0.0992776 -0.000288305 0)
(0.0996773 -0.000559791 0)
(0.0991207 -0.00115468 0)
(0.102006 -0.00141593 0)
(0.106286 2.96007e-05 0)
(0.101274 0.00146821 0)
(0.099015 0.00130805 0)
(0.0982291 0.000513913 0)
(0.098862 2.06348e-05 0)
(0.0996128 -7.62438e-05 0)
(0.0999437 -9.5967e-06 0)
(0.0999607 2.55176e-05 0)
(0.099873 1.67238e-05 0)
(0.099854 -1.98564e-05 0)
(0.0999688 1.78524e-06 0)
(0.100003 5.65533e-06 0)
(0.099903 1.32725e-05 0)
(0.0999674 2.17635e-05 0)
(0.099723 5.45339e-05 0)
(0.099843 0.000106393 0)
(0.0992774 0.000279682 0)
(0.0996765 0.000547634 0)
(0.0991196 0.00113905 0)
(0.102004 0.00139749 0)
(0.106281 -5.385e-05 0)
(0.101273 -0.0014951 0)
(0.0990152 -0.0013389 0)
(0.0982288 -0.000550925 0)
(0.0988605 -6.3205e-05 0)
(0.099609 2.60123e-05 0)
(0.0999395 -4.68117e-05 0)
(0.0999562 -9.91606e-05 0)
(0.0998718 -9.81437e-05 0)
(0.0998491 -8.99596e-05 0)
(0.0999894 5.03195e-06 0)
(0.0999791 2.00837e-05 0)
(0.0999598 3.77807e-05 0)
(0.0999353 7.13619e-05 0)
(0.0999096 0.000129776 0)
(0.0999025 0.000242071 0)
(0.0999589 0.000461738 0)
(0.100148 0.000797872 0)
(0.10054 0.00131633 0)
(0.101067 0.00147318 0)
(0.101329 -0.000408959 0)
(0.101001 -0.0019029 0)
(0.100242 -0.00160801 0)
(0.099719 -0.000609357 0)
(0.0996453 -7.18152e-06 0)
(0.0998246 7.72331e-05 0)
(0.100023 -4.36956e-05 0)
(0.100101 -0.000129649 0)
(0.1001 -0.000136242 0)
(0.100043 -0.000125791 0)
(0.099992 9.50981e-06 0)
(0.0999876 2.91068e-05 0)
(0.0999796 5.75977e-05 0)
(0.0999764 9.42542e-05 0)
(0.0999778 0.000153804 0)
(0.100002 0.000228594 0)
(0.100048 0.000333605 0)
(0.100161 0.000404799 0)
(0.100334 0.000425343 0)
(0.100656 0.000236631 0)
(0.101004 -0.000100578 0)
(0.101014 -0.000455207 0)
(0.100607 -0.000499884 0)
(0.100073 -0.000309785 0)
(0.0997815 -0.0001121 0)
(0.0997921 -2.66351e-05 0)
(0.0999592 -3.44402e-05 0)
(0.100075 -7.28459e-05 0)
(0.100118 -9.37767e-05 0)
(0.100062 -0.000107723 0)
(0.0999954 1.05107e-05 0)
(0.099995 3.38114e-05 0)
(0.099996 6.06403e-05 0)
(0.100003 9.52129e-05 0)
(0.100018 0.000135729 0)
(0.100048 0.0001896 0)
(0.100105 0.000244757 0)
(0.100204 0.000304415 0)
(0.100352 0.000316289 0)
(0.100521 0.000273809 0)
(0.100634 4.83534e-05 0)
(0.100591 -0.000276911 0)
(0.100381 -0.00050503 0)
(0.100111 -0.000502964 0)
(0.0999375 -0.000343641 0)
(0.0999066 -0.000181481 0)
(0.0999765 -0.000104988 0)
(0.100035 -0.000104232 0)
(0.100072 -0.000126835 0)
(0.100031 -0.000151632 0)
(0.0999986 1.04664e-05 0)
(0.100001 3.2378e-05 0)
(0.100007 5.70342e-05 0)
(0.10002 8.3955e-05 0)
(0.10004 0.000114268 0)
(0.100073 0.000148297 0)
(0.100124 0.000183201 0)
(0.100194 0.000203026 0)
(0.100277 0.000184381 0)
(0.100354 0.000104108 0)
(0.100409 -3.09494e-05 0)
(0.100409 -0.00017824 0)
(0.100331 -0.000266628 0)
(0.100197 -0.000258218 0)
(0.100071 -0.000176538 0)
(0.0999968 -9.18406e-05 0)
(0.0999918 -4.5828e-05 0)
(0.100006 -4.316e-05 0)
(0.10003 -5.74049e-05 0)
(0.100008 -8.46808e-05 0)
(0.100002 9.03363e-06 0)
(0.100006 2.8205e-05 0)
(0.100014 4.86236e-05 0)
(0.10003 6.92166e-05 0)
(0.100051 8.94856e-05 0)
(0.10008 0.000110463 0)
(0.10012 0.000128211 0)
(0.10017 0.000133181 0)
(0.100225 0.000113479 0)
(0.10028 6.65545e-05 0)
(0.100316 -7.02478e-07 0)
(0.100312 -7.77064e-05 0)
(0.10026 -0.000141435 0)
(0.100171 -0.000172982 0)
(0.100079 -0.000165543 0)
(0.100011 -0.000137178 0)
(0.0999872 -0.00010605 0)
(0.0999841 -9.18547e-05 0)
(0.0999965 -9.0157e-05 0)
(0.099984 -0.000110632 0)
(0.100004 7.0967e-06 0)
(0.10001 2.2306e-05 0)
(0.100019 3.80661e-05 0)
(0.100035 5.27196e-05 0)
(0.100055 6.57772e-05 0)
(0.10008 7.81695e-05 0)
(0.100111 8.82138e-05 0)
(0.100148 8.96451e-05 0)
(0.100186 7.48138e-05 0)
(0.100218 4.17016e-05 0)
(0.100235 -6.49051e-06 0)
(0.100229 -5.76742e-05 0)
(0.100199 -9.96425e-05 0)
(0.100145 -0.000123524 0)
(0.100085 -0.000121584 0)
(0.100031 -0.000101548 0)
(0.100003 -7.29692e-05 0)
(0.0999833 -5.40095e-05 0)
(0.0999838 -4.48399e-05 0)
(0.0999636 -5.96023e-05 0)
(0.100006 5.01851e-06 0)
(0.100012 1.58778e-05 0)
(0.100022 2.66355e-05 0)
(0.100038 3.57464e-05 0)
(0.100056 4.30728e-05 0)
(0.100077 4.94708e-05 0)
(0.100102 5.43612e-05 0)
(0.100131 5.29595e-05 0)
(0.100159 4.06956e-05 0)
(0.100182 1.64291e-05 0)
(0.100193 -1.3053e-05 0)
(0.100187 -4.17127e-05 0)
(0.100165 -6.47303e-05 0)
(0.100127 -8.05309e-05 0)
(0.100085 -8.39276e-05 0)
(0.10004 -7.87109e-05 0)
(0.100009 -6.6043e-05 0)
(0.0999792 -5.86542e-05 0)
(0.0999722 -5.332e-05 0)
(0.0999469 -6.82521e-05 0)
(0.100008 3.36594e-06 0)
(0.100014 1.09197e-05 0)
(0.100023 1.86075e-05 0)
(0.100038 2.53304e-05 0)
(0.100055 3.08127e-05 0)
(0.100073 3.57051e-05 0)
(0.100093 3.96947e-05 0)
(0.100116 4.03906e-05 0)
(0.100138 3.48119e-05 0)
(0.100153 2.29659e-05 0)
(0.100159 7.67996e-06 0)
(0.100154 -7.20574e-06 0)
(0.100139 -1.87454e-05 0)
(0.100111 -2.73627e-05 0)
(0.100076 -3.04061e-05 0)
(0.100036 -2.92271e-05 0)
(0.100004 -2.182e-05 0)
(0.0999721 -1.62815e-05 0)
(0.0999618 -1.01145e-05 0)
(0.0999338 -1.98195e-05 0)
(0.10001 -4.54024e-07 0)
(0.100016 -8.96675e-07 0)
(0.100026 -9.38604e-07 0)
(0.100041 -1.03053e-06 0)
(0.100057 -1.40842e-06 0)
(0.100074 -2.00072e-06 0)
(0.100093 -2.73206e-06 0)
(0.100114 -4.3074e-06 0)
(0.100134 -7.23537e-06 0)
(0.100147 -1.19417e-05 0)
(0.100151 -1.72084e-05 0)
(0.100145 -2.27311e-05 0)
(0.100131 -2.79341e-05 0)
(0.100105 -3.3081e-05 0)
(0.100077 -3.56032e-05 0)
(0.100039 -3.71305e-05 0)
(0.100011 -3.47619e-05 0)
(0.0999731 -3.50336e-05 0)
(0.0999632 -3.21265e-05 0)
(0.0999224 -4.09832e-05 0)
)
;

boundaryField
{
    sides
    {
        type            calculated;
        value           nonuniform List<vector> 
40
(
(0.10001 0 0)
(0.100016 0 0)
(0.100026 0 0)
(0.100041 0 0)
(0.100057 0 0)
(0.100074 0 0)
(0.100093 0 0)
(0.100114 0 0)
(0.100134 0 0)
(0.100147 0 0)
(0.100151 0 0)
(0.100145 0 0)
(0.100131 0 0)
(0.100105 0 0)
(0.100077 0 0)
(0.100039 0 0)
(0.100011 0 0)
(0.0999731 0 0)
(0.0999632 0 0)
(0.0999224 0 0)
(0.0999955 0 0)
(0.100002 0 0)
(0.100012 0 0)
(0.100027 0 0)
(0.100044 0 0)
(0.100062 0 0)
(0.100082 0 0)
(0.100105 0 0)
(0.100127 0 0)
(0.100144 0 0)
(0.100152 0 0)
(0.100152 0 0)
(0.100143 0 0)
(0.100126 0 0)
(0.100102 0 0)
(0.100077 0 0)
(0.100052 0 0)
(0.10004 0 0)
(0.100032 0 0)
(0.100041 0 0)
)
;
    }
    inlet
    {
        type            calculated;
        value           nonuniform List<vector> 
20
(
(0.0999948 0 0)
(0.0999953 0 0)
(0.0999951 0 0)
(0.0999943 0 0)
(0.0999932 0 0)
(0.0999917 0 0)
(0.09999 0 0)
(0.0999884 0 0)
(0.0999873 0 0)
(0.0999872 0 0)
(0.0999879 0 0)
(0.0999895 0 0)
(0.099992 0 0)
(0.099995 0 0)
(0.0999981 0 0)
(0.100001 0 0)
(0.100004 0 0)
(0.100006 0 0)
(0.100007 0 0)
(0.100009 0 0)
)
;
    }
    outlet
    {
        type            calculated;
        value           nonuniform List<vector> 
20
(
(0.100042 -2.66344e-05 0)
(0.100036 7.14771e-06 0)
(0.100038 -1.26607e-05 0)
(0.100041 -1.3966e-06 0)
(0.10005 1.4792e-05 0)
(0.100061 3.35665e-06 0)
(0.100071 5.13972e-05 0)
(0.10009 8.69632e-06 0)
(0.100059 2.2778e-05 0)
(0.0998552 -1.98566e-05 0)
(0.0998501 -8.99605e-05 0)
(0.100042 -0.00012579 0)
(0.10006 -0.000107721 0)
(0.100029 -0.000151629 0)
(0.100006 -8.46796e-05 0)
(0.0999831 -0.000110631 0)
(0.0999626 -5.96017e-05 0)
(0.0999458 -6.82514e-05 0)
(0.0999328 -1.98193e-05 0)
(0.0999209 -4.09826e-05 0)
)
;
    }
    frontAndBack
    {
        type            empty;
    }
}


// ************************************************************************* //
