/*--------------------------------*- C++ -*----------------------------------*\
  =========                 |
  \\      /  F ield         | OpenFOAM: The Open Source CFD Toolbox
   \\    /   O peration     | Website:  https://openfoam.org
    \\  /    A nd           | Version:  9
     \\/     M anipulation  |
\*---------------------------------------------------------------------------*/
FoamFile
{
    format      ascii;
    class       volScalarField;
    location    "67";
    object      ddt0(h);
}
// * * * * * * * * * * * * * * * * * * * * * * * * * * * * * * * * * * * * * //

dimensions      [0 1 -1 0 0 0 0];

internalField   nonuniform List<scalar> 
400
(
1.80385e-08
9.7825e-09
1.06847e-08
1.84405e-08
2.21518e-09
-1.53358e-08
-1.12408e-08
4.08421e-10
-2.17346e-10
3.50437e-09
1.12112e-09
2.50722e-08
1.70544e-08
4.12661e-09
-1.46913e-10
1.81273e-10
7.1186e-09
1.01689e-08
-1.04539e-08
-1.15797e-08
1.80139e-08
7.93454e-09
1.79495e-08
1.99745e-08
-6.73093e-09
-7.44768e-09
1.4654e-09
1.95404e-08
5.76118e-09
8.89715e-09
1.92521e-08
-3.52359e-09
1.4316e-08
-1.35954e-08
-1.2263e-08
-1.88257e-09
1.9428e-09
5.53163e-10
-3.67884e-09
-5.30182e-09
1.82889e-09
7.57771e-09
2.70112e-08
1.0043e-08
-3.1093e-09
1.0193e-08
3.40468e-08
4.3489e-09
2.40161e-08
-2.11287e-08
1.30577e-08
-1.85626e-08
-2.10219e-08
-8.42218e-09
-2.57885e-08
-1.9029e-08
-5.30186e-09
-8.70413e-10
3.3009e-09
3.32636e-09
-2.25371e-09
9.57391e-09
1.61006e-08
-2.82298e-09
8.84325e-09
3.7895e-08
1.56064e-08
-6.35405e-09
6.86029e-09
2.16181e-08
-6.54578e-08
3.99202e-08
-3.51358e-08
-4.83644e-09
1.33996e-08
-1.20611e-08
-2.04894e-08
-1.38558e-08
4.29116e-09
8.35651e-09
6.74838e-09
1.10152e-08
-6.98134e-11
-1.37936e-08
2.15404e-08
2.98851e-08
-2.76096e-08
3.55506e-08
-2.1085e-08
4.30018e-08
4.13319e-08
-7.56102e-08
4.77397e-08
-2.72421e-09
8.94644e-09
1.50785e-08
-9.59363e-09
-1.15881e-08
1.01764e-08
1.09346e-08
1.29145e-08
1.55268e-08
-8.38441e-09
-1.62999e-08
1.54238e-08
-1.19256e-08
1.13359e-08
-1.51466e-08
9.86072e-08
-1.76386e-07
1.41743e-07
-6.48254e-08
-9.34741e-08
3.78028e-08
2.5943e-08
1.05021e-08
4.47822e-09
7.59936e-09
1.70613e-08
1.0354e-08
1.47903e-08
1.47401e-08
-7.41141e-09
-1.81493e-08
-7.12379e-09
3.08898e-09
-8.12829e-09
7.32509e-08
-1.35844e-07
1.06324e-07
-1.93243e-07
2.85851e-07
-6.11278e-08
-8.5409e-08
-7.8265e-09
3.47425e-09
5.12644e-09
1.81341e-08
2.4087e-08
1.06407e-08
1.20654e-08
1.04959e-08
-8.22232e-09
-2.09918e-08
-2.60973e-09
4.36465e-09
2.92694e-08
-3.49069e-08
-8.5157e-08
3.75278e-07
-4.79141e-06
-2.88515e-08
1.18377e-07
-1.28407e-08
-4.49661e-08
-2.53722e-08
-1.13404e-08
1.22776e-08
2.11026e-08
7.93228e-09
5.90294e-09
5.09619e-10
-5.71078e-09
-1.53963e-08
5.26781e-09
2.98332e-08
-2.39888e-08
-1.88139e-08
2.34972e-08
-3.97168e-07
4.80266e-06
4.0035e-08
-8.97773e-08
2.48069e-08
-4.99383e-09
-4.2592e-08
-3.26123e-08
-9.62475e-09
6.6173e-09
-3.20482e-08
-3.03365e-09
-7.27511e-09
-1.1803e-09
3.67942e-09
6.94571e-09
1.21244e-08
-1.7698e-08
-9.09331e-08
1.38338e-07
-8.02216e-08
2.31485e-07
-2.34641e-07
1.00348e-07
1.05536e-07
1.58254e-08
-3.2851e-08
-3.55831e-08
-1.64927e-08
-6.43579e-09
3.57734e-08
-7.51012e-09
-1.19078e-08
7.6972e-09
1.89296e-08
1.2731e-09
-1.66556e-08
-3.65784e-08
2.2642e-08
-5.41544e-08
3.26904e-07
-6.58765e-07
5.3571e-08
1.33666e-07
1.78545e-08
9.35266e-09
-1.4205e-09
-1.15743e-09
-2.45696e-09
-4.75673e-09
-1.31098e-09
-4.03209e-09
-9.08822e-09
5.81568e-09
2.68092e-08
-6.56844e-09
-2.91474e-08
-2.5999e-08
-1.85619e-08
1.41051e-07
-4.2751e-07
6.08287e-06
-4.50445e-07
-7.04839e-08
3.31811e-08
2.92852e-08
2.48686e-08
2.34181e-08
1.25231e-08
-5.72747e-09
-6.95499e-09
4.28821e-09
2.94407e-12
-1.6026e-09
1.12134e-08
1.11046e-09
-2.22795e-08
4.59416e-09
-2.86702e-08
-1.16452e-07
4.46014e-07
-6.23093e-06
5.54152e-07
5.30039e-08
-2.40372e-08
-1.53984e-08
1.28578e-09
9.4137e-09
1.13505e-09
-1.67642e-08
-1.28878e-08
7.7725e-09
7.89187e-09
-6.52396e-09
-5.25492e-09
-5.29545e-09
1.12931e-08
1.67132e-08
-2.58362e-08
-5.04326e-08
-2.32703e-07
7.49034e-07
-4.34214e-08
-5.00511e-08
-4.32791e-08
-2.93175e-08
-4.54612e-09
-6.13429e-10
-1.04099e-08
-1.80542e-08
-1.00913e-08
2.28203e-10
1.02012e-08
1.85501e-09
-6.27611e-09
-1.01865e-08
1.06212e-08
4.68342e-08
2.61444e-08
-6.74009e-08
-1.04012e-08
-1.54883e-07
-7.35485e-08
-6.53884e-08
-7.39716e-08
-2.69452e-08
1.82176e-09
-6.44146e-10
-9.60288e-09
-6.83737e-09
-9.61601e-10
-9.41524e-09
6.22822e-09
1.58654e-08
1.15586e-08
-8.51839e-09
-8.24103e-09
3.13801e-08
5.04528e-08
2.1325e-08
-1.4716e-08
-3.63785e-08
-3.31955e-08
-6.56513e-08
-3.64367e-08
1.69185e-09
2.43437e-08
1.35035e-08
-2.80814e-09
1.62086e-09
4.5819e-09
-9.12397e-09
2.7852e-09
1.78381e-08
2.4896e-08
6.34056e-09
-2.05284e-08
-4.0256e-09
2.94835e-08
4.30364e-08
2.64773e-08
2.84286e-08
1.58517e-09
1.45927e-09
1.88205e-08
3.40409e-08
3.51225e-08
1.77753e-08
-2.87549e-09
-4.40066e-09
3.11763e-10
3.12997e-09
2.19886e-09
1.06861e-08
1.97144e-08
1.89833e-08
-9.01807e-09
-2.01142e-08
-5.29329e-09
1.46264e-08
1.78735e-08
1.55672e-08
1.38525e-08
2.53057e-08
3.28805e-08
2.64476e-08
1.86695e-08
7.77408e-09
-9.19281e-09
-1.54328e-08
-6.42842e-09
1.50472e-08
7.57199e-09
4.88135e-09
8.33485e-09
1.32759e-08
7.26237e-09
-7.29742e-09
-9.49714e-09
-5.36515e-09
-5.39114e-09
-5.76184e-09
3.22382e-09
1.24625e-08
4.76305e-09
-9.78736e-09
-1.26642e-08
-7.67394e-09
-9.30916e-09
-1.44905e-08
-7.87536e-09
2.75764e-08
1.41095e-08
3.47541e-09
-1.11116e-09
3.07698e-09
1.06462e-08
6.8655e-09
-5.99623e-10
-6.05582e-09
-1.21933e-08
-1.48468e-08
-5.01398e-09
-1.13507e-09
-1.87501e-08
-3.59743e-08
-3.05053e-08
-1.11217e-08
-2.01129e-09
-6.99324e-09
-5.8764e-09
)
;

boundaryField
{
    sides
    {
        type            calculated;
        value           nonuniform List<scalar> 
40
(
2.75764e-08
1.41095e-08
3.47541e-09
-1.11116e-09
3.07698e-09
1.06462e-08
6.8655e-09
-5.99623e-10
-6.05582e-09
-1.21933e-08
-1.48468e-08
-5.01398e-09
-1.13507e-09
-1.87501e-08
-3.59743e-08
-3.05053e-08
-1.11217e-08
-2.01129e-09
-6.99324e-09
-5.8764e-09
1.80385e-08
9.7825e-09
1.06847e-08
1.84405e-08
2.21518e-09
-1.53358e-08
-1.12408e-08
4.08421e-10
-2.17346e-10
3.50437e-09
1.12112e-09
2.50722e-08
1.70544e-08
4.12661e-09
-1.46913e-10
1.81273e-10
7.1186e-09
1.01689e-08
-1.04539e-08
-1.15797e-08
)
;
    }
    inlet
    {
        type            calculated;
        value           nonuniform List<scalar> 
20
(
1.80385e-08
1.80139e-08
1.82889e-09
-2.25371e-09
6.74838e-09
1.29145e-08
1.47903e-08
1.20654e-08
5.90294e-09
-3.03365e-09
-7.51012e-09
-4.03209e-09
4.28821e-09
7.7725e-09
2.28203e-10
-9.41524e-09
-9.12397e-09
3.12997e-09
1.50472e-08
2.75764e-08
)
;
    }
    outlet
    {
        type            calculated;
        value           uniform 0;
    }
    frontAndBack
    {
        type            empty;
    }
}


// ************************************************************************* //
