/*--------------------------------*- C++ -*----------------------------------*\
  =========                 |
  \\      /  F ield         | OpenFOAM: The Open Source CFD Toolbox
   \\    /   O peration     | Website:  https://openfoam.org
    \\  /    A nd           | Version:  9
     \\/     M anipulation  |
\*---------------------------------------------------------------------------*/
FoamFile
{
    format      ascii;
    class       volVectorField;
    location    "67";
    object      ddtCorrDdt0(hU);
}
// * * * * * * * * * * * * * * * * * * * * * * * * * * * * * * * * * * * * * //

dimensions      [0 2 -2 0 0 0 0];

internalField   nonuniform List<vector> 
400
(
(-2.30747e-10 -2.65245e-09 0)
(-3.35945e-09 9.16811e-11 0)
(-4.7743e-09 6.33136e-10 0)
(-4.73793e-09 3.52671e-10 0)
(-2.06796e-09 1.49965e-09 0)
(-2.32406e-10 2.67444e-09 0)
(1.37442e-10 2.29205e-09 0)
(6.31776e-10 1.17065e-10 0)
(2.67484e-09 -5.08641e-10 0)
(5.35254e-09 -3.86737e-09 0)
(1.80876e-09 -4.07293e-09 0)
(-2.08201e-10 -2.47569e-09 0)
(-2.47311e-09 -1.7516e-09 0)
(-2.99786e-09 -5.85532e-10 0)
(5.0332e-11 -2.19387e-09 0)
(2.73425e-09 -3.75764e-09 0)
(2.95458e-09 -4.23394e-09 0)
(-8.37503e-10 -2.28154e-09 0)
(-7.40675e-09 -1.29253e-10 0)
(-8.3558e-09 2.72788e-10 0)
(1.87446e-09 -4.28112e-09 0)
(-2.50194e-11 1.93997e-10 0)
(-3.14552e-09 5.16201e-10 0)
(-3.05902e-09 9.51331e-10 0)
(-1.05802e-09 3.9045e-09 0)
(2.95203e-10 5.41543e-09 0)
(-1.51222e-09 3.49647e-09 0)
(5.54543e-10 4.04736e-10 0)
(3.94291e-10 -1.86906e-09 0)
(2.19813e-09 -5.887e-09 0)
(3.88525e-09 -8.30143e-09 0)
(-1.64596e-09 -3.03845e-09 0)
(-5.32108e-10 -2.93934e-09 0)
(-4.00363e-09 -4.08152e-10 0)
(-3.631e-09 -1.89231e-09 0)
(2.55288e-11 -6.62342e-09 0)
(2.6708e-09 -8.38838e-09 0)
(1.96225e-09 -4.54372e-09 0)
(-3.28031e-09 -1.15913e-09 0)
(-7.44331e-09 -4.66881e-10 0)
(1.70193e-09 -1.77031e-09 0)
(2.15216e-09 -2.5584e-10 0)
(-7.97321e-10 -8.82224e-10 0)
(-4.71083e-10 1.29273e-09 0)
(9.76654e-10 3.6178e-09 0)
(-7.15887e-10 3.57317e-09 0)
(-1.41494e-09 1.50703e-09 0)
(-2.37616e-09 5.00824e-09 0)
(1.50387e-09 -2.54465e-09 0)
(-3.56442e-09 -2.55091e-10 0)
(2.98201e-09 -5.21611e-09 0)
(-1.45807e-09 -1.48739e-09 0)
(-3.04164e-09 3.09315e-09 0)
(-3.03959e-10 -4.25801e-10 0)
(-6.77315e-09 2.31728e-10 0)
(-6.61654e-09 -2.15082e-09 0)
(5.01074e-10 -4.71717e-09 0)
(4.36282e-09 -4.31596e-09 0)
(6.22642e-10 -3.83707e-09 0)
(-5.12332e-09 -2.33916e-09 0)
(8.94106e-10 9.89135e-10 0)
(2.10126e-09 -7.88499e-10 0)
(7.57437e-10 -1.32488e-09 0)
(1.72294e-09 3.70372e-10 0)
(1.54751e-09 8.08966e-10 0)
(-1.10289e-09 -6.71578e-10 0)
(-3.38389e-10 5.99909e-09 0)
(-3.08323e-09 6.97329e-09 0)
(-1.18731e-09 4.01136e-09 0)
(1.15641e-09 -5.22539e-09 0)
(-1.00332e-08 8.15281e-09 0)
(7.59666e-09 -1.61244e-09 0)
(-3.38145e-09 3.04765e-09 0)
(-2.12655e-09 1.90205e-09 0)
(2.17086e-10 -2.75692e-09 0)
(-7.08987e-09 -5.83934e-10 0)
(-6.3801e-09 1.77192e-09 0)
(-1.88241e-10 1.36671e-09 0)
(3.05013e-09 -2.94936e-09 0)
(6.29781e-10 -3.32663e-09 0)
(4.012e-11 2.53792e-09 0)
(4.72809e-10 1.60836e-10 0)
(1.33355e-09 -8.84982e-10 0)
(2.51206e-09 -1.34339e-09 0)
(7.38732e-10 -3.01303e-09 0)
(1.47193e-09 3.18991e-10 0)
(-1.70215e-09 9.08921e-09 0)
(2.3423e-09 4.77407e-09 0)
(-1.03924e-08 2.89887e-09 0)
(6.72963e-09 -8.88831e-10 0)
(4.97152e-09 -1.0169e-09 0)
(-1.72673e-08 1.55036e-08 0)
(8.83373e-09 -2.5458e-11 0)
(-4.19648e-10 -1.61601e-10 0)
(-2.24148e-09 -2.11347e-09 0)
(-4.16789e-11 -1.5261e-09 0)
(-3.69883e-09 3.53279e-09 0)
(-3.30433e-09 5.79577e-09 0)
(9.41526e-10 3.7109e-10 0)
(2.32838e-09 -2.49624e-09 0)
(-5.10211e-10 2.25988e-09 0)
(-8.91627e-10 1.82338e-09 0)
(1.16779e-09 2.17551e-10 0)
(1.80178e-09 -2.55672e-09 0)
(1.93304e-09 -3.30368e-09 0)
(7.01226e-10 2.77274e-09 0)
(1.81925e-09 4.56183e-09 0)
(-6.39346e-09 2.60433e-09 0)
(7.72491e-09 -7.65693e-09 0)
(-2.27061e-08 2.66318e-08 0)
(2.13113e-08 -2.22415e-08 0)
(-6.22758e-09 1.23076e-08 0)
(-2.42041e-08 2.41899e-08 0)
(5.96741e-09 3.87131e-09 0)
(4.19649e-09 -8.0531e-10 0)
(-7.08979e-10 -8.85894e-10 0)
(-2.91707e-09 1.68157e-09 0)
(-3.15891e-09 4.1614e-09 0)
(1.18355e-09 9.59263e-10 0)
(3.69256e-09 -1.65582e-09 0)
(-3.64232e-10 1.18845e-09 0)
(-1.11612e-09 2.64569e-09 0)
(7.00346e-10 1.4524e-09 0)
(2.0445e-09 -1.62286e-09 0)
(1.33113e-09 -1.43218e-09 0)
(1.56775e-09 8.96972e-10 0)
(-1.99461e-09 -4.89036e-10 0)
(-2.17606e-09 -1.55664e-09 0)
(6.83306e-09 7.76971e-09 0)
(1.47239e-10 -2.81453e-09 0)
(-4.11517e-08 1.33644e-08 0)
(6.19462e-08 -2.75788e-08 0)
(-8.9234e-09 1.41064e-08 0)
(-2.87075e-08 1.54728e-08 0)
(-4.34465e-09 4.16374e-09 0)
(-8.06468e-11 7.35977e-10 0)
(-3.46497e-09 1.24579e-09 0)
(-3.0221e-09 3.49868e-09 0)
(1.56936e-09 1.26137e-09 0)
(4.04641e-09 -1.20061e-09 0)
(1.21331e-10 6.00961e-10 0)
(-5.10313e-10 2.68831e-09 0)
(9.77433e-10 2.45559e-09 0)
(1.59801e-09 -2.2281e-10 0)
(1.13049e-09 -1.20605e-09 0)
(-1.28936e-09 -2.59895e-09 0)
(-7.07992e-10 -2.72998e-09 0)
(3.26977e-09 3.74252e-09 0)
(-5.81447e-09 7.52023e-09 0)
(3.75924e-08 -1.18993e-08 0)
(-5.08992e-07 1.82184e-08 0)
(-7.71824e-09 3.07469e-08 0)
(4.4163e-08 -7.03658e-09 0)
(-4.43981e-09 4.8044e-09 0)
(-1.40595e-08 1.07297e-08 0)
(-8.27252e-09 5.886e-09 0)
(-7.33544e-09 2.23352e-09 0)
(-4.31745e-09 3.7972e-09 0)
(1.24991e-09 2.31935e-09 0)
(3.09286e-09 -7.50706e-11 0)
(4.38058e-10 6.6257e-10 0)
(3.96671e-10 2.44126e-09 0)
(1.18846e-09 2.89894e-09 0)
(1.22268e-09 -6.19108e-10 0)
(-8.42286e-10 -3.03687e-09 0)
(-8.76604e-10 -3.06917e-09 0)
(1.14316e-09 -8.04065e-10 0)
(1.50031e-09 8.59416e-09 0)
(9.68006e-09 5.36704e-09 0)
(-3.96432e-08 -1.33138e-08 0)
(5.06625e-07 1.0805e-08 0)
(7.20077e-09 2.1011e-08 0)
(-3.96444e-08 -1.63655e-08 0)
(5.37441e-09 -4.55917e-09 0)
(3.01095e-10 3.06386e-09 0)
(-1.40115e-08 3.63465e-09 0)
(-1.37316e-08 4.0391e-09 0)
(-6.88776e-09 5.67486e-09 0)
(-7.54328e-10 4.53535e-09 0)
(-3.35475e-09 7.31879e-10 0)
(4.05455e-10 9.02835e-10 0)
(1.19612e-09 1.72958e-09 0)
(7.94014e-10 2.02884e-09 0)
(-9.56272e-11 -1.65941e-09 0)
(-8.7174e-10 -4.88542e-09 0)
(-5.34606e-10 -9.61828e-10 0)
(5.34707e-09 3.66034e-09 0)
(5.71984e-09 3.1783e-09 0)
(-5.38515e-09 3.96789e-09 0)
(-4.85412e-09 -1.64147e-08 0)
(3.47208e-08 2.05945e-08 0)
(-5.75999e-08 -5.57651e-08 0)
(1.44077e-08 -5.67073e-09 0)
(3.01545e-08 -2.84199e-09 0)
(2.53623e-09 -7.22386e-09 0)
(-8.20303e-09 -4.11457e-09 0)
(-1.01571e-08 1.62567e-09 0)
(-7.14726e-09 4.74508e-09 0)
(-4.50695e-09 4.41415e-09 0)
(-8.85262e-10 1.19583e-09 0)
(1.70003e-10 6.09721e-10 0)
(1.14945e-09 -2.59719e-10 0)
(6.37025e-11 3.11059e-10 0)
(-1.41388e-09 -1.40701e-09 0)
(-4.80971e-10 -3.00887e-09 0)
(2.48853e-09 -1.21012e-10 0)
(4.057e-09 2.51941e-09 0)
(6.41626e-09 -4.22511e-10 0)
(-1.88152e-08 -9.47623e-09 0)
(4.98877e-08 -3.84486e-09 0)
(-8.5029e-08 2.54472e-08 0)
(-2.45106e-08 1.54473e-08 0)
(3.97302e-08 3.57745e-09 0)
(3.78698e-09 -5.2757e-09 0)
(1.40868e-09 -4.40276e-09 0)
(-5.55877e-10 -3.14067e-09 0)
(-2.1098e-09 -4.66926e-10 0)
(-3.0369e-09 8.87185e-10 0)
(-4.70616e-09 6.14511e-10 0)
(-7.36585e-09 4.38646e-10 0)
(-2.91136e-10 -5.35257e-10 0)
(6.76492e-10 -2.815e-09 0)
(-9.45896e-11 -2.05848e-09 0)
(-1.29737e-09 1.02924e-09 0)
(-1.60133e-10 1.66588e-09 0)
(2.33036e-09 6.9124e-10 0)
(4.60827e-09 -3.8838e-09 0)
(-2.84043e-11 -8.88675e-09 0)
(-1.18437e-08 -1.13576e-09 0)
(-2.57304e-09 3.80775e-08 0)
(6.52282e-07 -8.2108e-08 0)
(-1.04215e-07 1.9403e-08 0)
(-2.5212e-08 1.7397e-08 0)
(1.45939e-08 7.41603e-09 0)
(5.94492e-09 2.98061e-09 0)
(2.45947e-09 1.85196e-11 0)
(1.20242e-09 -1.89302e-09 0)
(-2.44707e-09 -4.07079e-09 0)
(-5.69697e-09 -4.78415e-09 0)
(-7.50927e-09 -1.8385e-09 0)
(-7.35746e-10 -2.03465e-09 0)
(-3.08309e-11 -4.24231e-09 0)
(1.15954e-09 -3.26593e-09 0)
(5.27204e-10 2.69011e-09 0)
(6.24379e-10 6.45523e-09 0)
(-5.96095e-10 2.01774e-09 0)
(-3.96219e-10 -6.00289e-09 0)
(1.77306e-09 -1.36796e-08 0)
(2.17549e-08 -7.23516e-10 0)
(-1.58488e-08 3.19035e-08 0)
(-6.75272e-07 -4.62722e-08 0)
(1.31312e-07 1.20386e-08 0)
(2.0595e-08 1.96407e-08 0)
(-1.74409e-08 9.74624e-09 0)
(-9.68305e-09 1.97224e-09 0)
(-3.7645e-09 -1.66999e-09 0)
(-1.76609e-09 -6.67456e-09 0)
(-4.16421e-09 -9.1304e-09 0)
(-6.11672e-09 -7.745e-09 0)
(-4.4317e-09 -2.42199e-09 0)
(-1.13033e-09 -2.88262e-09 0)
(1.32307e-10 -3.31931e-09 0)
(2.5985e-09 -2.37104e-09 0)
(3.45666e-09 2.02198e-09 0)
(1.35927e-09 5.85596e-09 0)
(-1.86234e-09 3.92524e-09 0)
(-5.15546e-09 -2.80787e-09 0)
(1.38872e-09 -6.95004e-09 0)
(1.17768e-08 -9.26671e-09 0)
(-2.95033e-08 -3.05419e-08 0)
(8.81519e-08 6.59361e-08 0)
(1.06638e-08 6.11523e-09 0)
(-2.52758e-08 -1.52088e-08 0)
(-1.49841e-08 -8.36777e-09 0)
(-1.35893e-08 -4.57711e-09 0)
(-7.11992e-09 -4.21636e-09 0)
(-3.52796e-09 -7.12986e-09 0)
(-3.72192e-09 -8.13148e-09 0)
(-3.96692e-09 -4.68147e-09 0)
(-8.4537e-10 -2.72326e-10 0)
(-1.20488e-09 -2.09122e-09 0)
(1.03788e-09 -9.81646e-10 0)
(3.00374e-09 -3.7448e-10 0)
(4.5431e-09 1.60351e-10 0)
(3.83794e-09 6.14448e-10 0)
(-6.73771e-10 1.0329e-09 0)
(-5.11007e-09 1.36147e-09 0)
(-3.08032e-09 2.41011e-10 0)
(-3.78104e-09 -9.21513e-09 0)
(1.1069e-08 -1.49445e-08 0)
(-1.26998e-08 -3.55994e-09 0)
(-1.25489e-08 -3.33653e-08 0)
(-8.3412e-09 -2.04596e-08 0)
(-1.55502e-08 -1.54008e-08 0)
(-9.72269e-09 -7.40873e-09 0)
(-3.97259e-09 -2.95986e-09 0)
(-3.78349e-10 -2.11317e-09 0)
(-3.2427e-10 -2.48003e-09 0)
(-1.5517e-09 5.89061e-10 0)
(-7.13262e-10 2.33713e-09 0)
(-1.05971e-09 -2.31718e-10 0)
(1.78185e-09 5.43749e-10 0)
(1.8664e-09 1.13999e-09 0)
(3.19654e-09 -1.56044e-11 0)
(4.4105e-09 -3.25562e-09 0)
(2.75556e-09 -5.2992e-09 0)
(-2.13999e-09 -1.20108e-09 0)
(-5.70269e-09 4.25901e-09 0)
(-2.44524e-09 3.18602e-09 0)
(-2.93713e-09 -8.17629e-10 0)
(-3.58966e-09 -1.49062e-08 0)
(-1.7564e-09 -1.08407e-08 0)
(-9.48741e-09 -1.51316e-08 0)
(-6.56463e-09 -9.34938e-09 0)
(-1.37466e-09 -1.90323e-09 0)
(3.54556e-09 3.54762e-09 0)
(5.3691e-09 3.96581e-09 0)
(2.38562e-09 9.02802e-10 0)
(-1.72148e-09 1.9343e-09 0)
(-3.97645e-09 2.74032e-09 0)
(-5.27767e-10 9.38691e-10 0)
(1.57965e-09 7.24628e-10 0)
(1.99658e-10 1.42916e-09 0)
(2.46974e-10 1.6675e-09 0)
(2.5808e-09 -2.15497e-09 0)
(3.99291e-09 -8.21592e-09 0)
(1.7195e-09 -7.93297e-09 0)
(-2.45233e-09 -2.50664e-10 0)
(-3.78192e-09 6.94976e-09 0)
(-4.11122e-09 5.89021e-09 0)
(3.85527e-10 5.88099e-09 0)
(-3.07595e-10 -1.22092e-09 0)
(-1.71211e-09 -2.08093e-09 0)
(1.84852e-09 1.40094e-09 0)
(5.88222e-09 5.96399e-09 0)
(7.69972e-09 8.99211e-09 0)
(5.79585e-09 5.89705e-09 0)
(8.4799e-10 -8.66028e-10 0)
(-4.15782e-09 -1.67046e-09 0)
(-6.82161e-09 6.75064e-10 0)
(5.41775e-10 6.74747e-10 0)
(9.95721e-10 4.15937e-10 0)
(-9.18159e-10 1.3808e-09 0)
(-2.26576e-09 2.91432e-09 0)
(-6.15113e-10 1.47204e-09 0)
(1.98446e-09 -5.65941e-09 0)
(2.70668e-09 -1.05417e-08 0)
(-7.56958e-11 -7.54751e-09 0)
(-2.17947e-09 1.66954e-11 0)
(-1.58945e-09 5.34009e-09 0)
(-8.61009e-10 8.25071e-09 0)
(-1.03707e-09 4.97056e-09 0)
(1.1158e-09 3.842e-09 0)
(3.72161e-09 4.99128e-09 0)
(5.59951e-09 7.17699e-09 0)
(5.1461e-09 7.36285e-09 0)
(1.18289e-09 2.1537e-09 0)
(-3.65813e-09 -5.01672e-09 0)
(-6.40562e-09 -5.7292e-09 0)
(-6.14801e-09 -1.51424e-09 0)
(1.60386e-09 -6.06922e-10 0)
(1.26896e-09 3.14175e-10 0)
(-1.06537e-09 1.16007e-09 0)
(-3.41669e-09 2.63339e-09 0)
(-3.47984e-09 2.6845e-09 0)
(-1.14412e-09 -1.40059e-09 0)
(9.8283e-10 -7.15294e-09 0)
(1.10212e-09 -8.28959e-09 0)
(1.03038e-10 -4.47539e-09 0)
(4.77966e-10 -5.43683e-11 0)
(3.64049e-10 1.45504e-09 0)
(-1.37552e-09 1.80872e-09 0)
(-1.63334e-09 9.62685e-10 0)
(-7.32293e-11 1.23076e-09 0)
(1.45671e-09 2.62091e-09 0)
(-2.06302e-10 2.03004e-09 0)
(-4.13161e-09 -2.26744e-09 0)
(-6.14495e-09 -6.49139e-09 0)
(-5.47455e-09 -5.9905e-09 0)
(-2.48937e-09 -1.94136e-09 0)
(3.24073e-09 -7.12915e-10 0)
(2.48769e-09 1.62151e-10 0)
(-7.50866e-10 4.89281e-10 0)
(-4.11487e-09 9.88639e-10 0)
(-5.16278e-09 1.15372e-09 0)
(-3.33864e-09 8.69576e-11 0)
(-5.72418e-10 -2.13649e-09 0)
(1.16752e-09 -3.22828e-09 0)
(1.43287e-09 -2.45946e-09 0)
(1.06409e-09 -1.05246e-09 0)
(2.02829e-10 -1.04195e-09 0)
(-1.37562e-09 -9.10841e-10 0)
(-2.74625e-09 -8.72086e-10 0)
(-2.16032e-09 -5.5689e-10 0)
(-1.34064e-09 7.6139e-11 0)
(-3.54468e-09 -2.3815e-10 0)
(-6.19153e-09 -1.7169e-09 0)
(-5.71039e-09 -2.83836e-09 0)
(-3.28984e-09 -2.38235e-09 0)
(5.93804e-10 -8.00793e-10 0)
)
;

boundaryField
{
    sides
    {
        type            calculated;
        value           nonuniform List<vector> 
40
(
(3.24073e-09 0 0)
(2.48769e-09 0 0)
(-7.50866e-10 0 0)
(-4.11487e-09 0 0)
(-5.16278e-09 0 0)
(-3.33864e-09 0 0)
(-5.72418e-10 0 0)
(1.16752e-09 0 0)
(1.43287e-09 0 0)
(1.06409e-09 0 0)
(2.02829e-10 0 0)
(-1.37562e-09 0 0)
(-2.74625e-09 0 0)
(-2.16032e-09 0 0)
(-1.34064e-09 0 0)
(-3.54468e-09 0 0)
(-6.19153e-09 0 0)
(-5.71039e-09 0 0)
(-3.28984e-09 0 0)
(5.93804e-10 0 0)
(-2.30747e-10 0 0)
(-3.35945e-09 0 0)
(-4.7743e-09 0 0)
(-4.73793e-09 0 0)
(-2.06796e-09 0 0)
(-2.32406e-10 0 0)
(1.37442e-10 0 0)
(6.31776e-10 0 0)
(2.67484e-09 0 0)
(5.35254e-09 0 0)
(1.80876e-09 0 0)
(-2.08201e-10 0 0)
(-2.47311e-09 0 0)
(-2.99786e-09 0 0)
(5.0332e-11 0 0)
(2.73425e-09 0 0)
(2.95458e-09 0 0)
(-8.37503e-10 0 0)
(-7.40675e-09 0 0)
(-8.3558e-09 0 0)
)
;
    }
    inlet
    {
        type            calculated;
        value           uniform (0 0 0);
    }
    outlet
    {
        type            calculated;
        value           nonuniform List<vector> 
20
(
(-8.3558e-09 2.72788e-10 0)
(-7.44331e-09 -4.66881e-10 0)
(-5.12332e-09 -2.33916e-09 0)
(6.29781e-10 -3.32663e-09 0)
(2.32838e-09 -2.49624e-09 0)
(3.69256e-09 -1.65582e-09 0)
(4.04641e-09 -1.20061e-09 0)
(3.09286e-09 -7.50706e-11 0)
(-3.35475e-09 7.31879e-10 0)
(-8.85262e-10 1.19583e-09 0)
(-7.36585e-09 4.38646e-10 0)
(-7.50927e-09 -1.8385e-09 0)
(-4.4317e-09 -2.42199e-09 0)
(-8.4537e-10 -2.72326e-10 0)
(-7.13262e-10 2.33713e-09 0)
(-3.97645e-09 2.74032e-09 0)
(-6.82161e-09 6.75064e-10 0)
(-6.14801e-09 -1.51424e-09 0)
(-2.48937e-09 -1.94136e-09 0)
(5.93804e-10 -8.00793e-10 0)
)
;
    }
    frontAndBack
    {
        type            empty;
    }
}


// ************************************************************************* //
