/*--------------------------------*- C++ -*----------------------------------*\
  =========                 |
  \\      /  F ield         | OpenFOAM: The Open Source CFD Toolbox
   \\    /   O peration     | Website:  https://openfoam.org
    \\  /    A nd           | Version:  9
     \\/     M anipulation  |
\*---------------------------------------------------------------------------*/
FoamFile
{
    format      ascii;
    class       surfaceScalarField;
    location    "67";
    object      phi_0;
}
// * * * * * * * * * * * * * * * * * * * * * * * * * * * * * * * * * * * * * //

dimensions      [0 4 -1 0 0 0 0];

internalField   nonuniform List<scalar> 
760
(
5.00009e-06
-9.51319e-11
5.0004e-06
-3.0849e-10
5.00091e-06
-5.15659e-10
5.00161e-06
-7.08105e-10
5.00249e-06
-8.74657e-10
5.00349e-06
-9.99624e-10
5.00455e-06
-1.05619e-09
5.00556e-06
-1.01296e-09
5.0064e-06
-8.32541e-10
5.00692e-06
-5.23765e-10
5.00704e-06
-1.22848e-10
5.00664e-06
3.94657e-10
5.00579e-06
8.49777e-10
5.00469e-06
1.09723e-09
5.00352e-06
1.16771e-09
5.00257e-06
9.51513e-10
5.00185e-06
7.15754e-10
5.0016e-06
2.43942e-10
5.0015e-06
1.03263e-10
-3.92278e-10
5.00012e-06
-2.17527e-10
5.00045e-06
-6.38429e-10
5.00098e-06
-1.05251e-09
5.00172e-06
-1.45017e-09
5.00265e-06
-1.80577e-09
5.00374e-06
-2.088e-09
5.00492e-06
-2.24243e-09
5.0061e-06
-2.19537e-09
5.00712e-06
-1.85682e-09
5.00777e-06
-1.17186e-09
5.00773e-06
-9.19753e-11
5.00724e-06
8.85333e-10
5.00626e-06
1.83572e-09
5.00495e-06
2.40706e-09
5.00368e-06
2.43986e-09
5.00277e-06
1.85704e-09
5.00224e-06
1.24687e-09
5.00191e-06
5.78739e-10
5.00165e-06
3.63617e-10
-1.49064e-10
5.00011e-06
-3.24216e-10
5.00043e-06
-9.59258e-10
5.00095e-06
-1.58858e-09
5.00172e-06
-2.21586e-09
5.00272e-06
-2.80624e-09
5.00394e-06
-3.31109e-09
5.00531e-06
-3.62538e-09
5.00672e-06
-3.59988e-09
5.00792e-06
-3.06734e-09
5.00872e-06
-1.96078e-09
5.00893e-06
-3.05797e-10
5.00824e-06
1.572e-09
5.00686e-06
3.22122e-09
5.00515e-06
4.12554e-09
5.0035e-06
4.08944e-09
5.00231e-06
3.05839e-09
5.00166e-06
1.89491e-09
5.00147e-06
7.69436e-10
5.00144e-06
3.89906e-10
-2.23653e-10
5.0001e-06
-4.21239e-10
5.0004e-06
-1.26894e-09
5.00094e-06
-2.12696e-09
5.00175e-06
-3.02101e-09
5.00285e-06
-3.91519e-09
5.00428e-06
-4.74837e-09
5.00601e-06
-5.35612e-09
5.00794e-06
-5.53547e-09
5.00983e-06
-4.95864e-09
5.01106e-06
-3.19657e-09
5.01119e-06
-4.1946e-10
5.00998e-06
2.77313e-09
5.00764e-06
5.56856e-09
5.00514e-06
6.63027e-09
5.00347e-06
5.75771e-09
5.0027e-06
3.83251e-09
5.00248e-06
2.11981e-09
5.00231e-06
9.40875e-10
5.00199e-06
7.05289e-10
3.38228e-10
5.00008e-06
-5.01907e-10
5.00033e-06
-1.52766e-09
5.00083e-06
-2.62055e-09
5.00163e-06
-3.82365e-09
5.00285e-06
-5.13963e-09
5.00457e-06
-6.46782e-09
5.00679e-06
-7.57706e-09
5.00941e-06
-8.1587e-09
5.01238e-06
-7.92694e-09
5.01478e-06
-5.60269e-09
5.01481e-06
-4.64631e-10
5.01285e-06
4.75809e-09
5.00867e-06
9.73689e-09
5.00459e-06
1.07044e-08
5.00224e-06
8.11213e-09
5.00174e-06
4.32612e-09
5.00204e-06
1.81698e-09
5.00226e-06
7.31328e-10
5.00201e-06
9.47966e-10
6.26464e-10
5.00004e-06
-5.44105e-10
5.00019e-06
-1.6841e-09
5.00053e-06
-2.95953e-09
5.00121e-06
-4.49479e-09
5.0024e-06
-6.33907e-09
5.00452e-06
-8.5775e-09
5.00759e-06
-1.06568e-08
5.01167e-06
-1.22272e-08
5.01551e-06
-1.17977e-08
5.01901e-06
-9.05874e-09
5.0202e-06
-1.68475e-09
5.01601e-06
8.96042e-09
5.00951e-06
1.62608e-08
5.00421e-06
1.59939e-08
5.00217e-06
1.01499e-08
5.00249e-06
3.99905e-09
5.00327e-06
1.03816e-09
5.00339e-06
6.03033e-10
5.00279e-06
1.54369e-09
1.42233e-09
4.99998e-06
-5.25774e-10
4.99993e-06
-1.64216e-09
5.00002e-06
-3.04984e-09
5.00036e-06
-4.82204e-09
5.00122e-06
-7.19653e-09
5.00291e-06
-1.02777e-08
5.0068e-06
-1.45377e-08
5.0139e-06
-1.93522e-08
5.02375e-06
-2.16098e-08
5.03091e-06
-1.62441e-08
5.02875e-06
5.23742e-10
5.01671e-06
2.09264e-08
5.00417e-06
2.88176e-08
4.99873e-06
2.14557e-08
5.00057e-06
8.3084e-09
5.00284e-06
1.72648e-09
5.00372e-06
1.64994e-10
5.00366e-06
6.52567e-10
5.00304e-06
2.15775e-09
1.68076e-09
4.99986e-06
-3.92716e-10
4.99955e-06
-1.32723e-09
4.99912e-06
-2.61951e-09
4.99885e-06
-4.54876e-09
4.99932e-06
-7.67022e-09
5.00035e-06
-1.1307e-08
5.00364e-06
-1.78323e-08
5.00981e-06
-2.55155e-08
5.02489e-06
-3.66636e-08
5.05604e-06
-4.74952e-08
5.05009e-06
7.67343e-09
5.02319e-06
4.78342e-08
4.99817e-06
5.3813e-08
4.99348e-06
2.61414e-08
4.99946e-06
2.34437e-09
5.00407e-06
-2.87734e-09
5.00491e-06
-6.69764e-10
5.00373e-06
1.83168e-09
5.0035e-06
2.37456e-09
9.68951e-10
4.99977e-06
-1.60802e-10
4.99915e-06
-7.09337e-10
4.99791e-06
-1.38299e-09
4.9961e-06
-2.73491e-09
4.99401e-06
-5.58119e-09
4.99373e-06
-1.10329e-08
4.99944e-06
-2.35386e-08
5.01714e-06
-4.32026e-08
5.05569e-06
-7.52206e-08
5.06689e-06
-5.85947e-08
5.04966e-06
2.36949e-08
4.99647e-06
1.01013e-07
4.9893e-06
6.1013e-08
4.99589e-06
1.95402e-08
5.00017e-06
-1.93512e-09
5.00292e-06
-5.61485e-09
5.00252e-06
-2.64362e-10
5.00184e-06
2.51515e-09
5.00254e-06
1.67533e-09
8.41061e-11
4.99986e-06
-1.7477e-11
4.9992e-06
-5.27733e-11
4.99791e-06
-8.64474e-11
4.9953e-06
-1.28265e-10
4.98989e-06
-1.73202e-10
4.97908e-06
-2.25616e-10
4.95582e-06
-2.72024e-10
4.91296e-06
-3.26836e-10
4.83812e-06
-4.13242e-10
4.77999e-06
-4.40032e-10
4.80426e-06
-6.3146e-10
4.90605e-06
-7.24634e-10
4.96779e-06
-7.45522e-10
4.98821e-06
-9.08375e-10
4.98743e-06
-1.16433e-09
4.98325e-06
-1.42575e-09
4.98455e-06
-1.5565e-09
4.9889e-06
-1.82784e-09
4.99247e-06
-1.89583e-09
-2.58346e-09
4.99986e-06
1.26566e-10
4.9992e-06
6.0313e-10
4.9979e-06
1.21312e-09
4.99529e-06
2.48325e-09
4.98987e-06
5.24699e-09
4.97905e-06
1.05963e-08
4.95578e-06
2.30107e-08
4.9129e-06
4.2544e-08
4.83804e-06
7.44631e-08
4.77971e-06
5.78078e-08
4.80426e-06
-2.50169e-08
4.90601e-06
-1.02488e-07
4.96776e-06
-6.25341e-08
4.98806e-06
-2.12068e-08
4.98734e-06
-4.56138e-10
4.98292e-06
2.99612e-09
4.98442e-06
-3.05408e-09
4.98888e-06
-6.28702e-09
4.99234e-06
-5.35717e-09
-4.98168e-09
4.99977e-06
3.59341e-10
4.99915e-06
1.22592e-09
4.99791e-06
2.44626e-09
4.99609e-06
4.29752e-09
4.99401e-06
7.33259e-09
4.99373e-06
1.08859e-08
4.99943e-06
1.73174e-08
5.01708e-06
2.48927e-08
5.0556e-06
3.59059e-08
5.06712e-06
4.64005e-08
5.04942e-06
-8.84462e-09
4.99611e-06
-4.90593e-08
4.98885e-06
-5.52584e-08
4.99569e-06
-2.80499e-08
5.0001e-06
-4.87357e-09
5.0023e-06
7.82939e-10
5.00165e-06
-2.4029e-09
5.0009e-06
-5.54104e-09
5.00168e-06
-6.1365e-09
-5.9486e-09
4.99986e-06
4.93668e-10
4.99955e-06
1.54531e-09
4.99911e-06
2.88459e-09
4.99882e-06
4.58139e-09
4.99927e-06
6.88745e-09
5.00026e-06
9.89384e-09
5.00347e-06
1.41095e-08
5.00959e-06
1.87769e-08
5.02461e-06
2.09228e-08
5.05551e-06
1.53816e-08
5.04981e-06
-1.58092e-09
5.0228e-06
-2.21961e-08
4.99785e-06
-3.03213e-08
4.99315e-06
-2.33399e-08
4.99863e-06
-1.03509e-08
5.00344e-06
-4.02974e-09
5.00372e-06
-2.68383e-09
5.00235e-06
-4.16916e-09
5.00216e-06
-5.94148e-09
-6.53144e-09
4.99998e-06
5.14418e-10
4.99993e-06
1.59538e-09
5e-06
2.81123e-09
5.0003e-06
4.28161e-09
5.00113e-06
6.06254e-09
5.00279e-06
8.22952e-09
5.00667e-06
1.02254e-08
5.01377e-06
1.16848e-08
5.02356e-06
1.11398e-08
5.03072e-06
8.27851e-09
5.02836e-06
5.91531e-10
5.01623e-06
-1.00513e-08
5.00349e-06
-1.75656e-08
4.99777e-06
-1.76103e-08
4.99941e-06
-1.19856e-08
5.00161e-06
-6.22378e-09
5.0024e-06
-3.47669e-09
5.00213e-06
-3.89532e-09
5.00119e-06
-5.00211e-09
-5.97189e-09
5.00004e-06
4.76402e-10
5.00018e-06
1.45068e-09
5.0005e-06
2.49193e-09
5.00114e-06
3.63857e-09
5.00232e-06
4.89329e-09
5.00439e-06
6.15133e-09
5.00741e-06
7.19812e-09
5.01138e-06
7.70425e-09
5.01513e-06
7.4103e-09
5.01852e-06
4.89255e-09
5.01955e-06
-4.06562e-10
5.01522e-06
-5.70229e-09
5.00854e-06
-1.08643e-08
5.00311e-06
-1.21668e-08
5.00088e-06
-9.74624e-09
5.00101e-06
-6.35174e-09
5.00155e-06
-4.01931e-09
5.00131e-06
-3.65614e-09
5.00035e-06
-4.03905e-09
-4.9719e-09
5.00008e-06
3.99905e-10
5.00032e-06
1.20484e-09
5.00079e-06
2.02027e-09
5.00156e-06
2.86625e-09
5.00274e-06
3.71259e-09
5.00441e-06
4.49082e-09
5.00655e-06
5.04533e-09
5.00908e-06
5.1588e-09
5.01202e-06
4.46667e-09
5.0144e-06
2.5203e-09
5.01414e-06
-1.36117e-10
5.01208e-06
-3.63465e-09
5.00775e-06
-6.52477e-09
5.00349e-06
-7.89685e-09
5.00093e-06
-7.18396e-09
5.00013e-06
-5.55516e-09
5.0001e-06
-3.99403e-09
4.99987e-06
-3.42685e-09
4.99917e-06
-3.33699e-09
-4.16859e-09
5.0001e-06
3.03298e-10
5.0004e-06
9.07152e-10
5.0009e-06
1.50688e-09
5.00167e-06
2.09656e-09
5.00273e-06
2.65058e-09
5.00412e-06
3.10922e-09
5.00578e-06
3.37813e-09
5.00762e-06
3.31157e-09
5.00932e-06
2.75781e-09
5.01026e-06
1.57255e-09
5.01042e-06
-3.04859e-10
5.00903e-06
-2.23597e-09
5.0065e-06
-4.00348e-09
5.00368e-06
-5.07383e-09
5.00154e-06
-5.05895e-09
5.00034e-06
-4.36084e-09
4.9997e-06
-3.35442e-09
4.99916e-06
-2.89228e-09
4.99845e-06
-2.62215e-09
-3.21305e-09
5.0001e-06
2.01312e-10
5.00041e-06
5.9832e-10
5.00093e-06
9.88664e-10
5.00166e-06
1.36004e-09
5.00261e-06
1.69382e-09
5.00377e-06
1.94951e-09
5.00509e-06
2.0663e-09
5.00644e-06
1.95728e-09
5.00764e-06
1.55686e-09
5.00838e-06
8.26575e-10
5.00821e-06
-1.3613e-10
5.00733e-06
-1.36249e-09
5.0057e-06
-2.37609e-09
5.00368e-06
-3.06455e-09
5.00179e-06
-3.17331e-09
5.00033e-06
-2.90626e-09
4.99931e-06
-2.33449e-09
4.99852e-06
-2.09734e-09
4.99773e-06
-1.82943e-09
-2.27605e-09
5.00008e-06
1.16561e-10
5.00037e-06
3.07032e-10
5.00086e-06
4.95396e-10
5.00155e-06
6.74743e-10
5.0024e-06
8.31895e-10
5.0034e-06
9.47938e-10
5.00448e-06
9.95579e-10
5.0055e-06
9.36006e-10
5.00632e-06
7.36191e-10
5.00679e-06
3.58775e-10
5.0068e-06
-1.45332e-10
5.00607e-06
-6.31728e-10
5.00478e-06
-1.09293e-09
5.00315e-06
-1.42984e-09
5.00148e-06
-1.50368e-09
5.00002e-06
-1.44199e-09
4.99888e-06
-1.19107e-09
4.99792e-06
-1.13576e-09
4.99707e-06
-9.74185e-10
-1.42345e-09
5.00011e-06
5.00041e-06
5.00091e-06
5.00158e-06
5.00241e-06
5.00336e-06
5.00435e-06
5.00529e-06
5.00603e-06
5.00639e-06
5.00625e-06
5.00562e-06
5.00452e-06
5.0031e-06
5.0016e-06
5.00017e-06
4.99898e-06
4.99785e-06
4.99687e-06
)
;

boundaryField
{
    sides
    {
        type            calculated;
        value           uniform 0;
    }
    inlet
    {
        type            calculated;
        value           nonuniform List<scalar> 
20
(
-5e-06
-5e-06
-5e-06
-5e-06
-5e-06
-5e-06
-5e-06
-5e-06
-5e-06
-5e-06
-5e-06
-5e-06
-5e-06
-5e-06
-5e-06
-5e-06
-5e-06
-5e-06
-5e-06
-5e-06
)
;
    }
    outlet
    {
        type            calculated;
        value           nonuniform List<scalar> 
20
(
5.0019e-06
5.00141e-06
5.00152e-06
5.00143e-06
5.00172e-06
5.002e-06
5.00278e-06
5.00421e-06
5.00343e-06
4.99513e-06
4.99474e-06
5.00265e-06
5.00275e-06
5.00064e-06
4.99935e-06
4.99836e-06
4.99749e-06
4.99679e-06
4.99622e-06
4.99545e-06
)
;
    }
    frontAndBack
    {
        type            empty;
        value           nonuniform List<scalar> 0();
    }
}


// ************************************************************************* //
