/*--------------------------------*- C++ -*----------------------------------*\
  =========                 |
  \\      /  F ield         | OpenFOAM: The Open Source CFD Toolbox
   \\    /   O peration     | Website:  https://openfoam.org
    \\  /    A nd           | Version:  9
     \\/     M anipulation  |
\*---------------------------------------------------------------------------*/
FoamFile
{
    format      ascii;
    class       volVectorField;
    location    "67";
    object      U;
}
// * * * * * * * * * * * * * * * * * * * * * * * * * * * * * * * * * * * * * //

dimensions      [0 1 -1 0 0 0 0];

internalField   nonuniform List<vector> 
400
(
(0.0999965 -2.45406e-06 0)
(0.100001 -7.08227e-06 0)
(0.100009 -1.1364e-05 0)
(0.100023 -1.52721e-05 0)
(0.10004 -1.8715e-05 0)
(0.100061 -2.16217e-05 0)
(0.100083 -2.3655e-05 0)
(0.100107 -2.45409e-05 0)
(0.100128 -2.36451e-05 0)
(0.100144 -2.11268e-05 0)
(0.100152 -1.6826e-05 0)
(0.100152 -1.28573e-05 0)
(0.10014 -9.93953e-06 0)
(0.10012 -9.35097e-06 0)
(0.100093 -1.00105e-05 0)
(0.100068 -1.35863e-05 0)
(0.100045 -1.56708e-05 0)
(0.100034 -2.01313e-05 0)
(0.100025 -1.88727e-05 0)
(0.100033 -2.6849e-05 0)
(0.0999971 -2.73976e-06 0)
(0.100002 -7.9563e-06 0)
(0.100011 -1.29396e-05 0)
(0.100025 -1.74967e-05 0)
(0.100044 -2.12987e-05 0)
(0.100066 -2.39121e-05 0)
(0.100091 -2.45163e-05 0)
(0.100117 -2.20644e-05 0)
(0.100141 -1.5511e-05 0)
(0.100161 -4.79941e-06 0)
(0.100171 9.36206e-06 0)
(0.100168 2.47462e-05 0)
(0.100154 3.88775e-05 0)
(0.100129 4.75771e-05 0)
(0.1001 5.04397e-05 0)
(0.100071 4.51562e-05 0)
(0.10005 3.78602e-05 0)
(0.100037 2.56985e-05 0)
(0.100033 2.04535e-05 0)
(0.100029 8.08248e-06 0)
(0.099997 -5.31646e-06 0)
(0.100002 -1.6022e-05 0)
(0.100011 -2.68815e-05 0)
(0.100025 -3.7518e-05 0)
(0.100044 -4.73383e-05 0)
(0.100068 -5.54461e-05 0)
(0.100096 -6.03349e-05 0)
(0.100127 -5.98279e-05 0)
(0.100156 -5.19216e-05 0)
(0.10018 -3.5202e-05 0)
(0.100193 -1.09663e-05 0)
(0.100192 1.6297e-05 0)
(0.100174 4.01583e-05 0)
(0.100142 5.1915e-05 0)
(0.100102 4.99134e-05 0)
(0.100066 3.54278e-05 0)
(0.100038 2.04208e-05 0)
(0.100026 4.64926e-06 0)
(0.100021 -4.09506e-07 0)
(0.100029 -1.1754e-05 0)
(0.0999964 -7.36572e-06 0)
(0.100001 -2.23792e-05 0)
(0.10001 -3.77548e-05 0)
(0.100025 -5.32622e-05 0)
(0.100046 -6.81085e-05 0)
(0.100073 -8.09709e-05 0)
(0.100107 -8.89222e-05 0)
(0.100146 -8.8673e-05 0)
(0.100186 -7.57025e-05 0)
(0.100222 -4.75634e-05 0)
(0.100243 -2.10639e-06 0)
(0.10024 4.94071e-05 0)
(0.10021 9.37004e-05 0)
(0.100159 0.000113884 0)
(0.100104 0.000105407 0)
(0.100061 7.43874e-05 0)
(0.100041 4.25877e-05 0)
(0.100035 1.7109e-05 0)
(0.10004 1.01044e-05 0)
(0.100035 -1.02395e-08 0)
(0.0999954 -9.06747e-06 0)
(0.0999994 -2.79389e-05 0)
(0.100008 -4.79853e-05 0)
(0.100023 -6.96589e-05 0)
(0.100045 -9.21954e-05 0)
(0.100076 -0.000113942 0)
(0.100117 -0.000129912 0)
(0.100168 -0.000133888 0)
(0.100225 -0.000117733 0)
(0.100281 -7.79192e-05 0)
(0.100318 -1.69353e-05 0)
(0.100316 5.8143e-05 0)
(0.100267 0.000123116 0)
(0.100181 0.000151063 0)
(0.100091 0.00013743 0)
(0.100029 9.65143e-05 0)
(0.100009 5.83655e-05 0)
(0.100019 3.15799e-05 0)
(0.100036 2.61171e-05 0)
(0.100043 1.67408e-05 0)
(0.099994 -1.03002e-05 0)
(0.0999968 -3.19701e-05 0)
(0.100003 -5.64743e-05 0)
(0.100015 -8.4733e-05 0)
(0.100036 -0.00011742 0)
(0.10007 -0.000152522 0)
(0.100122 -0.000185984 0)
(0.100192 -0.000205645 0)
(0.100277 -0.00019153 0)
(0.100357 -0.000119932 0)
(0.100414 8.44736e-06 0)
(0.100415 0.000154596 0)
(0.100339 0.000243595 0)
(0.100208 0.000230373 0)
(0.100085 0.000142855 0)
(0.100015 4.92266e-05 0)
(0.100012 1.46791e-06 0)
(0.100035 -8.45128e-06 0)
(0.100064 5.91904e-06 0)
(0.100055 4.94991e-06 0)
(0.0999924 -1.02538e-05 0)
(0.0999928 -3.34552e-05 0)
(0.0999948 -6.04037e-05 0)
(0.100001 -9.64215e-05 0)
(0.100016 -0.000139357 0)
(0.100046 -0.000194659 0)
(0.100103 -0.000249044 0)
(0.100202 -0.000308683 0)
(0.10035 -0.000323637 0)
(0.100519 -0.000288174 0)
(0.100632 -6.66427e-05 0)
(0.100591 0.000255559 0)
(0.100383 0.00048302 0)
(0.100117 0.00047363 0)
(0.0999478 0.00030266 0)
(0.0999219 0.000126319 0)
(0.0999926 4.31802e-05 0)
(0.100056 3.26718e-05 0)
(0.100095 5.60486e-05 0)
(0.100067 5.33417e-05 0)
(0.0999906 -9.27892e-06 0)
(0.0999873 -2.89683e-05 0)
(0.0999806 -5.78493e-05 0)
(0.099977 -9.58346e-05 0)
(0.0999775 -0.00015784 0)
(0.100001 -0.000234546 0)
(0.100047 -0.000340382 0)
(0.10016 -0.000412643 0)
(0.100335 -0.000437376 0)
(0.100659 -0.000255172 0)
(0.101006 7.54032e-05 0)
(0.101013 0.000427449 0)
(0.100606 0.000472174 0)
(0.100072 0.000278241 0)
(0.0997818 7.35222e-05 0)
(0.0997968 -2.74705e-05 0)
(0.0999672 -2.85571e-05 0)
(0.100089 -1.00669e-06 0)
(0.100138 2.10658e-05 0)
(0.100087 1.02367e-05 0)
(0.0999895 -4.95638e-06 0)
(0.0999806 -2.04477e-05 0)
(0.0999628 -3.8734e-05 0)
(0.0999378 -7.35947e-05 0)
(0.0999106 -0.000133939 0)
(0.0999018 -0.000248202 0)
(0.0999568 -0.000468803 0)
(0.100145 -0.000806895 0)
(0.100537 -0.00132903 0)
(0.101061 -0.00149284 0)
(0.101323 0.000384611 0)
(0.100997 0.0018751 0)
(0.100241 0.00157842 0)
(0.0997199 0.000573964 0)
(0.0996444 -3.15678e-05 0)
(0.0998218 -0.000126286 0)
(0.100024 -9.39779e-06 0)
(0.100107 6.34546e-05 0)
(0.100113 6.51078e-05 0)
(0.100055 2.43775e-05 0)
(0.0999704 -1.99958e-06 0)
(0.100006 -6.6933e-06 0)
(0.0999078 -1.51634e-05 0)
(0.0999717 -2.49276e-05 0)
(0.0997258 -5.93343e-05 0)
(0.099844 -0.000113212 0)
(0.0992766 -0.000288249 0)
(0.0996754 -0.000558794 0)
(0.0991182 -0.00115356 0)
(0.102003 -0.00141518 0)
(0.106281 3.08872e-05 0)
(0.101267 0.00146703 0)
(0.0990079 0.00130722 0)
(0.0982226 0.000513142 0)
(0.0988552 1.9336e-05 0)
(0.0996049 -7.81394e-05 0)
(0.099935 -1.11162e-05 0)
(0.0999522 2.48474e-05 0)
(0.0998669 1.7413e-05 0)
(0.0998489 -1.84464e-05 0)
(0.0999711 1.31087e-06 0)
(0.100007 4.60096e-06 0)
(0.0999084 1.17602e-05 0)
(0.0999721 1.99694e-05 0)
(0.0997261 5.28218e-05 0)
(0.0998441 0.000104985 0)
(0.0992765 0.000278444 0)
(0.0996747 0.000546933 0)
(0.099117 0.0011391 0)
(0.102001 0.00139762 0)
(0.106276 -5.32274e-05 0)
(0.101265 -0.00149433 0)
(0.0990082 -0.00133969 0)
(0.0982223 -0.000552661 0)
(0.0988537 -6.48139e-05 0)
(0.0996014 2.47757e-05 0)
(0.0999309 -4.72565e-05 0)
(0.0999478 -0.00010025 0)
(0.0998658 -9.88342e-05 0)
(0.0998441 -8.88127e-05 0)
(0.0999916 4.28109e-06 0)
(0.0999827 1.84159e-05 0)
(0.0999648 3.53743e-05 0)
(0.0999396 6.87464e-05 0)
(0.0999123 0.000127599 0)
(0.0999038 0.000240052 0)
(0.0999584 0.000458816 0)
(0.100146 0.000794262 0)
(0.100537 0.00131373 0)
(0.101063 0.00147358 0)
(0.101325 -0.000406988 0)
(0.100996 -0.00190235 0)
(0.100235 -0.00160987 0)
(0.0997122 -0.000612107 0)
(0.0996386 -8.50532e-06 0)
(0.0998172 7.73802e-05 0)
(0.100014 -4.28665e-05 0)
(0.100092 -0.00013061 0)
(0.100093 -0.000137925 0)
(0.100038 -0.000125018 0)
(0.0999939 8.63026e-06 0)
(0.0999907 2.70403e-05 0)
(0.0999838 5.45455e-05 0)
(0.0999798 9.10881e-05 0)
(0.0999799 0.000151384 0)
(0.100003 0.000226127 0)
(0.100048 0.000329387 0)
(0.100159 0.000399134 0)
(0.100333 0.000421227 0)
(0.100655 0.000236747 0)
(0.101 -9.77608e-05 0)
(0.101007 -0.000454355 0)
(0.100601 -0.000502256 0)
(0.100067 -0.00031302 0)
(0.099775 -0.000113239 0)
(0.0997846 -2.53681e-05 0)
(0.0999509 -3.25498e-05 0)
(0.100066 -7.43191e-05 0)
(0.100111 -9.66945e-05 0)
(0.100057 -0.000107313 0)
(0.0999972 9.64337e-06 0)
(0.0999974 3.16141e-05 0)
(0.0999992 5.7278e-05 0)
(0.100005 9.1866e-05 0)
(0.100019 0.00013339 0)
(0.100049 0.000187082 0)
(0.100105 0.000239969 0)
(0.100203 0.000297748 0)
(0.100351 0.000311392 0)
(0.10052 0.000273169 0)
(0.100631 5.04425e-05 0)
(0.100586 -0.000275688 0)
(0.100375 -0.000508103 0)
(0.100105 -0.000507165 0)
(0.0999303 -0.00034497 0)
(0.0998989 -0.000179566 0)
(0.0999681 -0.000102361 0)
(0.100026 -0.000106057 0)
(0.100065 -0.000130611 0)
(0.100025 -0.000151438 0)
(0.1 9.7633e-06 0)
(0.100003 3.03328e-05 0)
(0.100009 5.37158e-05 0)
(0.100021 8.07163e-05 0)
(0.100041 0.000112139 0)
(0.100074 0.000145847 0)
(0.100124 0.000177915 0)
(0.100193 0.000195454 0)
(0.100276 0.000178632 0)
(0.100353 0.000103567 0)
(0.100407 -2.80993e-05 0)
(0.100405 -0.000178597 0)
(0.100326 -0.000271238 0)
(0.10019 -0.000263184 0)
(0.100064 -0.000177871 0)
(0.099989 -8.96288e-05 0)
(0.0999835 -4.29089e-05 0)
(0.0999983 -4.48797e-05 0)
(0.100024 -6.14808e-05 0)
(0.100002 -8.47144e-05 0)
(0.100003 8.61053e-06 0)
(0.100007 2.65119e-05 0)
(0.100015 4.5607e-05 0)
(0.100029 6.63064e-05 0)
(0.10005 8.77287e-05 0)
(0.10008 0.000108254 0)
(0.10012 0.000122969 0)
(0.100169 0.000125582 0)
(0.100225 0.000107767 0)
(0.100279 6.59114e-05 0)
(0.100315 1.76402e-06 0)
(0.100309 -7.71238e-05 0)
(0.100256 -0.000145001 0)
(0.100166 -0.000177302 0)
(0.100072 -0.000166685 0)
(0.100003 -0.000134832 0)
(0.0999793 -0.000103077 0)
(0.0999767 -9.37615e-05 0)
(0.0999894 -9.43784e-05 0)
(0.0999774 -0.000110713 0)
(0.100005 6.97517e-06 0)
(0.10001 2.10804e-05 0)
(0.100019 3.55735e-05 0)
(0.100033 5.02748e-05 0)
(0.100053 6.43731e-05 0)
(0.100079 7.63706e-05 0)
(0.100111 8.36134e-05 0)
(0.100148 8.26999e-05 0)
(0.100186 6.94014e-05 0)
(0.100218 4.07998e-05 0)
(0.100235 -4.69426e-06 0)
(0.100228 -5.76288e-05 0)
(0.100195 -0.000103441 0)
(0.100139 -0.000127938 0)
(0.100077 -0.000122829 0)
(0.100023 -9.94574e-05 0)
(0.0999951 -7.0355e-05 0)
(0.0999763 -5.57935e-05 0)
(0.0999768 -4.86515e-05 0)
(0.0999568 -5.97443e-05 0)
(0.100007 5.11688e-06 0)
(0.100012 1.5094e-05 0)
(0.100021 2.48097e-05 0)
(0.100034 3.39734e-05 0)
(0.100053 4.21341e-05 0)
(0.100076 4.81828e-05 0)
(0.100103 5.07203e-05 0)
(0.100131 4.7323e-05 0)
(0.100159 3.62352e-05 0)
(0.100182 1.56281e-05 0)
(0.100193 -1.17157e-05 0)
(0.100186 -4.21477e-05 0)
(0.100162 -6.80846e-05 0)
(0.100122 -8.41259e-05 0)
(0.100078 -8.49877e-05 0)
(0.100032 -7.71675e-05 0)
(0.100001 -6.39876e-05 0)
(0.0999726 -5.98352e-05 0)
(0.0999649 -5.61517e-05 0)
(0.0999396 -6.84272e-05 0)
(0.100009 3.52917e-06 0)
(0.100013 1.05565e-05 0)
(0.100021 1.75342e-05 0)
(0.100034 2.42174e-05 0)
(0.100051 3.01924e-05 0)
(0.100071 3.48939e-05 0)
(0.100094 3.7453e-05 0)
(0.100117 3.68569e-05 0)
(0.100138 3.19948e-05 0)
(0.100153 2.23841e-05 0)
(0.10016 8.53146e-06 0)
(0.100155 -7.12592e-06 0)
(0.100137 -2.06369e-05 0)
(0.100105 -2.9729e-05 0)
(0.100068 -3.12682e-05 0)
(0.100027 -2.82941e-05 0)
(0.0999972 -2.04534e-05 0)
(0.0999657 -1.7027e-05 0)
(0.0999541 -1.18878e-05 0)
(0.0999259 -1.98132e-05 0)
(0.10001 -3.80164e-07 0)
(0.100015 -9.60067e-07 0)
(0.100023 -1.27158e-06 0)
(0.100036 -1.46906e-06 0)
(0.100053 -1.72663e-06 0)
(0.100072 -2.3171e-06 0)
(0.100093 -3.40826e-06 0)
(0.100115 -5.3665e-06 0)
(0.100134 -8.19616e-06 0)
(0.100147 -1.22476e-05 0)
(0.100152 -1.70631e-05 0)
(0.100145 -2.31866e-05 0)
(0.100129 -2.9073e-05 0)
(0.1001 -3.41389e-05 0)
(0.100069 -3.59912e-05 0)
(0.10003 -3.68495e-05 0)
(0.100003 -3.43138e-05 0)
(0.0999669 -3.53463e-05 0)
(0.0999557 -3.28028e-05 0)
(0.0999145 -4.1052e-05 0)
)
;

boundaryField
{
    sides
    {
        type            calculated;
        value           nonuniform List<vector> 
40
(
(0.10001 0 0)
(0.100015 0 0)
(0.100023 0 0)
(0.100036 0 0)
(0.100053 0 0)
(0.100072 0 0)
(0.100093 0 0)
(0.100115 0 0)
(0.100134 0 0)
(0.100147 0 0)
(0.100152 0 0)
(0.100145 0 0)
(0.100129 0 0)
(0.1001 0 0)
(0.100069 0 0)
(0.10003 0 0)
(0.100003 0 0)
(0.0999669 0 0)
(0.0999557 0 0)
(0.0999145 0 0)
(0.0999965 0 0)
(0.100001 0 0)
(0.100009 0 0)
(0.100023 0 0)
(0.10004 0 0)
(0.100061 0 0)
(0.100083 0 0)
(0.100107 0 0)
(0.100128 0 0)
(0.100144 0 0)
(0.100152 0 0)
(0.100152 0 0)
(0.10014 0 0)
(0.10012 0 0)
(0.100093 0 0)
(0.100068 0 0)
(0.100045 0 0)
(0.100034 0 0)
(0.100025 0 0)
(0.100033 0 0)
)
;
    }
    inlet
    {
        type            calculated;
        value           nonuniform List<vector> 
20
(
(0.0999964 0 0)
(0.0999969 0 0)
(0.0999968 0 0)
(0.0999962 0 0)
(0.0999952 0 0)
(0.0999939 0 0)
(0.0999924 0 0)
(0.099991 0 0)
(0.09999 0 0)
(0.09999 0 0)
(0.0999907 0 0)
(0.0999921 0 0)
(0.0999944 0 0)
(0.0999971 0 0)
(0.1 0 0)
(0.100003 0 0)
(0.100005 0 0)
(0.100007 0 0)
(0.100009 0 0)
(0.10001 0 0)
)
;
    }
    outlet
    {
        type            calculated;
        value           nonuniform List<vector> 
20
(
(0.100033 -2.68491e-05 0)
(0.100029 8.08246e-06 0)
(0.10003 -1.1754e-05 0)
(0.100035 -1.02394e-08 0)
(0.100043 1.67408e-05 0)
(0.100054 4.94987e-06 0)
(0.100066 5.3341e-05 0)
(0.100085 1.02365e-05 0)
(0.100054 2.43772e-05 0)
(0.0998503 -1.84466e-05 0)
(0.0998453 -8.88138e-05 0)
(0.100037 -0.000125017 0)
(0.100055 -0.000107311 0)
(0.100024 -0.000151435 0)
(0.100001 -8.47134e-05 0)
(0.0999767 -0.000110712 0)
(0.099956 -5.97438e-05 0)
(0.0999387 -6.84266e-05 0)
(0.099925 -1.98131e-05 0)
(0.0999132 -4.10514e-05 0)
)
;
    }
    frontAndBack
    {
        type            empty;
    }
}


// ************************************************************************* //
