/*--------------------------------*- C++ -*----------------------------------*\
  =========                 |
  \\      /  F ield         | OpenFOAM: The Open Source CFD Toolbox
   \\    /   O peration     | Website:  https://openfoam.org
    \\  /    A nd           | Version:  9
     \\/     M anipulation  |
\*---------------------------------------------------------------------------*/
FoamFile
{
    format      ascii;
    class       volScalarField;
    location    "18";
    object      ddt0(h);
}
// * * * * * * * * * * * * * * * * * * * * * * * * * * * * * * * * * * * * * //

dimensions      [0 1 -1 0 0 0 0];

internalField   nonuniform List<scalar> 
400
(
4.49106e-06
3.65376e-06
1.55666e-06
-8.38091e-07
-1.49602e-06
-9.91651e-07
-3.68e-07
-7.41263e-08
-3.64544e-07
-1.20238e-06
-2.06999e-06
-2.34832e-06
-2.56333e-06
-2.49425e-06
-2.24415e-06
-1.71471e-06
-9.71653e-07
-4.85612e-07
-2.10743e-07
-6.01089e-08
3.73654e-06
3.34186e-06
1.3961e-06
-5.40331e-07
-1.16677e-06
-7.77283e-07
-2.32799e-07
-8.19343e-09
-2.02871e-07
-9.14067e-07
-2.23292e-06
-2.62091e-06
-2.56842e-06
-2.27829e-06
-1.75268e-06
-1.19949e-06
-5.88222e-07
-1.2226e-08
-2.74048e-07
-2.57391e-08
2.87022e-06
2.25225e-06
9.87118e-07
-3.42572e-07
-7.4315e-07
-3.85137e-07
-1.04244e-08
1.79794e-07
-2.29869e-07
-9.16976e-07
-1.54024e-06
-2.07313e-06
-1.78424e-06
-1.45124e-06
-8.96058e-07
-3.35363e-07
3.23936e-07
-1.97549e-07
-4.68632e-08
-6.64457e-08
1.37515e-06
1.41894e-06
6.64242e-07
1.84673e-09
-1.19274e-07
1.37102e-07
3.83978e-07
2.62045e-07
-2.90703e-07
-1.01539e-06
-1.26326e-06
-1.54683e-06
-1.24566e-06
-6.82436e-07
-1.81391e-08
5.11437e-07
5.59072e-07
1.0169e-06
4.56214e-08
2.78924e-08
-2.19623e-07
6.16305e-08
9.43048e-08
9.97121e-08
2.94654e-07
6.28403e-07
6.7124e-07
8.88196e-08
-4.52398e-07
-9.4324e-07
-1.25092e-06
-1.25136e-06
-6.72923e-07
3.09186e-07
8.89421e-07
1.33575e-06
1.40181e-06
1.06899e-06
8.81211e-07
1.4378e-07
-1.80362e-06
-1.34425e-06
-6.47266e-07
-3.51268e-08
5.57905e-07
8.12423e-07
5.54973e-07
-1.36671e-07
-8.33663e-07
-1.6517e-06
-1.20973e-06
-8.35976e-07
-1.14847e-07
1.03661e-06
1.7104e-06
1.86175e-06
1.81019e-06
1.24117e-06
1.01719e-06
4.28553e-07
-3.3595e-06
-2.52998e-06
-1.35191e-06
-2.63737e-07
5.2069e-07
6.98275e-07
1.95314e-07
-5.73272e-07
-1.5602e-06
-1.51458e-06
-2.28007e-06
-2.88601e-07
6.70118e-07
1.64998e-06
2.20079e-06
2.34951e-06
2.38631e-06
1.93762e-06
1.51031e-06
6.02241e-07
-4.44412e-06
-3.52753e-06
-1.98423e-06
-4.96774e-07
3.53434e-07
4.42531e-07
-1.74372e-07
-1.23372e-06
-2.04159e-06
-1.60177e-06
-1.20994e-06
-5.90585e-07
1.46426e-06
2.41635e-06
2.72606e-06
2.69285e-06
2.46411e-06
2.62087e-06
2.14086e-06
8.24111e-07
-5.28135e-06
-4.26252e-06
-2.43633e-06
-6.54812e-07
2.33671e-07
2.34633e-07
-5.05645e-07
-1.62582e-06
-2.63513e-06
-3.56365e-06
-2.6041e-06
6.33061e-08
1.45969e-06
2.80701e-06
3.1194e-06
2.9689e-06
3.02211e-06
3.15295e-06
2.53616e-06
9.27324e-07
-5.70413e-06
-4.67048e-06
-2.66759e-06
-7.68874e-07
1.00805e-07
5.3492e-08
-6.98085e-07
-1.86593e-06
-2.77443e-06
-3.5828e-06
-1.57672e-06
-5.99737e-07
1.82534e-06
3.073e-06
3.21744e-06
3.05557e-06
3.12692e-06
3.24404e-06
2.63476e-06
1.05365e-06
-5.76531e-06
-4.69465e-06
-2.72472e-06
-8.25835e-07
4.50709e-08
4.82061e-08
-6.0134e-07
-1.69164e-06
-2.95607e-06
-3.29685e-06
-1.94106e-06
-4.82162e-07
2.02511e-06
3.03497e-06
3.11879e-06
2.94233e-06
2.96529e-06
3.13912e-06
2.6257e-06
1.04758e-06
-5.29763e-06
-4.3383e-06
-2.48404e-06
-7.5058e-07
1.5989e-07
3.08462e-07
-3.03863e-07
-1.35554e-06
-2.62236e-06
-3.20592e-06
-3.60592e-06
1.97663e-07
1.61602e-06
2.86116e-06
3.11949e-06
2.85339e-06
2.84468e-06
2.9361e-06
2.42687e-06
9.87746e-07
-4.40432e-06
-3.61173e-06
-2.11044e-06
-5.85079e-07
3.85658e-07
5.85759e-07
1.38708e-08
-1.07595e-06
-2.00317e-06
-2.0831e-06
-6.86722e-07
-6.04157e-07
1.45333e-06
2.52923e-06
2.86133e-06
2.72831e-06
2.61798e-06
2.54668e-06
2.03301e-06
8.19477e-07
-3.22896e-06
-2.55433e-06
-1.49864e-06
-3.14393e-07
5.23326e-07
6.92511e-07
3.05586e-07
-5.78954e-07
-1.34865e-06
-1.68701e-06
-2.10992e-06
-3.90892e-07
7.57356e-07
1.88782e-06
2.42213e-06
2.51806e-06
2.40037e-06
2.09041e-06
1.55629e-06
6.08082e-07
-1.72615e-06
-1.30352e-06
-7.15396e-07
-1.12208e-07
4.79196e-07
7.46107e-07
5.98882e-07
-1.47007e-07
-8.63162e-07
-1.53963e-06
-9.59107e-07
-1.03571e-06
6.43322e-10
1.03511e-06
1.70343e-06
2.00582e-06
1.98432e-06
1.62339e-06
1.10094e-06
3.9912e-07
-1.14109e-07
8.65974e-08
4.02976e-08
-6.57947e-08
2.37285e-07
5.50989e-07
4.94081e-07
6.69888e-08
-5.95715e-07
-1.05211e-06
-1.45488e-06
-1.33668e-06
-7.72994e-07
3.86925e-08
8.15411e-07
1.28623e-06
1.37096e-06
1.10747e-06
6.58532e-07
2.04991e-07
1.48028e-06
1.45627e-06
7.45913e-07
-3.49902e-08
-1.5597e-07
1.37667e-07
2.36119e-07
5.46346e-08
-3.02852e-07
-9.50329e-07
-1.8781e-06
-1.88378e-06
-1.44214e-06
-7.63458e-07
-1.38409e-07
3.71479e-07
6.25358e-07
5.47109e-07
2.62334e-07
5.09693e-08
2.98133e-06
2.84759e-06
1.45549e-06
-8.28183e-08
-5.10558e-07
-2.5821e-07
2.17933e-08
1.64973e-08
-4.04399e-07
-1.1265e-06
-1.54339e-06
-2.08067e-06
-2.00685e-06
-1.57132e-06
-1.08424e-06
-4.94493e-07
-5.13936e-08
6.74572e-08
-3.91399e-08
-4.9631e-08
4.21615e-06
3.33434e-06
1.74951e-06
-2.68382e-07
-1.06862e-06
-7.01309e-07
-2.41408e-07
1.63106e-08
-3.71981e-07
-1.20241e-06
-2.11932e-06
-2.613e-06
-2.51432e-06
-2.18056e-06
-1.77607e-06
-1.1759e-06
-5.36668e-07
-2.27883e-07
-2.17625e-07
-1.15654e-07
4.65189e-06
3.92498e-06
1.79557e-06
-3.6659e-07
-1.29944e-06
-1.06904e-06
-4.15551e-07
9.42662e-09
-3.04827e-07
-1.27801e-06
-2.21121e-06
-2.56839e-06
-2.61682e-06
-2.55666e-06
-2.26439e-06
-1.60372e-06
-7.60025e-07
-3.54214e-07
-3.52838e-07
-1.86562e-07
)
;

boundaryField
{
    sides
    {
        type            calculated;
        value           nonuniform List<scalar> 
40
(
4.65189e-06
3.92498e-06
1.79557e-06
-3.6659e-07
-1.29944e-06
-1.06904e-06
-4.15551e-07
9.42662e-09
-3.04827e-07
-1.27801e-06
-2.21121e-06
-2.56839e-06
-2.61682e-06
-2.55666e-06
-2.26439e-06
-1.60372e-06
-7.60025e-07
-3.54214e-07
-3.52838e-07
-1.86562e-07
4.49106e-06
3.65376e-06
1.55666e-06
-8.38091e-07
-1.49602e-06
-9.91651e-07
-3.68e-07
-7.41263e-08
-3.64544e-07
-1.20238e-06
-2.06999e-06
-2.34832e-06
-2.56333e-06
-2.49425e-06
-2.24415e-06
-1.71471e-06
-9.71653e-07
-4.85612e-07
-2.10743e-07
-6.01089e-08
)
;
    }
    inlet
    {
        type            calculated;
        value           nonuniform List<scalar> 
20
(
4.49106e-06
3.73654e-06
2.87022e-06
1.37515e-06
-2.19623e-07
-1.80362e-06
-3.3595e-06
-4.44412e-06
-5.28135e-06
-5.70413e-06
-5.76531e-06
-5.29763e-06
-4.40432e-06
-3.22896e-06
-1.72615e-06
-1.14109e-07
1.48028e-06
2.98133e-06
4.21615e-06
4.65189e-06
)
;
    }
    outlet
    {
        type            calculated;
        value           uniform 0;
    }
    frontAndBack
    {
        type            empty;
    }
}


// ************************************************************************* //
