/*--------------------------------*- C++ -*----------------------------------*\
  =========                 |
  \\      /  F ield         | OpenFOAM: The Open Source CFD Toolbox
   \\    /   O peration     | Website:  https://openfoam.org
    \\  /    A nd           | Version:  9
     \\/     M anipulation  |
\*---------------------------------------------------------------------------*/
FoamFile
{
    format      ascii;
    class       volVectorField;
    location    "18";
    object      ddtCorrDdt0(hU);
}
// * * * * * * * * * * * * * * * * * * * * * * * * * * * * * * * * * * * * * //

dimensions      [0 2 -2 0 0 0 0];

internalField   nonuniform List<vector> 
400
(
(3.61446e-07 9.80117e-08 0)
(-4.86415e-07 2.67182e-08 0)
(-3.8024e-07 -3.30712e-08 0)
(-3.59298e-09 -7.56974e-09 0)
(-1.45292e-07 1.064e-08 0)
(-4.2701e-07 1.82435e-08 0)
(-6.62086e-07 3.41656e-08 0)
(-8.73463e-07 5.06714e-08 0)
(-9.37748e-07 7.27046e-09 0)
(-7.37393e-07 -5.83806e-08 0)
(-3.86469e-07 -5.93262e-08 0)
(-1.15776e-07 1.51559e-08 0)
(-2.72795e-08 4.42653e-08 0)
(7.18858e-08 -1.81135e-08 0)
(2.56947e-07 -1.03795e-07 0)
(4.25255e-07 -1.40762e-07 0)
(4.95468e-07 -1.11587e-07 0)
(3.97595e-07 -4.26309e-08 0)
(2.63364e-07 -3.37327e-08 0)
(3.39697e-07 -2.15154e-08 0)
(3.28527e-07 2.79321e-07 0)
(-4.22794e-07 4.09729e-08 0)
(-3.58593e-07 -8.6842e-08 0)
(1.469e-08 -2.63908e-08 0)
(-1.28501e-07 9.7593e-09 0)
(-4.18082e-07 9.40278e-09 0)
(-6.49435e-07 6.36608e-08 0)
(-8.55476e-07 1.13785e-07 0)
(-9.31822e-07 2.56827e-08 0)
(-7.41826e-07 -8.72172e-08 0)
(-4.28222e-07 -6.06302e-08 0)
(-1.59035e-07 1.09128e-07 0)
(-4.51543e-08 2.06228e-07 0)
(8.23652e-08 1.79658e-08 0)
(2.81649e-07 -2.52652e-07 0)
(4.23415e-07 -3.40382e-07 0)
(4.89702e-07 -1.91198e-07 0)
(4.55288e-07 8.04714e-08 0)
(3.56047e-07 7.44918e-08 0)
(4.81189e-07 -5.65515e-08 0)
(2.71762e-07 4.11468e-07 0)
(-3.67351e-07 2.2372e-08 0)
(-2.8964e-07 -1.78306e-07 0)
(-1.65652e-08 -8.75537e-08 0)
(-1.64629e-07 -3.11445e-08 0)
(-4.22435e-07 -3.02861e-08 0)
(-6.17569e-07 7.14715e-08 0)
(-7.78043e-07 1.3813e-07 0)
(-8.46354e-07 2.79824e-08 0)
(-7.03907e-07 -1.06651e-07 0)
(-4.23411e-07 1.40355e-08 0)
(-1.62892e-07 2.91148e-07 0)
(1.92832e-08 4.12119e-07 0)
(1.19813e-07 9.85129e-08 0)
(3.07578e-07 -3.27777e-07 0)
(4.88088e-07 -4.49113e-07 0)
(6.12564e-07 -2.28078e-07 0)
(5.03437e-07 1.58151e-07 0)
(4.24211e-07 1.28384e-07 0)
(4.92224e-07 -6.28287e-08 0)
(1.74201e-07 4.47246e-07 0)
(-2.59211e-07 -2.59866e-08 0)
(-2.15529e-07 -2.96511e-07 0)
(-2.65983e-08 -1.75619e-07 0)
(-1.74379e-07 -9.71057e-08 0)
(-4.00759e-07 -7.10483e-08 0)
(-5.65163e-07 5.63056e-08 0)
(-7.02565e-07 1.48401e-07 0)
(-7.57046e-07 2.25659e-08 0)
(-6.33961e-07 -1.67798e-07 0)
(-3.79066e-07 -4.12951e-08 0)
(-1.73148e-07 4.20807e-07 0)
(4.89909e-09 5.65766e-07 0)
(1.38843e-07 1.93974e-07 0)
(3.30685e-07 -3.08516e-07 0)
(4.67676e-07 -4.52334e-07 0)
(5.35784e-07 -1.32366e-07 0)
(6.31903e-07 3.37713e-07 0)
(6.11447e-07 2.68586e-07 0)
(7.26979e-07 -4.93567e-08 0)
(9.21593e-08 4.07976e-07 0)
(-1.46929e-07 -1.42275e-07 0)
(-1.43841e-07 -4.15222e-07 0)
(-7.06394e-08 -2.81314e-07 0)
(-2.11491e-07 -1.88783e-07 0)
(-3.88906e-07 -1.42926e-07 0)
(-5.12919e-07 7.09045e-09 0)
(-6.08267e-07 1.35675e-07 0)
(-6.49786e-07 -9.14766e-10 0)
(-6.09174e-07 -1.07888e-07 0)
(-3.67042e-07 8.23479e-08 0)
(-1.16505e-07 5.73379e-07 0)
(4.65547e-08 7.26661e-07 0)
(2.19057e-07 3.14203e-07 0)
(3.65344e-07 -2.08855e-07 0)
(5.40118e-07 -3.64247e-07 0)
(6.65339e-07 1.41634e-08 0)
(7.00204e-07 5.14461e-07 0)
(6.97394e-07 3.87498e-07 0)
(6.65552e-07 -2.47048e-08 0)
(-1.03664e-08 3.34604e-07 0)
(-5.64611e-08 -2.61041e-07 0)
(-8.42575e-08 -5.2551e-07 0)
(-1.25081e-07 -3.9327e-07 0)
(-2.44381e-07 -2.76707e-07 0)
(-3.82802e-07 -2.23831e-07 0)
(-4.74572e-07 -5.20007e-08 0)
(-5.19843e-07 9.52446e-08 0)
(-4.71656e-07 -8.75528e-09 0)
(-4.36489e-07 -6.28114e-08 0)
(-3.10479e-07 2.12402e-07 0)
(-1.68659e-07 7.31449e-07 0)
(1.95089e-08 9.43658e-07 0)
(2.5944e-07 4.54538e-07 0)
(4.05729e-07 -9.86623e-08 0)
(5.04197e-07 -2.213e-07 0)
(5.96579e-07 1.31357e-07 0)
(6.66655e-07 6.15737e-07 0)
(8.28444e-07 4.22019e-07 0)
(8.08672e-07 1.347e-08 0)
(-1.17641e-07 2.29011e-07 0)
(3.00454e-08 -3.2783e-07 0)
(-4.21716e-08 -5.69794e-07 0)
(-1.7156e-07 -4.54312e-07 0)
(-2.91694e-07 -3.40237e-07 0)
(-4.07928e-07 -2.78853e-07 0)
(-4.51966e-07 -1.09965e-07 0)
(-4.07709e-07 4.71797e-08 0)
(-3.42005e-07 4.5433e-08 0)
(-2.69745e-07 -5.58659e-08 0)
(-2.93392e-07 3.2146e-07 0)
(-4.47251e-10 6.31547e-07 0)
(7.2978e-08 9.06225e-07 0)
(2.08336e-07 5.52373e-07 0)
(4.19373e-07 6.92698e-08 0)
(5.52311e-07 -2.04604e-08 0)
(6.46288e-07 3.98885e-07 0)
(6.97892e-07 7.80807e-07 0)
(7.9814e-07 5.47705e-07 0)
(7.30731e-07 6.08586e-08 0)
(-1.9162e-07 1.35612e-07 0)
(8.93508e-08 -3.20649e-07 0)
(-2.02597e-08 -5.17118e-07 0)
(-2.15349e-07 -4.32757e-07 0)
(-3.31893e-07 -3.47761e-07 0)
(-4.2138e-07 -2.85722e-07 0)
(-4.14717e-07 -1.3242e-07 0)
(-2.81759e-07 9.68569e-09 0)
(-1.87735e-07 1.29311e-08 0)
(3.12289e-09 6.23697e-08 0)
(-1.60936e-07 2.3714e-07 0)
(-2.12845e-07 7.54193e-07 0)
(2.48906e-07 7.72995e-07 0)
(3.79257e-07 4.65323e-07 0)
(4.93146e-07 1.21585e-07 0)
(6.42581e-07 3.68077e-08 0)
(5.98374e-07 3.29492e-07 0)
(5.93208e-07 6.33339e-07 0)
(7.8518e-07 4.59686e-07 0)
(6.50873e-07 7.90399e-08 0)
(-2.53237e-07 7.76759e-08 0)
(1.26802e-07 -2.36772e-07 0)
(-8.59379e-09 -3.63394e-07 0)
(-2.4942e-07 -3.15675e-07 0)
(-3.65346e-07 -2.6106e-07 0)
(-4.26604e-07 -2.03622e-07 0)
(-3.83311e-07 -9.23294e-08 0)
(-2.24284e-07 -9.43097e-09 0)
(-7.66999e-09 -1.2226e-08 0)
(-1.25611e-07 4.44001e-08 0)
(-7.10943e-08 1.7594e-07 0)
(6.43098e-08 6.03731e-07 0)
(-2.41053e-08 6.23348e-07 0)
(3.33056e-07 3.63698e-07 0)
(5.50579e-07 4.75616e-08 0)
(6.22743e-07 -1.31533e-08 0)
(6.12433e-07 1.49691e-07 0)
(6.46286e-07 4.12208e-07 0)
(7.76572e-07 2.93756e-07 0)
(5.88367e-07 6.87396e-08 0)
(-2.83659e-07 1.93831e-08 0)
(1.49767e-07 -1.10548e-07 0)
(4.02629e-09 -1.54581e-07 0)
(-2.66475e-07 -1.3819e-07 0)
(-3.83908e-07 -1.18211e-07 0)
(-4.28907e-07 -7.55615e-08 0)
(-3.53758e-07 -2.46813e-08 0)
(-1.86963e-07 -2.46451e-08 0)
(-6.3513e-09 1.13836e-08 0)
(1.52434e-08 -1.65445e-08 0)
(6.64189e-08 1.64893e-07 0)
(-1.0752e-07 1.03927e-07 0)
(1.12454e-07 2.55667e-07 0)
(3.85183e-07 1.57458e-07 0)
(5.53205e-07 -5.8255e-08 0)
(5.64788e-07 -8.42583e-08 0)
(5.70666e-07 5.75322e-08 0)
(6.8867e-07 1.29631e-07 0)
(7.4946e-07 9.13561e-08 0)
(4.92402e-07 6.08433e-08 0)
(-2.8327e-07 -4.11352e-08 0)
(1.69808e-07 3.51213e-08 0)
(1.20047e-08 6.49282e-08 0)
(-2.67729e-07 5.55769e-08 0)
(-3.83641e-07 5.18692e-08 0)
(-4.25871e-07 4.04515e-08 0)
(-3.65556e-07 4.16194e-09 0)
(-1.87892e-07 -1.51423e-08 0)
(-2.20185e-08 -3.28972e-08 0)
(4.58608e-08 1.07928e-08 0)
(2.33378e-08 -2.07757e-07 0)
(-8.33525e-08 -1.11394e-07 0)
(1.37371e-07 -1.9709e-07 0)
(3.50045e-07 -1.99461e-07 0)
(5.31539e-07 -1.10145e-07 0)
(5.85454e-07 -1.4627e-07 0)
(5.96564e-07 -2.14579e-07 0)
(6.90438e-07 -2.291e-07 0)
(7.33727e-07 -9.07286e-08 0)
(4.80297e-07 5.22458e-08 0)
(-2.46306e-07 -9.74724e-08 0)
(1.59493e-07 1.60662e-07 0)
(2.75466e-08 2.56546e-07 0)
(-2.2957e-07 2.15801e-07 0)
(-3.55976e-07 1.78903e-07 0)
(-4.27556e-07 1.38305e-07 0)
(-4.03733e-07 3.82205e-08 0)
(-2.47386e-07 -9.89229e-09 0)
(-3.96737e-08 6.15729e-09 0)
(-1.68365e-07 9.82849e-09 0)
(-2.04936e-07 2.79996e-09 0)
(1.95299e-07 -4.36908e-07 0)
(6.978e-08 -5.68264e-07 0)
(3.04737e-07 -3.87025e-07 0)
(5.39641e-07 -1.20845e-07 0)
(6.66082e-07 -1.23514e-07 0)
(6.3843e-07 -3.36837e-07 0)
(6.34858e-07 -5.08196e-07 0)
(7.52486e-07 -3.10093e-07 0)
(5.59317e-07 2.94048e-08 0)
(-1.79584e-07 -1.60229e-07 0)
(1.30299e-07 2.38595e-07 0)
(2.1415e-08 3.98658e-07 0)
(-1.82985e-07 3.01689e-07 0)
(-3.13122e-07 2.17055e-07 0)
(-4.24764e-07 1.7569e-07 0)
(-4.27897e-07 5.78023e-08 0)
(-2.9402e-07 -3.63725e-08 0)
(-1.71879e-07 9.96211e-09 0)
(8.15729e-08 -1.3453e-08 0)
(-3.12779e-08 -7.87911e-08 0)
(-2.99271e-07 -6.03832e-07 0)
(1.71159e-07 -7.32386e-07 0)
(3.87884e-07 -4.56078e-07 0)
(5.38515e-07 -1.35339e-07 0)
(6.31717e-07 -1.36359e-07 0)
(6.46117e-07 -4.52877e-07 0)
(6.39555e-07 -7.54891e-07 0)
(7.27401e-07 -4.84659e-07 0)
(6.13505e-07 1.60771e-08 0)
(-1.08684e-07 -2.41102e-07 0)
(6.76893e-08 2.55249e-07 0)
(-2.2215e-09 4.50211e-07 0)
(-1.44028e-07 3.01923e-07 0)
(-2.78431e-07 1.89354e-07 0)
(-4.08857e-07 1.53168e-07 0)
(-4.51561e-07 2.65099e-08 0)
(-4.14691e-07 -1.02543e-07 0)
(-3.3946e-07 -3.59212e-08 0)
(-2.90287e-07 4.49202e-08 0)
(-2.36867e-07 -3.75828e-07 0)
(1.32965e-08 -6.27367e-07 0)
(1.2327e-07 -8.61782e-07 0)
(3.00038e-07 -5.43828e-07 0)
(4.76416e-07 -1.24904e-07 0)
(5.80685e-07 -9.11647e-08 0)
(6.22801e-07 -4.48944e-07 0)
(6.94896e-07 -8.4586e-07 0)
(7.87574e-07 -5.38941e-07 0)
(6.94833e-07 3.31685e-08 0)
(-1.86389e-08 -3.40563e-07 0)
(-3.7685e-08 2.14576e-07 0)
(-5.96375e-08 4.26441e-07 0)
(-1.03489e-07 2.55725e-07 0)
(-2.32128e-07 1.37164e-07 0)
(-3.87558e-07 9.6754e-08 0)
(-4.86712e-07 -4.25099e-08 0)
(-5.11468e-07 -1.57855e-07 0)
(-4.71911e-07 -3.51207e-08 0)
(-4.13972e-07 8.80313e-08 0)
(-2.22753e-07 -1.48368e-07 0)
(-1.48544e-07 -7.01359e-07 0)
(6.15532e-08 -8.90515e-07 0)
(3.00288e-07 -4.85297e-07 0)
(4.5956e-07 3.4187e-09 0)
(5.67982e-07 8.15293e-08 0)
(6.42857e-07 -2.59874e-07 0)
(6.97134e-07 -7.22546e-07 0)
(7.49102e-07 -4.91907e-07 0)
(7.18982e-07 5.15334e-08 0)
(8.13732e-08 -4.22429e-07 0)
(-1.44038e-07 1.36713e-07 0)
(-1.32414e-07 3.66615e-07 0)
(-7.29276e-08 1.92574e-07 0)
(-2.14493e-07 7.88756e-08 0)
(-3.96575e-07 3.90062e-08 0)
(-5.26285e-07 -9.8335e-08 0)
(-6.15467e-07 -1.79478e-07 0)
(-6.45934e-07 -4.69671e-08 0)
(-5.59702e-07 1.05211e-07 0)
(-3.66457e-07 -8.7599e-08 0)
(-9.13457e-08 -5.65755e-07 0)
(1.09051e-07 -7.18451e-07 0)
(2.39993e-07 -3.45643e-07 0)
(4.13636e-07 1.44991e-07 0)
(5.66944e-07 2.42574e-07 0)
(6.26305e-07 -1.19069e-07 0)
(6.27253e-07 -6.14204e-07 0)
(6.43929e-07 -4.08759e-07 0)
(6.91941e-07 8.58589e-08 0)
(1.81139e-07 -4.53495e-07 0)
(-2.43212e-07 2.92755e-08 0)
(-2.11106e-07 2.54248e-07 0)
(-3.91836e-08 9.08568e-08 0)
(-1.91963e-07 4.08994e-09 0)
(-4.17481e-07 -4.64742e-09 0)
(-5.77006e-07 -1.0991e-07 0)
(-7.11272e-07 -1.90255e-07 0)
(-7.59856e-07 -3.86511e-08 0)
(-6.11377e-07 1.5249e-07 0)
(-3.8752e-07 1.05026e-08 0)
(-1.33471e-07 -3.86408e-07 0)
(5.22374e-08 -5.81615e-07 0)
(2.06014e-07 -2.24935e-07 0)
(3.89874e-07 2.47979e-07 0)
(5.10078e-07 3.33051e-07 0)
(5.55827e-07 3.13209e-09 0)
(5.66779e-07 -4.40201e-07 0)
(5.60578e-07 -2.84741e-07 0)
(6.37441e-07 1.05284e-07 0)
(2.57742e-07 -4.25344e-07 0)
(-3.32181e-07 -6.16935e-08 0)
(-2.71221e-07 1.39809e-07 0)
(-4.5812e-09 2.10821e-08 0)
(-1.46168e-07 -4.68664e-08 0)
(-4.02164e-07 -4.27608e-08 0)
(-6.0832e-07 -1.08939e-07 0)
(-7.95627e-07 -1.65601e-07 0)
(-8.54187e-07 -1.98028e-08 0)
(-7.10387e-07 1.64534e-07 0)
(-3.67523e-07 6.14322e-08 0)
(-9.42028e-08 -2.34877e-07 0)
(6.38056e-08 -3.8322e-07 0)
(1.98947e-07 -1.11819e-07 0)
(3.46584e-07 2.60196e-07 0)
(4.73226e-07 3.58806e-07 0)
(5.29022e-07 1.31528e-07 0)
(4.909e-07 -2.15319e-07 0)
(4.14035e-07 -1.47993e-07 0)
(5.1943e-07 9.77693e-08 0)
(3.3093e-07 -3.17735e-07 0)
(-4.38363e-07 -7.10525e-08 0)
(-3.18578e-07 6.16983e-08 0)
(8.47258e-09 -1.78478e-08 0)
(-1.55886e-07 -6.47226e-08 0)
(-4.12529e-07 -4.22465e-08 0)
(-6.25703e-07 -7.91901e-08 0)
(-8.22832e-07 -1.04666e-07 0)
(-8.93959e-07 -2.11834e-08 0)
(-7.10918e-07 9.48096e-08 0)
(-3.74943e-07 7.80234e-08 0)
(-1.17495e-07 -1.19676e-07 0)
(5.89244e-09 -2.03308e-07 0)
(1.38712e-07 -5.03149e-08 0)
(3.3944e-07 1.8901e-07 0)
(4.80966e-07 2.63329e-07 0)
(5.15288e-07 1.1742e-07 0)
(4.29557e-07 -1.13563e-07 0)
(2.87286e-07 -7.15266e-08 0)
(3.91297e-07 7.84637e-08 0)
(3.68686e-07 -1.1858e-07 0)
(-4.54828e-07 -2.55283e-08 0)
(-3.88172e-07 1.31365e-08 0)
(6.54321e-09 -2.35377e-08 0)
(-1.23271e-07 -3.68675e-08 0)
(-3.97329e-07 -1.40296e-08 0)
(-6.32623e-07 -2.15598e-08 0)
(-8.61357e-07 -3.38149e-08 0)
(-9.38943e-07 -1.98615e-08 0)
(-7.28995e-07 1.43666e-08 0)
(-3.67275e-07 5.64324e-09 0)
(-7.93111e-08 -6.34581e-08 0)
(3.47224e-08 -7.72636e-08 0)
(1.21612e-07 -1.12722e-08 0)
(3.03045e-07 7.09894e-08 0)
(4.48562e-07 8.47794e-08 0)
(5.01895e-07 2.93764e-08 0)
(4.14564e-07 -4.98795e-08 0)
(2.36417e-07 -2.98335e-08 0)
(3.22535e-07 2.686e-08 0)
)
;

boundaryField
{
    sides
    {
        type            calculated;
        value           nonuniform List<vector> 
40
(
(3.68686e-07 0 0)
(-4.54828e-07 0 0)
(-3.88172e-07 0 0)
(6.54321e-09 0 0)
(-1.23271e-07 0 0)
(-3.97329e-07 0 0)
(-6.32623e-07 0 0)
(-8.61357e-07 0 0)
(-9.38943e-07 0 0)
(-7.28995e-07 0 0)
(-3.67275e-07 0 0)
(-7.93111e-08 0 0)
(3.47224e-08 0 0)
(1.21612e-07 0 0)
(3.03045e-07 0 0)
(4.48562e-07 0 0)
(5.01895e-07 0 0)
(4.14564e-07 0 0)
(2.36417e-07 0 0)
(3.22535e-07 0 0)
(3.61446e-07 0 0)
(-4.86415e-07 0 0)
(-3.8024e-07 0 0)
(-3.59298e-09 0 0)
(-1.45292e-07 0 0)
(-4.2701e-07 0 0)
(-6.62086e-07 0 0)
(-8.73463e-07 0 0)
(-9.37748e-07 0 0)
(-7.37393e-07 0 0)
(-3.86469e-07 0 0)
(-1.15776e-07 0 0)
(-2.72795e-08 0 0)
(7.18858e-08 0 0)
(2.56947e-07 0 0)
(4.25255e-07 0 0)
(4.95468e-07 0 0)
(3.97595e-07 0 0)
(2.63364e-07 0 0)
(3.39697e-07 0 0)
)
;
    }
    inlet
    {
        type            calculated;
        value           uniform (0 0 0);
    }
    outlet
    {
        type            calculated;
        value           nonuniform List<vector> 
20
(
(3.39697e-07 -2.15154e-08 0)
(4.81189e-07 -5.65515e-08 0)
(4.92224e-07 -6.28287e-08 0)
(7.26979e-07 -4.93567e-08 0)
(6.65552e-07 -2.47048e-08 0)
(8.08672e-07 1.347e-08 0)
(7.30731e-07 6.08586e-08 0)
(6.50873e-07 7.90399e-08 0)
(5.88367e-07 6.87396e-08 0)
(4.92402e-07 6.08433e-08 0)
(4.80297e-07 5.22458e-08 0)
(5.59317e-07 2.94048e-08 0)
(6.13505e-07 1.60771e-08 0)
(6.94833e-07 3.31685e-08 0)
(7.18982e-07 5.15334e-08 0)
(6.91941e-07 8.58589e-08 0)
(6.37441e-07 1.05284e-07 0)
(5.1943e-07 9.77693e-08 0)
(3.91297e-07 7.84637e-08 0)
(3.22535e-07 2.686e-08 0)
)
;
    }
    frontAndBack
    {
        type            empty;
    }
}


// ************************************************************************* //
