/*--------------------------------*- C++ -*----------------------------------*\
  =========                 |
  \\      /  F ield         | OpenFOAM: The Open Source CFD Toolbox
   \\    /   O peration     | Website:  https://openfoam.org
    \\  /    A nd           | Version:  9
     \\/     M anipulation  |
\*---------------------------------------------------------------------------*/
FoamFile
{
    format      ascii;
    class       volScalarField;
    location    "18";
    object      h_0;
}
// * * * * * * * * * * * * * * * * * * * * * * * * * * * * * * * * * * * * * //

dimensions      [0 1 0 0 0 0 0];

internalField   nonuniform List<scalar> 
400
(
0.00999991
0.0100004
0.0100006
0.0100005
0.0100003
0.0100001
0.0100001
0.0100003
0.0100005
0.0100008
0.0100009
0.0100009
0.0100008
0.0100008
0.0100007
0.0100006
0.0100005
0.0100005
0.0100004
0.0100002
0.00999993
0.0100003
0.0100005
0.0100004
0.0100001
0.00999996
0.00999995
0.0100001
0.0100003
0.0100005
0.0100006
0.0100006
0.0100006
0.0100006
0.0100006
0.0100006
0.0100006
0.0100005
0.0100004
0.0100001
0.01
0.0100003
0.0100004
0.0100003
0.0100001
0.00999994
0.00999991
0.01
0.0100002
0.0100003
0.0100003
0.0100004
0.0100004
0.0100005
0.0100006
0.0100007
0.0100008
0.0100008
0.0100005
0.0100002
0.0100003
0.0100004
0.0100004
0.0100003
0.0100001
0.00999996
0.00999988
0.00999988
0.00999984
0.00999978
0.00999971
0.00999976
0.00999996
0.0100003
0.0100007
0.0100009
0.010001
0.0100008
0.0100005
0.0100002
0.0100006
0.0100005
0.0100004
0.0100003
0.0100002
0.0100001
0.00999993
0.00999976
0.00999948
0.00999915
0.00999891
0.0099989
0.0099993
0.0100001
0.0100009
0.0100014
0.0100014
0.0100011
0.0100006
0.0100002
0.010001
0.0100008
0.0100006
0.0100005
0.0100005
0.0100003
0.0100001
0.00999966
0.00999904
0.0099983
0.00999774
0.00999765
0.0099984
0.00999973
0.010001
0.0100016
0.0100015
0.010001
0.0100005
0.0100001
0.0100015
0.0100011
0.0100009
0.0100008
0.0100009
0.0100008
0.0100006
0.00999979
0.0099984
0.00999661
0.00999535
0.00999561
0.0099977
0.0100005
0.0100024
0.0100025
0.0100017
0.0100007
0.0100002
0.01
0.0100019
0.0100015
0.0100013
0.0100013
0.0100015
0.0100016
0.0100014
0.0100005
0.00999856
0.0099954
0.00999126
0.00999102
0.00999523
0.010001
0.0100042
0.0100038
0.0100019
0.0100003
0.00999984
0.00999996
0.0100023
0.0100018
0.0100016
0.0100019
0.0100024
0.0100028
0.0100025
0.0100007
0.0099967
0.0099906
0.0099875
0.00999012
0.00999849
0.0100043
0.0100051
0.010003
0.0100008
0.00999971
0.00999971
0.00999999
0.0100024
0.0100019
0.0100018
0.0100023
0.0100033
0.010005
0.0100071
0.0100091
0.0100061
0.00897935
0.00895284
0.0099761
0.0100091
0.0100183
0.010011
0.0100028
0.00999926
0.00999917
0.00999997
0.0100002
0.0100024
0.0100019
0.0100018
0.0100023
0.0100033
0.0100049
0.010007
0.0100091
0.0100061
0.00897935
0.00895285
0.00997608
0.0100091
0.0100182
0.010011
0.0100029
0.00999925
0.00999914
0.00999994
0.0100002
0.0100021
0.0100016
0.0100015
0.0100017
0.0100022
0.0100026
0.0100024
0.0100006
0.00999656
0.00999048
0.00998742
0.00999001
0.00999839
0.0100042
0.010005
0.0100029
0.0100007
0.00999966
0.00999969
0.00999999
0.0100017
0.0100013
0.010001
0.0100011
0.0100012
0.0100013
0.0100011
0.0100002
0.00999835
0.00999517
0.00999097
0.00999075
0.00999498
0.0100008
0.0100039
0.0100037
0.0100018
0.0100003
0.0099998
0.00999995
0.0100011
0.0100008
0.0100005
0.0100005
0.0100005
0.0100005
0.0100002
0.00999943
0.00999804
0.00999625
0.00999499
0.00999525
0.00999738
0.0100002
0.0100021
0.0100023
0.0100015
0.0100006
0.0100001
0.01
0.0100006
0.0100004
0.0100002
0.0100001
0.00999999
0.00999987
0.00999964
0.00999923
0.00999859
0.00999788
0.00999732
0.00999726
0.00999802
0.00999936
0.0100007
0.0100013
0.0100012
0.0100008
0.0100003
0.0100001
0.01
0.00999997
0.00999987
0.00999976
0.00999965
0.00999953
0.0099994
0.00999923
0.00999896
0.00999862
0.00999835
0.00999836
0.00999877
0.00999956
0.0100004
0.0100009
0.010001
0.0100008
0.0100005
0.0100001
0.00999953
0.00999968
0.00999969
0.00999959
0.00999945
0.00999931
0.00999925
0.00999924
0.00999922
0.00999918
0.00999913
0.00999919
0.00999938
0.00999975
0.0100002
0.0100005
0.0100006
0.0100006
0.0100004
0.0100001
0.00999916
0.00999949
0.0099996
0.00999952
0.00999934
0.00999919
0.00999916
0.00999925
0.00999938
0.00999947
0.00999955
0.00999959
0.00999967
0.00999981
0.01
0.0100002
0.0100003
0.0100003
0.0100003
0.0100001
0.00999891
0.00999938
0.00999957
0.0099995
0.0099993
0.00999912
0.00999911
0.00999927
0.00999951
0.00999969
0.00999978
0.00999982
0.00999984
0.00999987
0.00999991
0.00999998
0.0100001
0.0100002
0.0100002
0.0100001
0.00999875
0.00999926
0.00999949
0.00999943
0.00999922
0.00999901
0.00999899
0.00999918
0.00999946
0.00999969
0.0099998
0.00999984
0.00999982
0.0099998
0.00999978
0.00999978
0.00999986
0.00999996
0.01
0.00999999
)
;

boundaryField
{
    sides
    {
        type            zeroGradient;
    }
    inlet
    {
        type            zeroGradient;
    }
    outlet
    {
        type            fixedValue;
        value           uniform 0.01;
    }
    frontAndBack
    {
        type            empty;
    }
}


// ************************************************************************* //
