/*--------------------------------*- C++ -*----------------------------------*\
  =========                 |
  \\      /  F ield         | OpenFOAM: The Open Source CFD Toolbox
   \\    /   O peration     | Website:  https://openfoam.org
    \\  /    A nd           | Version:  9
     \\/     M anipulation  |
\*---------------------------------------------------------------------------*/
FoamFile
{
    format      ascii;
    class       volScalarField;
    location    "18";
    object      hTotal;
}
// * * * * * * * * * * * * * * * * * * * * * * * * * * * * * * * * * * * * * //

dimensions      [0 1 0 0 0 0 0];

internalField   nonuniform List<scalar> 
400
(
0.0100004
0.0100008
0.0100007
0.0100004
0.0100002
0.01
0.0100001
0.0100003
0.0100005
0.0100006
0.0100006
0.0100006
0.0100006
0.0100005
0.0100004
0.0100004
0.0100005
0.0100005
0.0100004
0.0100002
0.0100003
0.0100007
0.0100006
0.0100003
0.0100001
0.00999992
0.00999995
0.0100001
0.0100003
0.0100004
0.0100004
0.0100004
0.0100004
0.0100004
0.0100004
0.0100005
0.0100005
0.0100005
0.0100004
0.0100001
0.0100003
0.0100006
0.0100005
0.0100003
0.0100001
0.00999994
0.00999993
0.01
0.0100001
0.0100001
0.0100001
0.0100001
0.0100002
0.0100003
0.0100005
0.0100007
0.0100008
0.0100007
0.0100005
0.0100002
0.0100004
0.0100005
0.0100004
0.0100003
0.0100001
0.01
0.00999994
0.00999991
0.00999981
0.00999966
0.00999957
0.00999958
0.0099998
0.0100002
0.0100007
0.010001
0.010001
0.0100009
0.0100005
0.0100002
0.0100006
0.0100006
0.0100004
0.0100003
0.0100003
0.0100002
0.01
0.00999977
0.00999944
0.00999903
0.00999874
0.00999874
0.0099992
0.01
0.0100009
0.0100015
0.0100015
0.0100012
0.0100007
0.0100002
0.0100008
0.0100007
0.0100005
0.0100005
0.0100005
0.0100004
0.0100002
0.00999966
0.00999894
0.00999814
0.00999759
0.00999756
0.00999837
0.0099998
0.0100011
0.0100018
0.0100017
0.0100011
0.0100006
0.0100002
0.0100012
0.0100009
0.0100008
0.0100008
0.010001
0.0100009
0.0100006
0.00999972
0.00999824
0.00999645
0.00999512
0.00999554
0.00999776
0.0100007
0.0100026
0.0100028
0.0100019
0.0100009
0.0100003
0.0100001
0.0100015
0.0100012
0.0100011
0.0100013
0.0100016
0.0100016
0.0100013
0.0100003
0.00999836
0.00999518
0.00999126
0.00999096
0.00999536
0.0100012
0.0100044
0.0100041
0.0100021
0.0100006
0.0100001
0.01
0.0100017
0.0100014
0.0100014
0.0100018
0.0100024
0.0100028
0.0100025
0.0100006
0.00999642
0.00999032
0.00998717
0.00999016
0.00999865
0.0100045
0.0100054
0.0100033
0.0100011
0.01
0.00999997
0.0100001
0.0100018
0.0100015
0.0100016
0.0100022
0.0100033
0.010005
0.010007
0.0100089
0.0100058
0.009979
0.00995271
0.00997609
0.0100093
0.0100186
0.0100113
0.0100032
0.00999958
0.00999951
0.0100002
0.0100003
0.0100018
0.0100014
0.0100015
0.0100022
0.0100032
0.0100049
0.0100069
0.0100089
0.0100058
0.00997901
0.00995268
0.00997607
0.0100093
0.0100185
0.0100113
0.0100031
0.00999957
0.00999948
0.0100002
0.0100003
0.0100016
0.0100012
0.0100012
0.0100017
0.0100022
0.0100026
0.0100023
0.0100004
0.00999628
0.00999021
0.00998691
0.00999003
0.00999857
0.0100045
0.0100053
0.0100032
0.010001
0.00999998
0.00999994
0.0100001
0.0100013
0.0100009
0.0100008
0.010001
0.0100013
0.0100014
0.0100011
0.0100001
0.00999815
0.00999493
0.00999111
0.00999072
0.00999512
0.010001
0.0100042
0.0100039
0.010002
0.0100005
0.01
0.01
0.0100008
0.0100006
0.0100004
0.0100005
0.0100006
0.0100005
0.0100002
0.00999937
0.0099979
0.00999608
0.00999478
0.00999519
0.00999744
0.0100004
0.0100023
0.0100026
0.0100017
0.0100008
0.0100002
0.0100001
0.0100004
0.0100002
0.0100001
0.0100001
0.0100001
0.00999996
0.00999971
0.00999921
0.0099985
0.00999772
0.00999719
0.00999715
0.009998
0.00999943
0.0100008
0.0100015
0.0100014
0.0100009
0.0100004
0.0100001
0.01
0.00999999
0.00999988
0.00999977
0.0099997
0.0099996
0.00999946
0.00999924
0.0099989
0.0099985
0.00999818
0.00999819
0.00999867
0.00999954
0.0100005
0.010001
0.0100012
0.0100009
0.0100005
0.0100001
0.0099997
0.00999983
0.00999976
0.0099996
0.00999946
0.00999936
0.00999929
0.00999925
0.00999918
0.00999906
0.00999893
0.00999896
0.0099992
0.00999964
0.0100001
0.0100005
0.0100007
0.0100006
0.0100004
0.0100001
0.00999948
0.00999976
0.00999973
0.00999952
0.00999932
0.00999919
0.00999918
0.00999926
0.00999933
0.00999935
0.00999935
0.00999935
0.00999944
0.00999963
0.00999988
0.0100001
0.0100003
0.0100003
0.0100002
0.0100001
0.00999935
0.0099997
0.00999971
0.00999947
0.00999922
0.00999908
0.00999911
0.00999928
0.00999946
0.00999955
0.00999955
0.00999954
0.00999956
0.00999963
0.00999973
0.00999988
0.01
0.0100001
0.0100001
0.01
0.00999923
0.00999963
0.00999964
0.00999939
0.00999911
0.00999894
0.00999898
0.00999919
0.00999941
0.00999953
0.00999956
0.00999955
0.00999954
0.00999953
0.00999956
0.00999964
0.0099998
0.00999992
0.00999997
0.00999997
)
;

boundaryField
{
    sides
    {
        type            calculated;
        value           nonuniform List<scalar> 
40
(
0.00999923
0.00999963
0.00999964
0.00999939
0.00999911
0.00999894
0.00999898
0.00999919
0.00999941
0.00999953
0.00999956
0.00999955
0.00999954
0.00999953
0.00999956
0.00999964
0.0099998
0.00999992
0.00999997
0.00999997
0.0100004
0.0100008
0.0100007
0.0100004
0.0100002
0.01
0.0100001
0.0100003
0.0100005
0.0100006
0.0100006
0.0100006
0.0100006
0.0100005
0.0100004
0.0100004
0.0100005
0.0100005
0.0100004
0.0100002
)
;
    }
    inlet
    {
        type            calculated;
        value           nonuniform List<scalar> 
20
(
0.0100004
0.0100003
0.0100003
0.0100004
0.0100006
0.0100008
0.0100012
0.0100015
0.0100017
0.0100018
0.0100018
0.0100016
0.0100013
0.0100008
0.0100004
0.01
0.0099997
0.00999948
0.00999935
0.00999923
)
;
    }
    outlet
    {
        type            calculated;
        value           uniform 0.01;
    }
    frontAndBack
    {
        type            empty;
    }
}


// ************************************************************************* //
