/*--------------------------------*- C++ -*----------------------------------*\
  =========                 |
  \\      /  F ield         | OpenFOAM: The Open Source CFD Toolbox
   \\    /   O peration     | Website:  https://openfoam.org
    \\  /    A nd           | Version:  9
     \\/     M anipulation  |
\*---------------------------------------------------------------------------*/
FoamFile
{
    format      ascii;
    class       volVectorField;
    location    "18";
    object      hU;
}
// * * * * * * * * * * * * * * * * * * * * * * * * * * * * * * * * * * * * * //

dimensions      [0 2 -1 0 0 0 0];

internalField   nonuniform List<vector> 
400
(
(0.000999898 -6.95871e-08 0)
(0.000999782 -1.61651e-07 0)
(0.00100007 -1.72247e-07 0)
(0.00100022 -1.66673e-07 0)
(0.00100034 -1.78592e-07 0)
(0.00100056 -1.99509e-07 0)
(0.00100077 -2.24531e-07 0)
(0.00100096 -2.52425e-07 0)
(0.00100119 -2.5498e-07 0)
(0.00100144 -2.04206e-07 0)
(0.00100158 -1.27354e-07 0)
(0.00100158 -7.58254e-08 0)
(0.00100152 -6.51928e-08 0)
(0.00100147 -8.10336e-08 0)
(0.00100136 -8.04897e-08 0)
(0.00100118 -9.03686e-08 0)
(0.00100089 -9.40586e-08 0)
(0.00100067 -1.51164e-07 0)
(0.00100058 -1.72763e-07 0)
(0.0010007 -2.67637e-07 0)
(0.000999904 -1.47668e-07 0)
(0.000999821 -3.31166e-07 0)
(0.00100011 -2.95554e-07 0)
(0.00100026 -2.27081e-07 0)
(0.00100038 -2.08487e-07 0)
(0.0010006 -2.11293e-07 0)
(0.00100083 -2.23616e-07 0)
(0.00100105 -2.45713e-07 0)
(0.00100132 -2.09272e-07 0)
(0.00100159 -4.10041e-08 0)
(0.00100174 2.10412e-07 0)
(0.00100175 4.05588e-07 0)
(0.00100167 4.76984e-07 0)
(0.00100157 4.85617e-07 0)
(0.00100142 5.36348e-07 0)
(0.00100118 5.75333e-07 0)
(0.00100094 5.78631e-07 0)
(0.00100071 3.88462e-07 0)
(0.00100066 1.76368e-07 0)
(0.00100065 3.88453e-08 0)
(0.000999915 -2.35105e-07 0)
(0.000999868 -5.39979e-07 0)
(0.00100013 -5.2227e-07 0)
(0.00100028 -4.58508e-07 0)
(0.00100041 -4.71592e-07 0)
(0.00100065 -5.18109e-07 0)
(0.00100091 -5.78017e-07 0)
(0.00100117 -6.48983e-07 0)
(0.00100147 -6.13193e-07 0)
(0.00100177 -3.51055e-07 0)
(0.00100196 6.84403e-08 0)
(0.00100199 4.059e-07 0)
(0.00100189 5.26319e-07 0)
(0.00100171 5.21925e-07 0)
(0.00100144 5.47463e-07 0)
(0.00100114 5.46822e-07 0)
(0.0010008 5.09243e-07 0)
(0.00100057 2.69142e-07 0)
(0.00100052 9.62377e-10 0)
(0.00100064 -1.49765e-07 0)
(0.000999928 -3.12862e-07 0)
(0.000999937 -7.02764e-07 0)
(0.00100018 -7.00238e-07 0)
(0.00100032 -6.44384e-07 0)
(0.00100047 -6.87909e-07 0)
(0.00100072 -7.74346e-07 0)
(0.00100102 -8.72077e-07 0)
(0.00100137 -9.67417e-07 0)
(0.00100177 -8.95776e-07 0)
(0.00100217 -4.90747e-07 0)
(0.00100244 1.86053e-07 0)
(0.00100247 7.88279e-07 0)
(0.00100227 1.08814e-06 0)
(0.0010019 1.13776e-06 0)
(0.00100145 1.10803e-06 0)
(0.00100105 9.87772e-07 0)
(0.00100083 8.21028e-07 0)
(0.00100071 4.47455e-07 0)
(0.00100072 9.42947e-08 0)
(0.00100064 -5.44193e-08 0)
(0.000999946 -3.68349e-07 0)
(0.00100001 -8.18998e-07 0)
(0.00100022 -8.54302e-07 0)
(0.00100035 -8.50092e-07 0)
(0.00100049 -9.63507e-07 0)
(0.00100078 -1.13297e-06 0)
(0.00100115 -1.31139e-06 0)
(0.00100161 -1.45465e-06 0)
(0.00100215 -1.35168e-06 0)
(0.00100274 -8.16587e-07 0)
(0.00100316 4.00109e-08 0)
(0.00100321 9.01156e-07 0)
(0.00100284 1.40935e-06 0)
(0.00100212 1.52472e-06 0)
(0.00100134 1.43735e-06 0)
(0.00100076 1.22807e-06 0)
(0.0010005 1.02725e-06 0)
(0.00100049 6.33431e-07 0)
(0.00100062 2.58836e-07 0)
(0.00100066 1.17507e-07 0)
(0.000999964 -3.91769e-07 0)
(0.00100007 -8.67608e-07 0)
(0.00100023 -9.56524e-07 0)
(0.00100033 -1.02706e-06 0)
(0.00100047 -1.24352e-06 0)
(0.00100076 -1.54703e-06 0)
(0.00100124 -1.8986e-06 0)
(0.00100188 -2.19966e-06 0)
(0.00100267 -2.11583e-06 0)
(0.00100345 -1.25774e-06 0)
(0.00100407 2.80723e-07 0)
(0.00100418 1.84923e-06 0)
(0.00100356 2.5787e-06 0)
(0.00100239 2.27736e-06 0)
(0.00100124 1.47064e-06 0)
(0.00100057 7.42218e-07 0)
(0.00100052 4.41115e-07 0)
(0.00100068 2.42504e-07 0)
(0.00100088 9.74349e-08 0)
(0.0010007 2.08233e-08 0)
(0.000999979 -3.72172e-07 0)
(0.00100011 -8.34182e-07 0)
(0.0010002 -9.70082e-07 0)
(0.00100024 -1.14574e-06 0)
(0.00100033 -1.47743e-06 0)
(0.00100059 -1.98783e-06 0)
(0.00100111 -2.54616e-06 0)
(0.00100201 -3.22913e-06 0)
(0.00100337 -3.42191e-06 0)
(0.00100496 -2.94746e-06 0)
(0.00100607 -5.15401e-07 0)
(0.00100579 2.82499e-06 0)
(0.00100398 4.97346e-06 0)
(0.0010016 4.71615e-06 0)
(0.00100003 3.06177e-06 0)
(0.00099972 1.52129e-06 0)
(0.00100031 8.85028e-07 0)
(0.00100083 6.56343e-07 0)
(0.00100112 6.00229e-07 0)
(0.00100073 5.04655e-07 0)
(0.00099999 -3.13384e-07 0)
(0.00100013 -6.9344e-07 0)
(0.00100012 -8.81811e-07 0)
(0.00100007 -1.11889e-06 0)
(0.00100003 -1.6604e-06 0)
(0.00100022 -2.38857e-06 0)
(0.00100065 -3.45788e-06 0)
(0.00100169 -4.25166e-06 0)
(0.00100327 -4.53683e-06 0)
(0.00100626 -2.61093e-06 0)
(0.00100948 8.88224e-07 0)
(0.00100967 4.48078e-06 0)
(0.00100606 4.82541e-06 0)
(0.00100121 2.7801e-06 0)
(0.000998536 7.71203e-07 0)
(0.000998596 -5.97131e-08 0)
(0.00100005 1.00046e-07 0)
(0.0010011 2.92246e-07 0)
(0.00100147 2.95773e-07 0)
(0.00100084 1.10887e-07 0)
(0.001 -1.98175e-07 0)
(0.00100011 -4.7226e-07 0)
(0.000999989 -5.90186e-07 0)
(0.000999748 -8.45907e-07 0)
(0.000999464 -1.3939e-06 0)
(0.000999361 -2.50848e-06 0)
(0.000999866 -4.72242e-06 0)
(0.00100158 -8.1462e-06 0)
(0.00100513 -1.33908e-05 0)
(0.00100987 -1.49629e-05 0)
(0.00101228 3.9247e-06 0)
(0.00100943 1.88662e-05 0)
(0.00100277 1.58257e-05 0)
(0.000998069 5.68555e-06 0)
(0.000997266 -3.33605e-07 0)
(0.000998751 -1.14858e-06 0)
(0.0010005 1.23957e-07 0)
(0.00100121 8.06267e-07 0)
(0.00100117 7.18443e-07 0)
(0.00100048 2.64238e-07 0)
(0.000999817 -8.14139e-08 0)
(0.00100039 -1.7453e-07 0)
(0.000999456 -2.31136e-07 0)
(0.00100013 -2.88919e-07 0)
(0.0009977 -6.01909e-07 0)
(0.000999001 -1.11936e-06 0)
(0.00099352 -2.87174e-06 0)
(0.000997717 -5.58685e-06 0)
(0.000991887 -1.15401e-05 0)
(0.000916105 -1.27155e-05 0)
(0.000951851 2.76795e-07 0)
(0.00101077 1.46701e-05 0)
(0.000991527 1.30839e-05 0)
(0.000984461 5.07218e-06 0)
(0.000989922 1.46588e-07 0)
(0.000996513 -7.48975e-07 0)
(0.000999463 -2.27436e-08 0)
(0.000999625 3.2779e-07 0)
(0.00099872 2.63797e-07 0)
(0.000998409 -1.2732e-07 0)
(0.000999818 4.76453e-08 0)
(0.00100039 1.0804e-07 0)
(0.000999453 1.64768e-07 0)
(0.00100012 2.33958e-07 0)
(0.000997697 5.66915e-07 0)
(0.000998998 1.09922e-06 0)
(0.000993513 2.84869e-06 0)
(0.000997706 5.54552e-06 0)
(0.000991865 1.14521e-05 0)
(0.000916079 1.2588e-05 0)
(0.000951799 -4.88357e-07 0)
(0.00101074 -1.49917e-05 0)
(0.000991536 -1.35047e-05 0)
(0.000984463 -5.59216e-06 0)
(0.000989904 -7.17213e-07 0)
(0.00099648 1.61927e-07 0)
(0.000999426 -5.25975e-07 0)
(0.000999577 -9.88605e-07 0)
(0.000998694 -8.81507e-07 0)
(0.00099836 -8.21369e-07 0)
(0.001 1.68693e-07 0)
(0.00100011 4.11026e-07 0)
(0.000999981 5.24881e-07 0)
(0.000999739 7.92079e-07 0)
(0.000999453 1.35791e-06 0)
(0.000999351 2.48208e-06 0)
(0.000999852 4.69204e-06 0)
(0.00100157 8.09297e-06 0)
(0.00100512 1.3299e-05 0)
(0.00100987 1.48099e-05 0)
(0.00101229 -4.13246e-06 0)
(0.00100943 -1.91801e-05 0)
(0.0010027 -1.62379e-05 0)
(0.000997965 -6.18655e-06 0)
(0.000997197 -1.65303e-07 0)
(0.00099868 6.05988e-07 0)
(0.00100038 -6.14902e-07 0)
(0.00100106 -1.40573e-06 0)
(0.00100099 -1.28572e-06 0)
(0.00100031 -1.16615e-06 0)
(0.000999996 2.88776e-07 0)
(0.00100013 6.40556e-07 0)
(0.00100011 8.21812e-07 0)
(0.00100006 1.0675e-06 0)
(0.00100002 1.62123e-06 0)
(0.0010002 2.35818e-06 0)
(0.00100062 3.4188e-06 0)
(0.00100165 4.1918e-06 0)
(0.00100322 4.43856e-06 0)
(0.00100619 2.46266e-06 0)
(0.0010094 -1.09996e-06 0)
(0.00100957 -4.79539e-06 0)
(0.00100599 -5.22193e-06 0)
(0.00100115 -3.22636e-06 0)
(0.000998439 -1.2531e-06 0)
(0.000998434 -5.05672e-07 0)
(0.000999859 -6.4204e-07 0)
(0.00100084 -9.27196e-07 0)
(0.0010012 -8.62744e-07 0)
(0.00100056 -9.6534e-07 0)
(0.000999985 3.53792e-07 0)
(0.00100011 7.92292e-07 0)
(0.00100019 9.19731e-07 0)
(0.00100022 1.09872e-06 0)
(0.00100031 1.4406e-06 0)
(0.00100056 1.95491e-06 0)
(0.00100108 2.50888e-06 0)
(0.00100197 3.17131e-06 0)
(0.00100333 3.34512e-06 0)
(0.00100493 2.82368e-06 0)
(0.00100604 3.45361e-07 0)
(0.00100573 -3.06618e-06 0)
(0.00100388 -5.31149e-06 0)
(0.00100144 -5.16166e-06 0)
(0.00099982 -3.58446e-06 0)
(0.000999455 -2.08678e-06 0)
(0.00100004 -1.41798e-06 0)
(0.00100052 -1.29547e-06 0)
(0.0010008 -1.1887e-06 0)
(0.00100032 -1.39208e-06 0)
(0.000999969 3.79556e-07 0)
(0.00100007 8.37469e-07 0)
(0.0010002 9.1653e-07 0)
(0.0010003 9.88347e-07 0)
(0.00100044 1.2139e-06 0)
(0.00100073 1.5196e-06 0)
(0.00100119 1.86397e-06 0)
(0.00100183 2.14393e-06 0)
(0.00100261 2.02697e-06 0)
(0.00100339 1.11507e-06 0)
(0.00100397 -5.00896e-07 0)
(0.00100404 -2.14782e-06 0)
(0.00100339 -2.94822e-06 0)
(0.00100218 -2.71462e-06 0)
(0.00100101 -1.91533e-06 0)
(0.00100028 -1.19738e-06 0)
(0.00100019 -8.39252e-07 0)
(0.00100026 -7.16816e-07 0)
(0.00100044 -5.12603e-07 0)
(0.00100018 -7.24154e-07 0)
(0.000999951 3.61919e-07 0)
(0.001 8.02971e-07 0)
(0.00100019 8.2977e-07 0)
(0.0010003 8.25388e-07 0)
(0.00100045 9.43002e-07 0)
(0.00100073 1.11328e-06 0)
(0.0010011 1.28411e-06 0)
(0.00100155 1.41255e-06 0)
(0.00100209 1.2803e-06 0)
(0.00100266 7.03341e-07 0)
(0.00100308 -2.17249e-07 0)
(0.00100312 -1.14015e-06 0)
(0.0010027 -1.70595e-06 0)
(0.00100191 -1.87879e-06 0)
(0.00100109 -1.81224e-06 0)
(0.00100043 -1.65741e-06 0)
(0.00100015 -1.4551e-06 0)
(0.00100005 -1.20486e-06 0)
(0.00100016 -8.33325e-07 0)
(0.00100003 -9.87813e-07 0)
(0.000999935 3.12892e-07 0)
(0.00099993 6.95353e-07 0)
(0.00100015 6.84741e-07 0)
(0.00100027 6.32153e-07 0)
(0.00100041 6.83127e-07 0)
(0.00100066 7.70221e-07 0)
(0.00100097 8.62036e-07 0)
(0.0010013 9.44302e-07 0)
(0.0010017 8.59494e-07 0)
(0.00100208 4.4157e-07 0)
(0.00100231 -2.52384e-07 0)
(0.0010023 -8.98776e-07 0)
(0.00100207 -1.24361e-06 0)
(0.00100164 -1.34287e-06 0)
(0.00100113 -1.34006e-06 0)
(0.00100061 -1.26522e-06 0)
(0.0010003 -1.07233e-06 0)
(0.00100005 -7.76787e-07 0)
(0.00100005 -3.69213e-07 0)
(0.00099988 -4.79159e-07 0)
(0.00099992 2.38508e-07 0)
(0.000999863 5.33792e-07 0)
(0.0010001 5.04061e-07 0)
(0.00100023 4.29091e-07 0)
(0.00100036 4.32744e-07 0)
(0.00100059 4.67155e-07 0)
(0.00100084 5.11827e-07 0)
(0.0010011 5.55706e-07 0)
(0.00100142 4.84425e-07 0)
(0.00100172 1.69367e-07 0)
(0.0010019 -2.95277e-07 0)
(0.00100188 -6.82109e-07 0)
(0.00100172 -8.49545e-07 0)
(0.00100144 -9.0143e-07 0)
(0.00100111 -9.48071e-07 0)
(0.0010007 -9.86465e-07 0)
(0.00100036 -9.2782e-07 0)
(0.00100001 -7.79747e-07 0)
(0.000999948 -4.90651e-07 0)
(0.000999761 -6.00781e-07 0)
(0.000999911 1.48019e-07 0)
(0.000999805 3.47808e-07 0)
(0.00100006 3.35121e-07 0)
(0.00100018 2.92914e-07 0)
(0.0010003 2.9975e-07 0)
(0.00100052 3.29253e-07 0)
(0.00100074 3.67934e-07 0)
(0.00100095 4.13335e-07 0)
(0.00100119 3.9069e-07 0)
(0.00100144 2.24086e-07 0)
(0.00100158 -3.36024e-08 0)
(0.00100154 -2.46621e-07 0)
(0.00100142 -3.25849e-07 0)
(0.00100126 -3.44411e-07 0)
(0.00100103 -3.79096e-07 0)
(0.00100067 -4.27044e-07 0)
(0.00100033 -4.00124e-07 0)
(0.000999928 -2.94489e-07 0)
(0.000999845 -7.33928e-08 0)
(0.000999651 -1.47583e-07 0)
(0.000999906 3.19475e-08 0)
(0.000999783 7.17456e-08 0)
(0.00100005 3.98863e-08 0)
(0.00100018 2.78115e-09 0)
(0.00100029 -1.58911e-08 0)
(0.00100051 -2.84252e-08 0)
(0.00100071 -3.71068e-08 0)
(0.0010009 -4.22585e-08 0)
(0.00100114 -6.27461e-08 0)
(0.00100137 -1.19894e-07 0)
(0.00100148 -2.11768e-07 0)
(0.00100144 -2.90581e-07 0)
(0.00100133 -3.19407e-07 0)
(0.00100119 -3.42167e-07 0)
(0.00100102 -3.74399e-07 0)
(0.00100069 -4.14365e-07 0)
(0.00100039 -4.06716e-07 0)
(0.000999939 -3.88145e-07 0)
(0.000999857 -2.99443e-07 0)
(0.000999547 -3.80652e-07 0)
)
;

boundaryField
{
    sides
    {
        type            slip;
    }
    inlet
    {
        type            fixedValue;
        value           uniform (0.001 0 0);
    }
    outlet
    {
        type            zeroGradient;
    }
    frontAndBack
    {
        type            empty;
    }
}


// ************************************************************************* //
