/*--------------------------------*- C++ -*----------------------------------*\
  =========                 |
  \\      /  F ield         | OpenFOAM: The Open Source CFD Toolbox
   \\    /   O peration     | Website:  https://openfoam.org
    \\  /    A nd           | Version:  9
     \\/     M anipulation  |
\*---------------------------------------------------------------------------*/
FoamFile
{
    format      ascii;
    class       volVectorField;
    location    "18";
    object      hU_0;
}
// * * * * * * * * * * * * * * * * * * * * * * * * * * * * * * * * * * * * * //

dimensions      [0 2 -1 0 0 0 0];

internalField   nonuniform List<vector> 
400
(
(0.000999856 -8.1903e-08 0)
(0.000999812 -1.66369e-07 0)
(0.0010001 -1.69807e-07 0)
(0.00100021 -1.64401e-07 0)
(0.00100035 -1.77917e-07 0)
(0.0010006 -1.9985e-07 0)
(0.00100083 -2.27e-07 0)
(0.00100104 -2.56969e-07 0)
(0.00100128 -2.55462e-07 0)
(0.00100151 -1.97818e-07 0)
(0.00100161 -1.216e-07 0)
(0.0010016 -7.72929e-08 0)
(0.00100153 -6.93613e-08 0)
(0.00100147 -7.90431e-08 0)
(0.00100135 -6.89066e-08 0)
(0.00100114 -7.44771e-08 0)
(0.00100085 -8.10251e-08 0)
(0.00100063 -1.44662e-07 0)
(0.00100055 -1.69729e-07 0)
(0.00100067 -2.65572e-07 0)
(0.000999867 -1.80952e-07 0)
(0.000999847 -3.44232e-07 0)
(0.00100013 -2.89761e-07 0)
(0.00100025 -2.215e-07 0)
(0.00100039 -2.05501e-07 0)
(0.00100064 -2.08887e-07 0)
(0.00100089 -2.27526e-07 0)
(0.00100113 -2.55634e-07 0)
(0.00100141 -2.12105e-07 0)
(0.00100166 -3.12912e-08 0)
(0.00100178 2.19498e-07 0)
(0.00100176 3.9706e-07 0)
(0.00100168 4.59484e-07 0)
(0.00100157 4.86129e-07 0)
(0.0010014 5.6518e-07 0)
(0.00100114 6.15268e-07 0)
(0.00100089 6.04635e-07 0)
(0.00100067 3.83185e-07 0)
(0.00100062 1.68364e-07 0)
(0.0010006 4.35912e-08 0)
(0.000999884 -2.83992e-07 0)
(0.000999892 -5.55726e-07 0)
(0.00100016 -5.08782e-07 0)
(0.00100027 -4.46151e-07 0)
(0.00100042 -4.63056e-07 0)
(0.00100069 -5.10484e-07 0)
(0.00100097 -5.81134e-07 0)
(0.00100124 -6.61532e-07 0)
(0.00100155 -6.17347e-07 0)
(0.00100184 -3.40614e-07 0)
(0.001002 7.38263e-08 0)
(0.00100202 3.83875e-07 0)
(0.0010019 4.90754e-07 0)
(0.0010017 5.15864e-07 0)
(0.00100142 5.84563e-07 0)
(0.00100109 5.99297e-07 0)
(0.00100074 5.39993e-07 0)
(0.00100052 2.60526e-07 0)
(0.00100048 -1.10693e-08 0)
(0.00100059 -1.44312e-07 0)
(0.000999908 -3.68812e-07 0)
(0.000999956 -7.15565e-07 0)
(0.0010002 -6.76161e-07 0)
(0.00100032 -6.23366e-07 0)
(0.00100048 -6.72782e-07 0)
(0.00100076 -7.61873e-07 0)
(0.00100108 -8.73322e-07 0)
(0.00100143 -9.82453e-07 0)
(0.00100184 -9.00419e-07 0)
(0.00100224 -4.75247e-07 0)
(0.00100248 1.93791e-07 0)
(0.00100249 7.54368e-07 0)
(0.00100228 1.03648e-06 0)
(0.00100189 1.12209e-06 0)
(0.00100143 1.14338e-06 0)
(0.00100101 1.04091e-06 0)
(0.00100078 8.43423e-07 0)
(0.00100065 4.21655e-07 0)
(0.00100065 7.03573e-08 0)
(0.00100056 -4.99594e-08 0)
(0.000999937 -4.2208e-07 0)
(0.00100002 -8.23592e-07 0)
(0.00100023 -8.20508e-07 0)
(0.00100035 -8.20853e-07 0)
(0.00100051 -9.41197e-07 0)
(0.00100081 -1.11493e-06 0)
(0.0010012 -1.31005e-06 0)
(0.00100166 -1.4697e-06 0)
(0.00100221 -1.35646e-06 0)
(0.0010028 -8.08087e-07 0)
(0.0010032 3.44855e-08 0)
(0.00100323 8.52047e-07 0)
(0.00100284 1.342e-06 0)
(0.00100211 1.49651e-06 0)
(0.00100131 1.46257e-06 0)
(0.00100072 1.27143e-06 0)
(0.00100044 1.0366e-06 0)
(0.00100042 5.86408e-07 0)
(0.00100055 2.2126e-07 0)
(0.00100059 1.19578e-07 0)
(0.000999965 -4.38685e-07 0)
(0.00100008 -8.60456e-07 0)
(0.00100024 -9.1279e-07 0)
(0.00100034 -9.8876e-07 0)
(0.0010005 -1.21456e-06 0)
(0.0010008 -1.52401e-06 0)
(0.00100128 -1.89442e-06 0)
(0.00100192 -2.21259e-06 0)
(0.00100271 -2.12195e-06 0)
(0.00100349 -1.25296e-06 0)
(0.0010041 2.5994e-07 0)
(0.0010042 1.78473e-06 0)
(0.00100357 2.49196e-06 0)
(0.00100237 2.23381e-06 0)
(0.00100121 1.483e-06 0)
(0.00100053 7.70467e-07 0)
(0.00100047 4.37852e-07 0)
(0.00100061 1.89808e-07 0)
(0.00100079 5.61515e-08 0)
(0.00100061 1.93882e-08 0)
(0.000999993 -4.07543e-07 0)
(0.00100012 -8.18066e-07 0)
(0.00100022 -9.21604e-07 0)
(0.00100027 -1.10234e-06 0)
(0.00100037 -1.44422e-06 0)
(0.00100063 -1.96161e-06 0)
(0.00100115 -2.538e-06 0)
(0.00100204 -3.23922e-06 0)
(0.0010034 -3.43228e-06 0)
(0.00100499 -2.94472e-06 0)
(0.0010061 -5.36646e-07 0)
(0.0010058 2.767e-06 0)
(0.00100398 4.89118e-06 0)
(0.00100159 4.66442e-06 0)
(0.000999997 3.05739e-06 0)
(0.00099967 1.52981e-06 0)
(0.00100025 8.55416e-07 0)
(0.00100076 5.87443e-07 0)
(0.00100103 5.48924e-07 0)
(0.00100065 4.98619e-07 0)
(0.00100001 -3.36901e-07 0)
(0.00100013 -6.74816e-07 0)
(0.00100013 -8.37371e-07 0)
(0.0010001 -1.0778e-06 0)
(0.00100007 -1.62734e-06 0)
(0.00100026 -2.36235e-06 0)
(0.00100068 -3.44754e-06 0)
(0.00100172 -4.25744e-06 0)
(0.00100328 -4.54413e-06 0)
(0.00100627 -2.62302e-06 0)
(0.00100949 8.6234e-07 0)
(0.0010097 4.41346e-06 0)
(0.00100605 4.7523e-06 0)
(0.00100118 2.7364e-06 0)
(0.000998492 7.62133e-07 0)
(0.000998535 -5.82915e-08 0)
(0.000999985 7.55518e-08 0)
(0.00100103 2.36905e-07 0)
(0.00100138 2.53089e-07 0)
(0.00100077 1.03125e-07 0)
(0.00100003 -2.12397e-07 0)
(0.00100012 -4.57394e-07 0)
(0.001 -5.58443e-07 0)
(0.000999783 -8.15892e-07 0)
(0.000999505 -1.36929e-06 0)
(0.000999402 -2.49005e-06 0)
(0.0009999 -4.71517e-06 0)
(0.00100159 -8.14819e-06 0)
(0.00100513 -1.3394e-05 0)
(0.00100987 -1.49731e-05 0)
(0.00101231 3.90299e-06 0)
(0.00100944 1.8811e-05 0)
(0.00100279 1.57653e-05 0)
(0.000998047 5.64979e-06 0)
(0.000997216 -3.37585e-07 0)
(0.000998691 -1.14397e-06 0)
(0.00100044 1.14236e-07 0)
(0.00100114 7.70981e-07 0)
(0.00100108 6.90835e-07 0)
(0.0010004 2.57456e-07 0)
(0.000999849 -8.59596e-08 0)
(0.00100039 -1.66827e-07 0)
(0.000999469 -2.17281e-07 0)
(0.00100016 -2.75845e-07 0)
(0.000997743 -5.90939e-07 0)
(0.000999043 -1.11237e-06 0)
(0.00099355 -2.86932e-06 0)
(0.000997729 -5.58508e-06 0)
(0.000991883 -1.15421e-05 0)
(0.000916109 -1.27156e-05 0)
(0.000951855 2.68344e-07 0)
(0.00101079 1.46577e-05 0)
(0.000991532 1.30609e-05 0)
(0.000984433 5.05644e-06 0)
(0.00098987 1.50842e-07 0)
(0.000996457 -7.40232e-07 0)
(0.000999407 -2.69638e-08 0)
(0.000999553 3.15931e-07 0)
(0.000998632 2.55247e-07 0)
(0.00099834 -1.33037e-07 0)
(0.000999851 5.34473e-08 0)
(0.00100039 1.06932e-07 0)
(0.000999465 1.59515e-07 0)
(0.00100016 2.28811e-07 0)
(0.00099774 5.625e-07 0)
(0.00099904 1.0967e-06 0)
(0.000993544 2.85019e-06 0)
(0.000997718 5.54922e-06 0)
(0.000991862 1.1456e-05 0)
(0.000916079 1.25905e-05 0)
(0.000951806 -4.85594e-07 0)
(0.00101076 -1.498e-05 0)
(0.000991538 -1.34856e-05 0)
(0.000984436 -5.57298e-06 0)
(0.000989855 -7.06939e-07 0)
(0.000996423 1.7427e-07 0)
(0.000999367 -5.06747e-07 0)
(0.000999505 -9.6705e-07 0)
(0.000998608 -8.72183e-07 0)
(0.000998292 -8.2624e-07 0)
(0.00100003 1.84806e-07 0)
(0.00100011 4.03043e-07 0)
(0.000999991 5.03169e-07 0)
(0.000999771 7.72086e-07 0)
(0.000999493 1.34229e-06 0)
(0.000999393 2.47109e-06 0)
(0.000999887 4.6907e-06 0)
(0.00100159 8.09767e-06 0)
(0.00100512 1.33035e-05 0)
(0.00100987 1.48131e-05 0)
(0.00101233 -4.11861e-06 0)
(0.00100945 -1.91398e-05 0)
(0.00100271 -1.61848e-05 0)
(0.000997944 -6.14889e-06 0)
(0.000997149 -1.53307e-07 0)
(0.000998615 6.15753e-07 0)
(0.00100031 -5.86235e-07 0)
(0.001001 -1.35935e-06 0)
(0.0010009 -1.25575e-06 0)
(0.00100023 -1.16863e-06 0)
(0.00100002 3.14756e-07 0)
(0.00100013 6.29663e-07 0)
(0.00100011 7.88442e-07 0)
(0.00100008 1.0395e-06 0)
(0.00100005 1.60142e-06 0)
(0.00100024 2.34278e-06 0)
(0.00100066 3.41574e-06 0)
(0.00100168 4.19987e-06 0)
(0.00100323 4.44492e-06 0)
(0.0010062 2.46854e-06 0)
(0.00100939 -1.07915e-06 0)
(0.00100959 -4.74193e-06 0)
(0.00100599 -5.15456e-06 0)
(0.00100113 -3.18324e-06 0)
(0.000998391 -1.24146e-06 0)
(0.000998373 -4.95937e-07 0)
(0.000999794 -6.03747e-07 0)
(0.00100078 -8.58245e-07 0)
(0.00100112 -8.15865e-07 0)
(0.00100048 -9.66432e-07 0)
(0.000999999 3.90396e-07 0)
(0.00100011 7.83235e-07 0)
(0.00100019 8.82849e-07 0)
(0.00100024 1.07e-06 0)
(0.00100034 1.42183e-06 0)
(0.0010006 1.94048e-06 0)
(0.00100112 2.50867e-06 0)
(0.001002 3.18608e-06 0)
(0.00100336 3.35535e-06 0)
(0.00100496 2.82307e-06 0)
(0.00100607 3.65748e-07 0)
(0.00100574 -3.01054e-06 0)
(0.00100388 -5.23351e-06 0)
(0.00100143 -5.11152e-06 0)
(0.00099978 -3.57561e-06 0)
(0.000999401 -2.08378e-06 0)
(0.000999977 -1.38185e-06 0)
(0.00100045 -1.21838e-06 0)
(0.00100071 -1.13606e-06 0)
(0.00100024 -1.39467e-06 0)
(0.000999971 4.26995e-07 0)
(0.00100007 8.34733e-07 0)
(0.00100021 8.82384e-07 0)
(0.00100031 9.62864e-07 0)
(0.00100046 1.1985e-06 0)
(0.00100076 1.50877e-06 0)
(0.00100124 1.86817e-06 0)
(0.00100188 2.16287e-06 0)
(0.00100265 2.03596e-06 0)
(0.00100343 1.10895e-06 0)
(0.001004 -4.87537e-07 0)
(0.00100406 -2.08711e-06 0)
(0.0010034 -2.86694e-06 0)
(0.00100217 -2.67089e-06 0)
(0.00100097 -1.92063e-06 0)
(0.00100023 -1.21322e-06 0)
(0.00100012 -8.23403e-07 0)
(0.00100019 -6.52741e-07 0)
(0.00100036 -4.64788e-07 0)
(0.0010001 -7.2852e-07 0)
(0.000999942 4.16847e-07 0)
(0.00100001 8.08725e-07 0)
(0.0010002 8.01539e-07 0)
(0.00100031 8.05377e-07 0)
(0.00100047 9.31924e-07 0)
(0.00100077 1.10606e-06 0)
(0.00100115 1.29111e-06 0)
(0.0010016 1.43188e-06 0)
(0.00100215 1.28916e-06 0)
(0.00100272 6.95153e-07 0)
(0.00100312 -2.15181e-07 0)
(0.00100314 -1.09322e-06 0)
(0.0010027 -1.6413e-06 0)
(0.0010019 -1.84873e-06 0)
(0.00100105 -1.83195e-06 0)
(0.00100038 -1.69029e-06 0)
(0.00100009 -1.45441e-06 0)
(0.000999987 -1.15169e-06 0)
(0.00100009 -7.9353e-07 0)
(0.000999958 -9.95538e-07 0)
(0.000999915 3.69697e-07 0)
(0.000999947 7.10449e-07 0)
(0.00100016 6.67029e-07 0)
(0.00100027 6.21397e-07 0)
(0.00100043 6.78742e-07 0)
(0.0010007 7.66578e-07 0)
(0.00100102 8.69832e-07 0)
(0.00100137 9.63138e-07 0)
(0.00100177 8.66003e-07 0)
(0.00100214 4.2699e-07 0)
(0.00100235 -2.57462e-07 0)
(0.00100232 -8.67165e-07 0)
(0.00100207 -1.19153e-06 0)
(0.00100163 -1.32377e-06 0)
(0.0010011 -1.36989e-06 0)
(0.00100056 -1.30727e-06 0)
(0.00100025 -1.08323e-06 0)
(0.000999998 -7.39934e-07 0)
(0.000999998 -3.41348e-07 0)
(0.000999817 -4.88764e-07 0)
(0.000999891 2.90188e-07 0)
(0.000999886 5.52464e-07 0)
(0.00100012 4.95099e-07 0)
(0.00100023 4.24391e-07 0)
(0.00100037 4.32549e-07 0)
(0.00100063 4.66876e-07 0)
(0.0010009 5.19648e-07 0)
(0.00100118 5.71933e-07 0)
(0.0010015 4.87884e-07 0)
(0.00100179 1.52927e-07 0)
(0.00100194 -3.04634e-07 0)
(0.0010019 -6.63879e-07 0)
(0.00100172 -8.16014e-07 0)
(0.00100143 -8.9363e-07 0)
(0.00100109 -9.78712e-07 0)
(0.00100066 -1.02932e-06 0)
(0.00100031 -9.48848e-07 0)
(0.000999959 -7.63415e-07 0)
(0.000999907 -4.76184e-07 0)
(0.000999711 -6.09767e-07 0)
(0.000999873 1.84589e-07 0)
(0.000999833 3.62853e-07 0)
(0.00100008 3.31155e-07 0)
(0.00100017 2.92282e-07 0)
(0.00100031 3.01947e-07 0)
(0.00100056 3.29662e-07 0)
(0.0010008 3.73286e-07 0)
(0.00100103 4.23842e-07 0)
(0.00100128 3.93954e-07 0)
(0.00100151 2.14129e-07 0)
(0.00100161 -4.46577e-08 0)
(0.00100155 -2.38708e-07 0)
(0.00100143 -3.0809e-07 0)
(0.00100125 -3.4181e-07 0)
(0.00100101 -4.01412e-07 0)
(0.00100062 -4.5831e-07 0)
(0.00100028 -4.16873e-07 0)
(0.000999885 -2.86132e-07 0)
(0.000999817 -6.62725e-08 0)
(0.000999614 -1.5492e-07 0)
(0.000999865 4.48783e-08 0)
(0.000999811 7.81274e-08 0)
(0.00100008 3.93236e-08 0)
(0.00100017 4.19013e-09 0)
(0.0010003 -1.36726e-08 0)
(0.00100054 -2.84219e-08 0)
(0.00100077 -3.58017e-08 0)
(0.00100098 -3.89426e-08 0)
(0.00100123 -6.04826e-08 0)
(0.00100144 -1.21536e-07 0)
(0.00100152 -2.13404e-07 0)
(0.00100145 -2.84968e-07 0)
(0.00100133 -3.11673e-07 0)
(0.00100118 -3.41623e-07 0)
(0.001001 -3.82938e-07 0)
(0.00100065 -4.24934e-07 0)
(0.00100034 -4.11471e-07 0)
(0.000999898 -3.84091e-07 0)
(0.000999833 -2.96461e-07 0)
(0.000999517 -3.83198e-07 0)
)
;

boundaryField
{
    sides
    {
        type            slip;
    }
    inlet
    {
        type            fixedValue;
        value           uniform (0.001 0 0);
    }
    outlet
    {
        type            zeroGradient;
    }
    frontAndBack
    {
        type            empty;
    }
}


// ************************************************************************* //
