/*--------------------------------*- C++ -*----------------------------------*\
  =========                 |
  \\      /  F ield         | OpenFOAM: The Open Source CFD Toolbox
   \\    /   O peration     | Website:  https://openfoam.org
    \\  /    A nd           | Version:  9
     \\/     M anipulation  |
\*---------------------------------------------------------------------------*/
FoamFile
{
    format      ascii;
    class       surfaceScalarField;
    location    "18";
    object      phi;
}
// * * * * * * * * * * * * * * * * * * * * * * * * * * * * * * * * * * * * * //

dimensions      [0 4 -1 0 0 0 0];

internalField   nonuniform List<scalar> 
760
(
4.9993e-06
-4.80672e-10
4.99962e-06
-1.11298e-09
5.00042e-06
-1.04024e-09
5.00145e-06
-8.51887e-10
5.0025e-06
-8.32911e-10
5.00346e-06
-8.83972e-10
5.0044e-06
-9.68854e-10
5.00547e-06
-1.07651e-09
5.00662e-06
-9.98173e-10
5.00755e-06
-5.21397e-10
5.0079e-06
2.75533e-10
5.0077e-06
9.17587e-10
5.00733e-06
1.13263e-09
5.00689e-06
1.12895e-09
5.00614e-06
1.28357e-09
5.00509e-06
1.37227e-09
5.00384e-06
1.38459e-09
5.00319e-06
7.28343e-10
5.00321e-06
3.18363e-11
-5.11719e-10
4.99948e-06
-9.80711e-10
4.99984e-06
-2.22792e-09
5.00063e-06
-2.0703e-09
5.00165e-06
-1.75651e-09
5.00271e-06
-1.75072e-09
5.00373e-06
-1.89645e-09
5.0048e-06
-2.10495e-09
5.00605e-06
-2.37191e-09
5.00739e-06
-2.2337e-09
5.00837e-06
-1.12028e-09
5.00871e-06
5.89665e-10
5.00845e-06
1.8866e-09
5.0079e-06
2.40438e-09
5.00719e-06
2.48005e-09
5.00626e-06
2.67063e-09
5.00523e-06
2.6722e-09
5.00423e-06
2.47278e-09
5.00359e-06
1.39835e-09
5.00338e-06
3.44663e-10
-3.35069e-10
4.99964e-06
-1.39919e-09
5.00001e-06
-3.11503e-09
5.00078e-06
-3.04297e-09
5.00176e-06
-2.70144e-09
5.00286e-06
-2.8091e-09
5.00402e-06
-3.12215e-09
5.0053e-06
-3.50212e-09
5.00677e-06
-3.91595e-09
5.00827e-06
-3.63909e-09
5.00947e-06
-2.00309e-09
5.00997e-06
6.41993e-10
5.00962e-06
2.94735e-09
5.00868e-06
3.96724e-09
5.00745e-06
4.18916e-09
5.00607e-06
4.34686e-09
5.00471e-06
4.12883e-09
5.00353e-06
3.6649e-09
5.00295e-06
2.059e-09
5.00308e-06
3.03794e-10
-4.58235e-10
4.99991e-06
-1.75356e-09
5.00031e-06
-3.84596e-09
5.00102e-06
-3.90522e-09
5.00197e-06
-3.70636e-09
5.0031e-06
-4.03941e-09
5.00445e-06
-4.63374e-09
5.00609e-06
-5.33303e-09
5.00812e-06
-6.03259e-09
5.0103e-06
-5.72651e-09
5.01192e-06
-3.30505e-09
5.01242e-06
5.42592e-10
5.01161e-06
4.27329e-09
5.00967e-06
6.35727e-09
5.00748e-06
6.6625e-09
5.00589e-06
6.06922e-09
5.00491e-06
5.08828e-09
5.00439e-06
4.12139e-09
5.00395e-06
2.3365e-09
5.00352e-06
7.51741e-10
1.2349e-10
5.0002e-06
-1.96552e-09
5.00056e-06
-4.29148e-09
5.00116e-06
-4.57954e-09
5.00203e-06
-4.68747e-09
5.00324e-06
-5.42948e-09
5.00486e-06
-6.51201e-09
5.00701e-06
-7.70391e-09
5.00971e-06
-8.79103e-09
5.01297e-06
-8.87208e-09
5.01581e-06
-5.80625e-09
5.01634e-06
5.43983e-10
5.01472e-06
6.359e-09
5.01084e-06
1.05812e-08
5.00695e-06
1.0642e-08
5.00457e-06
8.36524e-09
5.0038e-06
5.66235e-09
5.00366e-06
4.0791e-09
5.00355e-06
2.34738e-09
5.00323e-06
9.32145e-10
3.91085e-10
5.00043e-06
-1.9891e-09
5.00074e-06
-4.3459e-09
5.00113e-06
-4.89503e-09
5.0018e-06
-5.44277e-09
5.00293e-06
-6.75368e-09
5.00491e-06
-8.76312e-09
5.00796e-06
-1.09185e-08
5.01213e-06
-1.29593e-08
5.01628e-06
-1.27389e-08
5.02023e-06
-9.37916e-09
5.02198e-06
-7.64965e-10
5.01825e-06
1.03472e-08
5.0119e-06
1.70525e-08
5.00647e-06
1.59792e-08
5.00421e-06
1.038e-08
5.00435e-06
5.23264e-09
5.0049e-06
3.2042e-09
5.00474e-06
2.26603e-09
5.00376e-06
1.77959e-09
1.29345e-09
5.00061e-06
-1.79715e-09
5.00075e-06
-3.94346e-09
5.00086e-06
-4.76273e-09
5.00113e-06
-5.71633e-09
5.00186e-06
-7.65546e-09
5.00343e-06
-1.05262e-08
5.0073e-06
-1.4846e-08
5.01454e-06
-2.00207e-08
5.0247e-06
-2.24896e-08
5.03233e-06
-1.66091e-08
5.0307e-06
1.45808e-09
5.01912e-06
2.21623e-08
5.00665e-06
2.9398e-08
5.00097e-06
2.13551e-08
5.00244e-06
8.52563e-09
5.00445e-06
2.75345e-09
5.00524e-06
1.96149e-09
5.00475e-06
2.26561e-09
5.0037e-06
2.4818e-09
1.64164e-09
5.00068e-06
-1.3524e-09
5.00058e-06
-3.03773e-09
5.00015e-06
-3.91436e-09
4.99977e-06
-5.24693e-09
5.00006e-06
-8.03064e-09
5.00097e-06
-1.15122e-08
5.0043e-06
-1.80696e-08
5.01064e-06
-2.60033e-08
5.02593e-06
-3.72954e-08
5.0577e-06
-4.77132e-08
5.0524e-06
6.50895e-09
5.02596e-06
4.87469e-08
5.00078e-06
5.42965e-08
4.99565e-06
2.59744e-08
5.00121e-06
2.39219e-09
5.00556e-06
-2.18643e-09
5.00599e-06
8.19835e-10
5.0046e-06
3.02762e-09
5.00382e-06
2.73987e-09
1.03285e-09
5.00071e-06
-7.02692e-10
5.00033e-06
-1.66579e-09
4.99908e-06
-2.10946e-09
4.99714e-06
-3.12595e-09
4.99485e-06
-5.74915e-09
4.99442e-06
-1.10606e-08
5.00016e-06
-2.35829e-08
5.01801e-06
-4.33793e-08
5.05696e-06
-7.55026e-08
5.06859e-06
-5.87932e-08
5.05209e-06
2.39958e-08
4.99925e-06
1.01429e-07
4.99198e-06
6.11218e-08
4.99803e-06
1.92929e-08
5.00191e-06
-2.19582e-09
5.00421e-06
-5.20834e-09
5.00359e-06
6.41654e-10
5.00258e-06
3.20126e-09
5.00259e-06
2.07116e-09
2.32726e-10
5.00085e-06
-9.03811e-11
5.00045e-06
-1.69938e-10
4.99912e-06
-1.66691e-10
4.99635e-06
-1.38337e-10
4.99074e-06
-8.90581e-11
4.97982e-06
-5.07293e-11
4.95657e-06
-6.03455e-11
4.91386e-06
-1.2679e-10
4.83937e-06
-2.60952e-10
4.78182e-06
-3.8369e-10
4.8067e-06
-6.27204e-10
4.90888e-06
-8.66864e-10
4.97048e-06
-9.5388e-10
4.99026e-06
-1.19379e-09
4.98881e-06
-1.49587e-09
4.98442e-06
-1.59034e-09
4.98567e-06
-1.46523e-09
4.98959e-06
-1.63638e-09
4.99238e-06
-1.4433e-09
-2.29353e-09
5.00085e-06
5.43554e-10
5.00044e-06
1.34369e-09
4.9991e-06
1.77889e-09
4.99634e-06
2.85442e-09
4.99073e-06
5.5767e-09
4.97981e-06
1.09489e-08
4.95652e-06
2.34507e-08
4.91379e-06
4.31453e-08
4.83923e-06
7.5052e-08
4.78151e-06
5.81775e-08
4.80664e-06
-2.53799e-08
4.90888e-06
-1.03158e-07
4.97051e-06
-6.31092e-08
4.9901e-06
-2.1488e-08
4.98874e-06
-8.39466e-10
4.98413e-06
2.30825e-09
4.98555e-06
-3.735e-09
4.98951e-06
-6.50744e-09
4.99223e-06
-4.89154e-09
-4.61029e-09
5.0007e-06
1.21275e-09
5.0003e-06
2.75241e-09
4.99904e-06
3.59704e-09
4.99709e-06
4.98426e-09
4.99481e-06
7.84553e-09
4.99437e-06
1.13627e-08
5.00009e-06
1.7886e-08
5.01795e-06
2.57268e-08
5.05691e-06
3.68324e-08
5.06884e-06
4.683e-08
5.05199e-06
-6.92632e-09
4.99892e-06
-5.0151e-08
4.99149e-06
-5.61723e-08
4.99781e-06
-2.84497e-08
5.00177e-06
-5.45786e-09
5.00351e-06
-9.51842e-11
5.00275e-06
-3.73347e-09
5.00167e-06
-6.24832e-09
5.00175e-06
-5.6288e-09
-5.46493e-09
5.00066e-06
1.69062e-09
5.00053e-06
3.70213e-09
5.00009e-06
4.48372e-09
4.99971e-06
5.46465e-09
4.99998e-06
7.45189e-09
5.00086e-06
1.03555e-08
5.00412e-06
1.46859e-08
5.0104e-06
1.97597e-08
5.02565e-06
2.20965e-08
5.05724e-06
1.59108e-08
5.05203e-06
-2.53734e-09
5.02558e-06
-2.3672e-08
5.00052e-06
-3.14178e-08
4.99534e-06
-2.37897e-08
5.00028e-06
-1.09869e-08
5.00485e-06
-5.27465e-09
5.00482e-06
-4.3613e-09
5.00319e-06
-5.28116e-09
5.00247e-06
-5.42877e-09
-5.98628e-09
5.00057e-06
1.91291e-09
5.00068e-06
4.1653e-09
5.00077e-06
4.66317e-09
5.00102e-06
5.21712e-09
5.00171e-06
6.57874e-09
5.00325e-06
8.61224e-09
5.00712e-06
1.07338e-08
5.01439e-06
1.2651e-08
5.02455e-06
1.23009e-08
5.0322e-06
8.70162e-09
5.03052e-06
-3.32918e-10
5.01874e-06
-1.16925e-08
5.006e-06
-1.87911e-08
4.99999e-06
-1.81266e-08
5.00125e-06
-1.27034e-08
5.00318e-06
-7.70444e-09
5.00379e-06
-5.49822e-09
5.00319e-06
-5.16787e-09
5.00185e-06
-4.44107e-09
-5.35949e-09
5.00038e-06
1.91843e-09
5.00064e-06
4.1722e-09
5.001e-06
4.41332e-09
5.00165e-06
4.52771e-09
5.00275e-06
5.30175e-09
5.00472e-06
6.38243e-09
5.00773e-06
7.53496e-09
5.01189e-06
8.54291e-09
5.01594e-06
8.48523e-09
5.0199e-06
5.16e-09
5.02134e-06
-1.36885e-09
5.0175e-06
-7.55168e-09
5.01097e-06
-1.21397e-08
5.00537e-06
-1.26398e-08
5.00288e-06
-1.04737e-08
5.00277e-06
-7.92714e-09
5.00303e-06
-6.13149e-09
5.00251e-06
-4.95567e-09
5.00133e-06
-3.46262e-09
-4.353e-09
5.00014e-06
1.73809e-09
5.00044e-06
3.80334e-09
5.001e-06
3.8203e-09
5.00184e-06
3.61629e-09
5.00301e-06
3.97571e-09
5.00459e-06
4.57432e-09
5.00671e-06
5.22969e-09
5.0094e-06
5.8335e-09
5.01267e-06
5.37365e-09
5.01545e-06
2.72578e-09
5.01586e-06
-1.29804e-09
5.01413e-06
-5.33719e-09
5.00998e-06
-7.67548e-09
5.0058e-06
-8.32444e-09
5.00315e-06
-7.86947e-09
5.00208e-06
-7.02954e-09
5.00169e-06
-5.96378e-09
5.00123e-06
-4.65187e-09
5.0005e-06
-2.81791e-09
-3.59046e-09
4.99987e-06
1.41723e-09
5.00017e-06
3.11053e-09
5.00081e-06
2.98871e-09
5.00171e-06
2.65206e-09
5.00283e-06
2.76489e-09
5.00416e-06
3.06882e-09
5.00581e-06
3.44075e-09
5.00779e-06
3.7926e-09
5.00983e-06
3.46449e-09
5.01126e-06
1.68414e-09
5.01173e-06
-1.21399e-09
5.01074e-06
-3.6952e-09
5.00858e-06
-4.98914e-09
5.00601e-06
-5.42978e-09
5.00389e-06
-5.60348e-09
5.00244e-06
-5.59233e-09
5.00143e-06
-5.02255e-09
5.00065e-06
-3.90878e-09
5.00001e-06
-2.15758e-09
-2.70803e-09
4.9996e-06
9.74822e-10
4.99991e-06
2.1603e-09
5.00059e-06
2.02248e-09
5.00152e-06
1.71136e-09
5.00257e-06
1.71515e-09
5.00371e-06
1.85903e-09
5.00498e-06
2.05078e-09
5.00649e-06
2.26017e-09
5.00807e-06
2.02046e-09
5.00922e-06
8.78788e-10
5.0095e-06
-8.92757e-10
5.00888e-06
-2.4122e-09
5.00758e-06
-3.05442e-09
5.00594e-06
-3.29339e-09
5.00423e-06
-3.56476e-09
5.00258e-06
-3.80353e-09
5.00113e-06
-3.53659e-09
5.00007e-06
-2.82001e-09
4.99946e-06
-1.48372e-09
-1.92022e-09
4.99936e-06
5.1434e-10
4.99963e-06
1.14824e-09
5.00032e-06
1.03663e-09
5.00126e-06
8.39339e-10
5.00228e-06
8.13038e-10
5.0033e-06
8.7076e-10
5.00433e-06
9.65666e-10
5.00548e-06
1.08604e-09
5.00666e-06
9.76581e-10
5.0076e-06
3.53206e-10
5.00783e-06
-5.01325e-10
5.00736e-06
-1.19411e-09
5.00651e-06
-1.45538e-09
5.00543e-06
-1.55515e-09
5.00403e-06
-1.70316e-09
5.00237e-06
-1.89629e-09
5.00073e-06
-1.80688e-09
4.9995e-06
-1.51789e-09
4.99889e-06
-8.0588e-10
-1.231e-09
4.9993e-06
4.99957e-06
5.00029e-06
5.00123e-06
5.00225e-06
5.00321e-06
5.00415e-06
5.0052e-06
5.00633e-06
5.00712e-06
5.00729e-06
5.00686e-06
5.00616e-06
5.00531e-06
5.00416e-06
5.00258e-06
5.00091e-06
4.99947e-06
4.99874e-06
)
;

boundaryField
{
    sides
    {
        type            calculated;
        value           uniform 0;
    }
    inlet
    {
        type            calculated;
        value           nonuniform List<scalar> 
20
(
-5e-06
-5e-06
-5e-06
-5e-06
-5e-06
-5e-06
-5e-06
-5e-06
-5e-06
-5e-06
-5e-06
-5e-06
-5e-06
-5e-06
-5e-06
-5e-06
-5e-06
-5e-06
-5e-06
-5e-06
)
;
    }
    outlet
    {
        type            calculated;
        value           nonuniform List<scalar> 
20
(
5.00375e-06
5.00324e-06
5.00324e-06
5.00296e-06
5.00293e-06
5.00281e-06
5.00322e-06
5.00422e-06
5.00314e-06
4.99464e-06
4.99427e-06
5.00236e-06
5.00279e-06
5.00109e-06
5.00024e-06
4.99972e-06
4.99914e-06
4.99871e-06
4.99824e-06
4.99755e-06
)
;
    }
    frontAndBack
    {
        type            empty;
        value           nonuniform List<scalar> 0();
    }
}


// ************************************************************************* //
