/*--------------------------------*- C++ -*----------------------------------*\
  =========                 |
  \\      /  F ield         | OpenFOAM: The Open Source CFD Toolbox
   \\    /   O peration     | Website:  https://openfoam.org
    \\  /    A nd           | Version:  9
     \\/     M anipulation  |
\*---------------------------------------------------------------------------*/
FoamFile
{
    format      ascii;
    class       surfaceScalarField;
    location    "18";
    object      phi_0;
}
// * * * * * * * * * * * * * * * * * * * * * * * * * * * * * * * * * * * * * //

dimensions      [0 4 -1 0 0 0 0];

internalField   nonuniform List<scalar> 
760
(
4.99948e-06
-6.06972e-10
4.99974e-06
-1.17322e-09
5.00038e-06
-1.02758e-09
5.00142e-06
-8.26389e-10
5.00261e-06
-8.17295e-10
5.00374e-06
-8.78261e-10
5.00481e-06
-9.82061e-10
5.00594e-06
-1.11089e-09
5.00703e-06
-9.96838e-10
5.0078e-06
-4.73975e-10
5.00802e-06
2.9574e-10
5.00775e-06
8.63966e-10
5.00733e-06
1.05804e-09
5.00682e-06
1.13038e-09
5.00599e-06
1.39464e-09
5.00489e-06
1.52758e-09
5.00364e-06
1.48843e-09
5.00303e-06
7.35788e-10
5.00307e-06
1.51076e-11
-4.91437e-10
4.99965e-06
-1.18735e-09
4.99994e-06
-2.30566e-09
5.0006e-06
-2.02976e-09
5.00162e-06
-1.71408e-09
5.00281e-06
-1.7197e-09
5.004e-06
-1.8659e-09
5.00519e-06
-2.1199e-09
5.00651e-06
-2.42283e-09
5.00781e-06
-2.24883e-09
5.00864e-06
-1.07891e-09
5.00884e-06
6.57718e-10
5.00851e-06
1.84906e-09
5.00791e-06
2.30022e-09
5.00713e-06
2.48089e-09
5.00612e-06
2.84266e-09
5.00503e-06
2.9111e-09
5.00403e-06
2.64273e-09
5.0034e-06
1.36704e-09
5.00317e-06
3.1056e-10
-3.11708e-10
4.99977e-06
-1.67729e-09
5.00009e-06
-3.19006e-09
5.00077e-06
-2.952e-09
5.00176e-06
-2.6212e-09
5.00298e-06
-2.74864e-09
5.00427e-06
-3.06769e-09
5.00567e-06
-3.50822e-09
5.00718e-06
-3.9805e-09
5.00865e-06
-3.66219e-09
5.00974e-06
-1.93922e-09
5.01012e-06
6.59657e-10
5.00968e-06
2.80918e-09
5.00867e-06
3.75261e-09
5.00738e-06
4.13761e-09
5.0059e-06
4.54626e-09
5.00448e-06
4.41226e-09
5.00326e-06
3.78459e-09
5.00271e-06
1.96182e-09
5.00286e-06
1.77984e-10
-4.30616e-10
5.00001e-06
-2.03129e-09
5.00037e-06
-3.90398e-09
5.00103e-06
-3.77502e-09
5.002e-06
-3.59185e-09
5.00323e-06
-3.95121e-09
5.00468e-06
-4.55743e-09
5.00641e-06
-5.329e-09
5.00847e-06
-6.10966e-09
5.01063e-06
-5.74822e-09
5.01217e-06
-3.22288e-09
5.01256e-06
5.80439e-10
5.01168e-06
4.08491e-09
5.00967e-06
6.07355e-09
5.00741e-06
6.56211e-09
5.00574e-06
6.2191e-09
5.0047e-06
5.32987e-09
5.00412e-06
4.22609e-09
5.00363e-06
2.1913e-09
5.00317e-06
6.31343e-10
1.37569e-10
5.00024e-06
-2.21947e-09
5.00061e-06
-4.28462e-09
5.0012e-06
-4.38948e-09
5.0021e-06
-4.52203e-09
5.00338e-06
-5.30078e-09
5.00507e-06
-6.40876e-09
5.00727e-06
-7.69205e-09
5.01e-06
-8.86359e-09
5.01326e-06
-8.89528e-09
5.01608e-06
-5.80296e-09
5.01647e-06
5.04922e-10
5.01478e-06
6.08032e-09
5.01084e-06
1.01878e-08
5.00686e-06
1.04591e-08
5.00439e-06
8.47069e-09
5.00354e-06
5.84959e-09
5.00333e-06
4.07806e-09
5.00319e-06
2.06714e-09
5.00287e-06
7.27394e-10
4.01902e-10
5.00043e-06
-2.19916e-09
5.00077e-06
-4.28609e-09
5.0012e-06
-4.66426e-09
5.00193e-06
-5.23755e-09
5.00309e-06
-6.60096e-09
5.00512e-06
-8.64045e-09
5.00818e-06
-1.08876e-08
5.01236e-06
-1.30141e-08
5.01647e-06
-1.27929e-08
5.02043e-06
-9.35242e-09
5.02212e-06
-8.86915e-10
5.01834e-06
1.00742e-08
5.01191e-06
1.66458e-08
5.00637e-06
1.57399e-08
5.00402e-06
1.03908e-08
5.00409e-06
5.31543e-09
5.00458e-06
3.13972e-09
5.00438e-06
1.94892e-09
5.00333e-06
1.52549e-09
1.2669e-09
5.00058e-06
-1.93544e-09
5.00077e-06
-3.84605e-09
5.00096e-06
-4.52255e-09
5.00129e-06
-5.49776e-09
5.00205e-06
-7.48676e-09
5.00363e-06
-1.03959e-08
5.00749e-06
-1.48012e-08
5.0147e-06
-2.00735e-08
5.02483e-06
-2.25345e-08
5.03244e-06
-1.65868e-08
5.03085e-06
1.27539e-09
5.01917e-06
2.18195e-08
5.00666e-06
2.89914e-08
5.00088e-06
2.11092e-08
5.00223e-06
8.4944e-09
5.00417e-06
2.77862e-09
5.00489e-06
1.82994e-09
5.00437e-06
1.98159e-09
5.00327e-06
2.24618e-09
1.60832e-09
5.00062e-06
-1.44353e-09
5.0006e-06
-2.94521e-09
5.00029e-06
-3.71364e-09
4.99997e-06
-5.06035e-09
5.00028e-06
-7.87993e-09
5.00117e-06
-1.13983e-08
5.00444e-06
-1.80302e-08
5.0107e-06
-2.60257e-08
5.02602e-06
-3.73357e-08
5.05769e-06
-4.78643e-08
5.05253e-06
6.74321e-09
5.02603e-06
4.84695e-08
5.00072e-06
5.39279e-08
4.99548e-06
2.57533e-08
5.00094e-06
2.34528e-09
5.00521e-06
-2.16482e-09
5.00571e-06
7.16395e-10
5.00425e-06
2.79161e-09
5.00339e-06
2.56701e-09
9.98793e-10
5.00063e-06
-7.52775e-10
5.00036e-06
-1.60849e-09
4.99925e-06
-1.99383e-09
4.99737e-06
-3.01449e-09
4.99508e-06
-5.65668e-09
4.99462e-06
-1.09957e-08
5.00028e-06
-2.35607e-08
5.01804e-06
-4.33835e-08
5.05687e-06
-7.55076e-08
5.06868e-06
-5.87793e-08
5.05216e-06
2.39102e-08
4.99938e-06
1.01242e-07
4.992e-06
6.09433e-08
4.99786e-06
1.91888e-08
5.00162e-06
-2.1927e-09
5.00389e-06
-5.18201e-09
5.00328e-06
5.75983e-10
5.00222e-06
3.06391e-09
5.00217e-06
1.98393e-09
2.1583e-10
5.00076e-06
-8.70045e-11
5.00047e-06
-1.54134e-10
4.99929e-06
-1.48062e-10
4.99659e-06
-1.19473e-10
4.99098e-06
-7.33221e-11
4.98002e-06
-4.09255e-11
4.95668e-06
-5.02222e-11
4.91387e-06
-1.04617e-10
4.83932e-06
-2.62688e-10
4.78181e-06
-3.74202e-10
4.80675e-06
-6.40035e-10
4.90901e-06
-8.65846e-10
4.97046e-06
-9.63093e-10
4.99007e-06
-1.188e-09
4.98853e-06
-1.45703e-09
4.98412e-06
-1.53841e-09
4.98535e-06
-1.43584e-09
4.98922e-06
-1.6172e-09
4.99198e-06
-1.44031e-09
-2.31757e-09
5.00076e-06
5.99247e-10
5.00046e-06
1.31877e-09
4.99928e-06
1.71055e-09
4.99658e-06
2.78802e-09
4.99097e-06
5.52316e-09
4.98e-06
1.09173e-08
4.95664e-06
2.34559e-08
4.91379e-06
4.31687e-08
4.83919e-06
7.5078e-08
4.78147e-06
5.8168e-08
4.80673e-06
-2.54159e-08
4.909e-06
-1.03015e-07
4.97049e-06
-6.29581e-08
4.98992e-06
-2.13704e-08
4.98846e-06
-7.80607e-10
4.98381e-06
2.37783e-09
4.98522e-06
-3.59069e-09
4.98914e-06
-6.32358e-09
4.99184e-06
-4.79428e-09
-4.62712e-09
5.00061e-06
1.31778e-09
5.00031e-06
2.69837e-09
4.99919e-06
3.45037e-09
4.99731e-06
4.8578e-09
4.99504e-06
7.75438e-09
4.99458e-06
1.12992e-08
5.00023e-06
1.78794e-08
5.01798e-06
2.57549e-08
5.05685e-06
3.68685e-08
5.06893e-06
4.68895e-08
5.05214e-06
-7.72162e-09
4.99901e-06
-4.9939e-08
4.9915e-06
-5.58501e-08
4.99764e-06
-2.823e-08
5.00147e-06
-5.38506e-09
5.00318e-06
-4.43723e-11
5.00243e-06
-3.54964e-09
5.00132e-06
-5.95003e-09
5.00135e-06
-5.43382e-09
-5.47494e-09
5.00058e-06
1.84154e-09
5.00053e-06
3.64589e-09
5.00021e-06
4.3014e-09
4.99989e-06
5.31865e-09
5.0002e-06
7.35674e-09
5.00107e-06
1.02793e-08
5.00427e-06
1.46772e-08
5.01047e-06
1.98232e-08
5.02569e-06
2.21442e-08
5.05719e-06
1.59095e-08
5.05209e-06
-2.44051e-09
5.02567e-06
-2.33707e-08
5.00048e-06
-3.10285e-08
4.99516e-06
-2.35417e-08
5e-06
-1.0933e-08
5.00452e-06
-5.24635e-09
5.0045e-06
-4.19228e-09
5.00284e-06
-4.9214e-09
5.00207e-06
-5.17717e-09
-5.99306e-09
5.00053e-06
2.1234e-09
5.00067e-06
4.1351e-09
5.00086e-06
4.49097e-09
5.00117e-06
5.08664e-09
5.0019e-06
6.4959e-09
5.00346e-06
8.54989e-09
5.00731e-06
1.07458e-08
5.01454e-06
1.27396e-08
5.02467e-06
1.23525e-08
5.03232e-06
8.68427e-09
5.03063e-06
-2.25892e-10
5.01878e-06
-1.14292e-08
5.00598e-06
-1.84099e-08
4.99986e-06
-1.78985e-08
5.00102e-06
-1.2695e-08
5.00288e-06
-7.73774e-09
5.00346e-06
-5.36901e-09
5.00282e-06
-4.80668e-09
5.00144e-06
-4.186e-09
-5.37698e-09
5.00038e-06
2.17723e-09
5.00066e-06
4.18084e-09
5.00107e-06
4.26085e-09
5.00177e-06
4.41451e-09
5.00291e-06
5.23694e-09
5.00493e-06
6.34036e-09
5.00796e-06
7.56201e-09
5.0121e-06
8.64085e-09
5.01613e-06
8.53484e-09
5.02007e-06
5.12771e-09
5.02145e-06
-1.36623e-09
5.01758e-06
-7.29796e-09
5.01095e-06
-1.17808e-08
5.00525e-06
-1.24564e-08
5.00267e-06
-1.05394e-08
5.00248e-06
-8.05108e-09
5.0027e-06
-6.08565e-09
5.00215e-06
-4.65647e-09
5.00093e-06
-3.24373e-09
-4.38469e-09
5.00018e-06
2.02278e-09
5.00049e-06
3.85652e-09
5.00103e-06
3.70922e-09
5.00191e-06
3.54455e-09
5.00315e-06
3.93714e-09
5.00481e-06
4.54313e-09
5.00699e-06
5.26492e-09
5.00969e-06
5.92455e-09
5.01296e-06
5.41312e-09
5.01568e-06
2.66717e-09
5.01599e-06
-1.3084e-09
5.01416e-06
-5.14014e-09
5.00996e-06
-7.38035e-09
5.0057e-06
-8.20733e-09
5.00295e-06
-8.00034e-09
5.00181e-06
-7.2282e-09
5.00139e-06
-6.00678e-09
5.0009e-06
-4.44744e-09
5.00015e-06
-2.65726e-09
-3.63363e-09
4.99996e-06
1.6956e-09
5.00023e-06
3.21483e-09
5.00082e-06
2.94021e-09
5.00174e-06
2.62674e-09
5.00296e-06
2.76243e-09
5.0044e-06
3.06358e-09
5.00613e-06
3.48069e-09
5.00816e-06
3.88266e-09
5.01017e-06
3.47876e-09
5.01148e-06
1.59206e-09
5.01188e-06
-1.2372e-09
5.01079e-06
-3.58258e-09
5.00856e-06
-4.78946e-09
5.00591e-06
-5.37027e-09
5.00371e-06
-5.76148e-09
5.00221e-06
-5.8197e-09
5.00116e-06
-5.11966e-09
5.00037e-06
-3.78873e-09
4.99971e-06
-2.05901e-09
-2.7567e-09
4.99974e-06
1.21051e-09
4.99999e-06
2.25165e-09
5.00057e-06
2.00077e-09
5.00151e-06
1.7054e-09
5.00268e-06
1.71866e-09
5.00395e-06
1.85787e-09
5.00534e-06
2.08156e-09
5.0069e-06
2.32468e-09
5.00844e-06
2.0369e-09
5.0095e-06
8.1684e-10
5.00961e-06
-9.62888e-10
5.0089e-06
-2.35794e-09
5.00755e-06
-2.92956e-09
5.00584e-06
-3.27161e-09
5.00406e-06
-3.70713e-09
5.00236e-06
-4.00123e-09
5.00089e-06
-3.63729e-09
4.99985e-06
-2.75822e-09
4.99923e-06
-1.43103e-09
-1.96359e-09
4.99952e-06
6.36101e-10
4.99974e-06
1.19693e-09
5.00029e-06
1.016e-09
5.00122e-06
8.39115e-10
5.00238e-06
8.24502e-10
5.00355e-06
8.6371e-10
5.00472e-06
9.77947e-10
5.00592e-06
1.12114e-09
5.00705e-06
9.94592e-10
5.00785e-06
3.18e-10
5.00794e-06
-5.26763e-10
5.0074e-06
-1.16072e-09
5.0065e-06
-1.40169e-09
5.00533e-06
-1.55823e-09
5.00386e-06
-1.78851e-09
5.00216e-06
-2.00687e-09
5.00052e-06
-1.86659e-09
4.99932e-06
-1.49492e-09
4.99872e-06
-7.85971e-10
-1.25754e-09
4.99947e-06
4.99969e-06
5.00026e-06
5.00119e-06
5.00234e-06
5.00347e-06
5.00455e-06
5.00567e-06
5.00674e-06
5.00738e-06
5.0074e-06
5.00688e-06
5.00614e-06
5.00522e-06
5.00399e-06
5.00239e-06
5.00071e-06
4.99931e-06
4.99861e-06
)
;

boundaryField
{
    sides
    {
        type            calculated;
        value           uniform 0;
    }
    inlet
    {
        type            calculated;
        value           nonuniform List<scalar> 
20
(
-5e-06
-5e-06
-5e-06
-5e-06
-5e-06
-5e-06
-5e-06
-5e-06
-5e-06
-5e-06
-5e-06
-5e-06
-5e-06
-5e-06
-5e-06
-5e-06
-5e-06
-5e-06
-5e-06
-5e-06
)
;
    }
    outlet
    {
        type            calculated;
        value           nonuniform List<scalar> 
20
(
5.00357e-06
5.003e-06
5.00299e-06
5.00259e-06
5.00257e-06
5.00236e-06
5.00278e-06
5.00379e-06
5.00272e-06
4.99425e-06
4.99389e-06
5.00195e-06
5.00239e-06
5.00067e-06
4.99984e-06
4.99935e-06
4.99882e-06
4.99845e-06
4.99805e-06
4.9974e-06
)
;
    }
    frontAndBack
    {
        type            empty;
        value           nonuniform List<scalar> 0();
    }
}


// ************************************************************************* //
