/*--------------------------------*- C++ -*----------------------------------*\
  =========                 |
  \\      /  F ield         | OpenFOAM: The Open Source CFD Toolbox
   \\    /   O peration     | Website:  https://openfoam.org
    \\  /    A nd           | Version:  9
     \\/     M anipulation  |
\*---------------------------------------------------------------------------*/
FoamFile
{
    format      ascii;
    class       volVectorField;
    location    "18";
    object      U;
}
// * * * * * * * * * * * * * * * * * * * * * * * * * * * * * * * * * * * * * //

dimensions      [0 1 -1 0 0 0 0];

internalField   nonuniform List<vector> 
400
(
(0.099986 -6.95845e-06 0)
(0.0999706 -1.61639e-05 0)
(0.0999999 -1.72234e-05 0)
(0.100017 -1.66666e-05 0)
(0.100032 -1.78589e-05 0)
(0.100055 -1.99508e-05 0)
(0.100076 -2.2453e-05 0)
(0.100093 -2.52418e-05 0)
(0.100114 -2.54967e-05 0)
(0.100137 -2.04194e-05 0)
(0.100151 -1.27346e-05 0)
(0.100152 -7.58208e-06 0)
(0.100147 -6.51892e-06 0)
(0.100143 -8.10296e-06 0)
(0.100132 -8.04861e-06 0)
(0.100113 -9.03646e-06 0)
(0.100085 -9.40541e-06 0)
(0.100062 -1.51157e-05 0)
(0.100054 -1.72756e-05 0)
(0.100068 -2.67633e-05 0)
(0.0999872 -1.47663e-05 0)
(0.0999755 -3.31144e-05 0)
(0.100005 -2.95536e-05 0)
(0.100023 -2.27074e-05 0)
(0.100038 -2.08486e-05 0)
(0.100061 -2.11294e-05 0)
(0.100083 -2.23617e-05 0)
(0.100104 -2.4571e-05 0)
(0.100129 -2.09265e-05 0)
(0.100155 -4.10024e-06 0)
(0.10017 2.10404e-05 0)
(0.100171 4.05573e-05 0)
(0.100164 4.76966e-05 0)
(0.100154 4.85598e-05 0)
(0.100137 5.36325e-05 0)
(0.100113 5.75305e-05 0)
(0.100088 5.786e-05 0)
(0.100066 3.88442e-05 0)
(0.100062 1.76362e-05 0)
(0.100063 3.88448e-06 0)
(0.0999881 -2.35097e-05 0)
(0.0999812 -5.39948e-05 0)
(0.100009 -5.22244e-05 0)
(0.100025 -4.58495e-05 0)
(0.100041 -4.71589e-05 0)
(0.100066 -5.18113e-05 0)
(0.100091 -5.78021e-05 0)
(0.100117 -6.48981e-05 0)
(0.100146 -6.13185e-05 0)
(0.100176 -3.5105e-05 0)
(0.100195 6.84394e-06 0)
(0.100198 4.05895e-05 0)
(0.100187 5.2631e-05 0)
(0.100168 5.21908e-05 0)
(0.100139 5.47434e-05 0)
(0.100106 5.46783e-05 0)
(0.100072 5.09201e-05 0)
(0.100049 2.69122e-05 0)
(0.100047 9.62329e-08 0)
(0.100062 -1.49762e-05 0)
(0.0999887 -3.12849e-05 0)
(0.0999884 -7.02726e-05 0)
(0.100014 -7.00208e-05 0)
(0.10003 -6.44367e-05 0)
(0.100045 -6.87901e-05 0)
(0.100072 -7.74346e-05 0)
(0.100103 -8.72082e-05 0)
(0.100138 -9.67426e-05 0)
(0.100179 -8.95793e-05 0)
(0.100221 -4.90764e-05 0)
(0.100248 1.86061e-05 0)
(0.100251 7.88312e-05 0)
(0.100229 0.000108817 0)
(0.100188 0.000113773 0)
(0.100139 0.000110795 0)
(0.100095 9.87675e-05 0)
(0.100072 8.20944e-05 0)
(0.100062 4.47415e-05 0)
(0.100066 9.42897e-06 0)
(0.100062 -5.44184e-06 0)
(0.0999888 -3.68328e-05 0)
(0.0999954 -8.18953e-05 0)
(0.100017 -8.54265e-05 0)
(0.100031 -8.50064e-05 0)
(0.100047 -9.63483e-05 0)
(0.100076 -0.000113295 0)
(0.100115 -0.000131139 0)
(0.100163 -0.000145468 0)
(0.100221 -0.000135176 0)
(0.100283 -8.16666e-05 0)
(0.100329 4.00159e-06 0)
(0.100334 9.0127e-05 0)
(0.100292 0.000140947 0)
(0.100212 0.000152471 0)
(0.100125 0.000143722 0)
(0.100062 0.000122789 0)
(0.100035 0.000102709 0)
(0.100037 6.33357e-05 0)
(0.100055 2.58819e-05 0)
(0.100064 1.17504e-05 0)
(0.0999879 -3.91736e-05 0)
(0.1 -8.67549e-05 0)
(0.100017 -9.56472e-05 0)
(0.100028 -0.000102701 0)
(0.100042 -0.000124346 0)
(0.100072 -0.000154697 0)
(0.100122 -0.000189857 0)
(0.100191 -0.000219973 0)
(0.100277 -0.000211606 0)
(0.100364 -0.000125797 0)
(0.100431 2.8079e-05 0)
(0.100442 0.000184968 0)
(0.100372 0.000257912 0)
(0.100241 0.00022774 0)
(0.100113 0.000147048 0)
(0.10004 7.42086e-05 0)
(0.100036 4.41042e-05 0)
(0.100057 2.42477e-05 0)
(0.100082 9.74294e-06 0)
(0.100068 2.0823e-06 0)
(0.0999864 -3.72129e-05 0)
(0.100003 -8.34108e-05 0)
(0.100013 -9.70008e-05 0)
(0.100016 -0.000114564 0)
(0.100024 -0.000147729 0)
(0.10005 -0.000198765 0)
(0.100106 -0.000254601 0)
(0.100204 -0.000322922 0)
(0.100354 -0.000342251 0)
(0.100532 -0.000294851 0)
(0.100656 -5.15653e-05 0)
(0.100623 0.000282625 0)
(0.10042 0.000497458 0)
(0.100153 0.000471584 0)
(0.0999774 0.000306099 0)
(0.0999444 0.000152087 0)
(0.100012 8.84861e-05 0)
(0.100074 6.56284e-05 0)
(0.100108 6.00208e-05 0)
(0.100072 5.0465e-05 0)
(0.0999842 -3.13337e-05 0)
(0.100002 -6.9336e-05 0)
(0.100001 -8.81716e-05 0)
(0.0999943 -0.000111875 0)
(0.0999875 -0.000166014 0)
(0.100006 -0.000238818 0)
(0.100052 -0.000345742 0)
(0.100166 -0.000425152 0)
(0.100343 -0.000453757 0)
(0.100674 -0.000261219 0)
(0.101036 8.89001e-05 0)
(0.101058 0.000448483 0)
(0.100653 0.000482765 0)
(0.100109 0.000277976 0)
(0.0998097 7.70863e-05 0)
(0.0998188 -5.96887e-06 0)
(0.0999835 1.00025e-05 0)
(0.100104 2.92229e-05 0)
(0.100146 2.95771e-05 0)
(0.100084 1.10886e-05 0)
(0.0999828 -1.98141e-05 0)
(0.0999976 -4.72195e-05 0)
(0.0999848 -5.90102e-05 0)
(0.0999563 -8.45751e-05 0)
(0.0999221 -0.000139356 0)
(0.0999078 -0.000250777 0)
(0.0999619 -0.000472125 0)
(0.100152 -0.000814573 0)
(0.100549 -0.00133956 0)
(0.101084 -0.00149774 0)
(0.101358 0.000392975 0)
(0.101042 0.00188848 0)
(0.100291 0.00158278 0)
(0.0997616 0.000568297 0)
(0.0996729 -3.33426e-05 0)
(0.0998419 -0.000114819 0)
(0.100039 1.23943e-05 0)
(0.100121 8.06263e-05 0)
(0.100118 7.18445e-05 0)
(0.100047 2.64236e-05 0)
(0.0999633 -8.1399e-06 0)
(0.100024 -1.74504e-05 0)
(0.09993 -2.311e-05 0)
(0.0999902 -2.88855e-05 0)
(0.099737 -6.0171e-05 0)
(0.0998504 -0.00011188 0)
(0.0992828 -0.000286974 0)
(0.0996829 -0.000558188 0)
(0.0991314 -0.00115334 0)
(0.102028 -0.00141614 0)
(0.10632 3.09175e-05 0)
(0.101319 0.00147053 0)
(0.0990603 0.00130717 0)
(0.0982635 0.000506277 0)
(0.0988802 1.46422e-05 0)
(0.0996199 -7.48739e-05 0)
(0.0999505 -2.27445e-06 0)
(0.0999674 3.27806e-05 0)
(0.0998695 2.63791e-05 0)
(0.0998375 -1.27316e-05 0)
(0.099964 4.76369e-06 0)
(0.100025 1.08025e-05 0)
(0.0999303 1.64743e-05 0)
(0.0999904 2.33907e-05 0)
(0.0997374 5.66731e-05 0)
(0.0998507 0.000109868 0)
(0.0992827 0.000284673 0)
(0.0996821 0.00055406 0)
(0.0991295 0.00114455 0)
(0.102024 0.00140194 0)
(0.106314 -5.45487e-05 0)
(0.101317 -0.00150276 0)
(0.0990617 -0.00134922 0)
(0.0982642 -0.000558182 0)
(0.0988787 -7.16403e-05 0)
(0.0996166 1.61876e-05 0)
(0.0999469 -5.25997e-05 0)
(0.0999629 -9.88656e-05 0)
(0.0998672 -8.81488e-05 0)
(0.0998328 -8.21343e-05 0)
(0.0999845 1.68666e-05 0)
(0.0999991 4.10975e-05 0)
(0.0999857 5.24815e-05 0)
(0.0999573 7.91947e-05 0)
(0.099923 0.000135761 0)
(0.0999088 0.000248142 0)
(0.0999621 0.000469096 0)
(0.100152 0.000809262 0)
(0.100549 0.0013304 0)
(0.101086 0.00148244 0)
(0.101361 -0.000413788 0)
(0.101044 -0.00191992 0)
(0.100285 -0.00162402 0)
(0.0997518 -0.000618378 0)
(0.0996668 -1.65215e-05 0)
(0.0998358 6.05793e-05 0)
(0.100028 -6.1484e-05 0)
(0.100107 -0.000140574 0)
(0.100099 -0.000128573 0)
(0.10003 -0.000116614 0)
(0.0999871 2.8874e-05 0)
(0.100004 6.40498e-05 0)
(0.100002 8.21745e-05 0)
(0.0999956 0.000106739 0)
(0.0999889 0.000162102 0)
(0.100007 0.000235786 0)
(0.100052 0.000341843 0)
(0.100164 0.000419176 0)
(0.100341 0.000443938 0)
(0.10067 0.000246391 0)
(0.101029 -0.000110094 0)
(0.101051 -0.000479985 0)
(0.100648 -0.000522448 0)
(0.100105 -0.000322604 0)
(0.099802 -0.000125257 0)
(0.0998041 -5.05473e-05 0)
(0.0999656 -6.4191e-05 0)
(0.100079 -9.27149e-05 0)
(0.10012 -8.62744e-05 0)
(0.100055 -9.65338e-05 0)
(0.0999903 3.53763e-05 0)
(0.100006 7.92249e-05 0)
(0.100014 9.19694e-05 0)
(0.100017 0.000109866 0)
(0.100025 0.000144052 0)
(0.100051 0.000195481 0)
(0.100106 0.000250883 0)
(0.100203 0.000317151 0)
(0.100354 0.000334582 0)
(0.100533 0.000282478 0)
(0.100657 3.45542e-05 0)
(0.100621 -0.000306765 0)
(0.100414 -0.000531285 0)
(0.10014 -0.000516146 0)
(0.0999587 -0.000358362 0)
(0.09992 -0.000208624 0)
(0.0999867 -0.000141774 0)
(0.100044 -0.000129537 0)
(0.100077 -0.000118867 0)
(0.100032 -0.000139208 0)
(0.0999929 3.79541e-05 0)
(0.100004 8.3745e-05 0)
(0.100019 9.16521e-05 0)
(0.100029 9.88341e-05 0)
(0.100043 0.000121389 0)
(0.100073 0.00015196 0)
(0.100122 0.000186403 0)
(0.100191 0.00021441 0)
(0.100276 0.000202727 0)
(0.100362 0.000111533 0)
(0.100426 -5.01037e-05 0)
(0.100432 -0.000214843 0)
(0.10036 -0.000294882 0)
(0.100224 -0.000271477 0)
(0.100093 -0.000191518 0)
(0.100013 -0.000119721 0)
(0.100005 -8.39135e-05 0)
(0.100017 -7.1675e-05 0)
(0.100039 -5.1258e-05 0)
(0.100016 -7.24146e-05 0)
(0.0999951 3.61919e-05 0)
(0.1 8.02972e-05 0)
(0.10002 8.2978e-05 0)
(0.100033 8.25407e-05 0)
(0.100048 9.43031e-05 0)
(0.100077 0.000111333 0)
(0.100115 0.000128418 0)
(0.100163 0.000141266 0)
(0.10022 0.000128044 0)
(0.100281 7.03447e-05 0)
(0.100327 -2.17289e-05 0)
(0.10033 -0.000114035 0)
(0.100283 -0.000170617 0)
(0.100196 -0.000187887 0)
(0.100104 -0.000181215 0)
(0.100033 -0.000165723 0)
(0.100003 -0.000145493 0)
(0.0999961 -0.000120476 0)
(0.100011 -8.33283e-05 0)
(0.100001 -9.87799e-05 0)
(0.0999965 3.12901e-05 0)
(0.0999948 6.95365e-05 0)
(0.100017 6.84757e-05 0)
(0.100031 6.32178e-05 0)
(0.100047 6.83164e-05 0)
(0.100073 7.7027e-05 0)
(0.100104 8.62096e-05 0)
(0.100138 9.44373e-05 0)
(0.100178 8.59565e-05 0)
(0.100217 4.41612e-05 0)
(0.100242 -2.52411e-05 0)
(0.10024 -8.98869e-05 0)
(0.100215 -0.00012437 0)
(0.100168 -0.000134292 0)
(0.100111 -0.000134004 0)
(0.100056 -0.000126515 0)
(0.100023 -0.000107226 0)
(0.0999993 -7.7674e-05 0)
(0.100002 -3.69198e-05 0)
(0.0999868 -4.79154e-05 0)
(0.0999972 2.3852e-05 0)
(0.0999887 5.33805e-05 0)
(0.100013 5.04074e-05 0)
(0.100028 4.29112e-05 0)
(0.100043 4.32773e-05 0)
(0.100067 4.67193e-05 0)
(0.100092 5.11869e-05 0)
(0.100118 5.55747e-05 0)
(0.100149 4.84458e-05 0)
(0.100179 1.69378e-05 0)
(0.100196 -2.95297e-05 0)
(0.100195 -6.82154e-05 0)
(0.100178 -8.49593e-05 0)
(0.100148 -9.01463e-05 0)
(0.100113 -9.48083e-05 0)
(0.100069 -9.86453e-05 0)
(0.100033 -9.27793e-05 0)
(0.0999973 -7.7972e-05 0)
(0.0999923 -4.90639e-05 0)
(0.0999753 -6.00777e-05 0)
(0.0999976 1.48028e-05 0)
(0.0999835 3.47819e-05 0)
(0.100009 3.35131e-05 0)
(0.100023 2.9293e-05 0)
(0.100037 2.99774e-05 0)
(0.100061 3.29283e-05 0)
(0.100083 3.67967e-05 0)
(0.100102 4.13365e-05 0)
(0.100125 3.90711e-05 0)
(0.100148 2.24096e-05 0)
(0.100162 -3.36039e-06 0)
(0.100159 -2.46632e-05 0)
(0.100147 -3.25863e-05 0)
(0.100129 -3.44424e-05 0)
(0.100106 -3.79107e-05 0)
(0.100068 -4.2705e-05 0)
(0.100032 -4.00122e-05 0)
(0.0999914 -2.94485e-05 0)
(0.0999833 -7.33919e-06 0)
(0.0999646 -1.47583e-05 0)
(0.0999983 3.195e-06 0)
(0.099982 7.17482e-06 0)
(0.100009 3.98878e-06 0)
(0.100024 2.78132e-07 0)
(0.100038 -1.58925e-06 0)
(0.100061 -2.84283e-06 0)
(0.100082 -3.71106e-06 0)
(0.100098 -4.2262e-06 0)
(0.10012 -6.27498e-06 0)
(0.100141 -1.199e-05 0)
(0.100152 -2.11777e-05 0)
(0.100148 -2.90594e-05 0)
(0.100138 -3.19421e-05 0)
(0.100123 -3.42183e-05 0)
(0.100107 -3.74416e-05 0)
(0.100072 -4.1438e-05 0)
(0.100041 -4.06725e-05 0)
(0.0999947 -3.88148e-05 0)
(0.099986 -2.99444e-05 0)
(0.0999549 -3.80653e-05 0)
)
;

boundaryField
{
    sides
    {
        type            calculated;
        value           nonuniform List<vector> 
40
(
(0.0999983 0 0)
(0.099982 0 0)
(0.100009 0 0)
(0.100024 0 0)
(0.100038 0 0)
(0.100061 0 0)
(0.100082 0 0)
(0.100098 0 0)
(0.10012 0 0)
(0.100141 0 0)
(0.100152 0 0)
(0.100148 0 0)
(0.100138 0 0)
(0.100123 0 0)
(0.100107 0 0)
(0.100072 0 0)
(0.100041 0 0)
(0.0999947 0 0)
(0.099986 0 0)
(0.0999549 0 0)
(0.099986 0 0)
(0.0999706 0 0)
(0.0999999 0 0)
(0.100017 0 0)
(0.100032 0 0)
(0.100055 0 0)
(0.100076 0 0)
(0.100093 0 0)
(0.100114 0 0)
(0.100137 0 0)
(0.100151 0 0)
(0.100152 0 0)
(0.100147 0 0)
(0.100143 0 0)
(0.100132 0 0)
(0.100113 0 0)
(0.100085 0 0)
(0.100062 0 0)
(0.100054 0 0)
(0.100068 0 0)
)
;
    }
    inlet
    {
        type            calculated;
        value           nonuniform List<vector> 
20
(
(0.0999963 0 0)
(0.0999968 0 0)
(0.0999966 0 0)
(0.0999959 0 0)
(0.0999942 0 0)
(0.0999916 0 0)
(0.0999885 0 0)
(0.0999852 0 0)
(0.0999827 0 0)
(0.0999817 0 0)
(0.0999822 0 0)
(0.0999841 0 0)
(0.0999875 0 0)
(0.0999918 0 0)
(0.0999961 0 0)
(0.1 0 0)
(0.100003 0 0)
(0.100005 0 0)
(0.100007 0 0)
(0.100008 0 0)
)
;
    }
    outlet
    {
        type            calculated;
        value           nonuniform List<vector> 
20
(
(0.10007 -2.67637e-05 0)
(0.100065 3.88453e-06 0)
(0.100064 -1.49765e-05 0)
(0.100064 -5.44193e-06 0)
(0.100066 1.17507e-05 0)
(0.10007 2.08233e-06 0)
(0.100073 5.04655e-05 0)
(0.100084 1.10887e-05 0)
(0.100048 2.64238e-05 0)
(0.0998409 -1.2732e-05 0)
(0.099836 -8.21369e-05 0)
(0.100031 -0.000116615 0)
(0.100056 -9.6534e-05 0)
(0.100032 -0.000139208 0)
(0.100018 -7.24154e-05 0)
(0.100003 -9.87813e-05 0)
(0.099988 -4.79159e-05 0)
(0.0999761 -6.00781e-05 0)
(0.0999651 -1.47583e-05 0)
(0.0999547 -3.80652e-05 0)
)
;
    }
    frontAndBack
    {
        type            empty;
    }
}


// ************************************************************************* //
