/*--------------------------------*- C++ -*----------------------------------*\
  =========                 |
  \\      /  F ield         | OpenFOAM: The Open Source CFD Toolbox
   \\    /   O peration     | Website:  https://openfoam.org
    \\  /    A nd           | Version:  9
     \\/     M anipulation  |
\*---------------------------------------------------------------------------*/
FoamFile
{
    format      ascii;
    class       volVectorField;
    location    "79";
    object      ddtCorrDdt0(hU);
}
// * * * * * * * * * * * * * * * * * * * * * * * * * * * * * * * * * * * * * //

dimensions      [0 2 -2 0 0 0 0];

internalField   nonuniform List<vector> 
400
(
(2.77496e-09 1.72292e-09 0)
(2.33403e-09 -7.24244e-10 0)
(1.50469e-09 -1.63785e-09 0)
(1.22681e-10 -4.25256e-10 0)
(-9.40849e-10 -1.52108e-09 0)
(-1.30238e-09 -7.31654e-10 0)
(-1.66456e-09 -1.37572e-09 0)
(-2.31929e-09 -4.08835e-11 0)
(-1.08264e-09 -1.48429e-09 0)
(-1.7493e-09 -1.02291e-09 0)
(3.33596e-10 -3.11435e-10 0)
(5.8988e-10 -6.15324e-10 0)
(2.79829e-09 4.73379e-10 0)
(3.22741e-09 -1.71682e-09 0)
(2.01422e-09 -1.32639e-09 0)
(9.68701e-10 -5.67213e-10 0)
(-2.54219e-09 1.10586e-09 0)
(-1.71384e-09 2.07478e-09 0)
(1.3832e-09 -1.25234e-10 0)
(-3.21842e-10 -4.38929e-10 0)
(-2.58165e-10 3.74575e-09 0)
(5.16863e-10 -1.50014e-09 0)
(8.79048e-10 -3.102e-09 0)
(2.34755e-10 -1.60269e-09 0)
(-5.37632e-10 -3.05475e-09 0)
(-9.97157e-10 -1.57121e-09 0)
(-7.4967e-10 -1.85858e-09 0)
(-1.77001e-09 -1.83371e-09 0)
(-2.49324e-09 -2.81332e-09 0)
(3.50911e-10 -3.65436e-09 0)
(-1.48075e-09 6.61872e-10 0)
(1.87939e-09 2.6172e-11 0)
(1.79145e-09 -1.07005e-09 0)
(1.98742e-09 -3.48978e-09 0)
(4.11179e-09 -4.58797e-09 0)
(2.56889e-09 -3.35761e-09 0)
(9.5428e-11 6.05894e-10 0)
(-1.00217e-09 2.71776e-09 0)
(6.00931e-11 -5.15866e-10 0)
(7.43692e-10 -1.16093e-09 0)
(-2.21903e-09 2.20637e-09 0)
(-1.86731e-09 -1.54874e-09 0)
(-3.91057e-10 -2.33169e-09 0)
(1.45932e-10 -1.87645e-09 0)
(-5.9159e-10 -1.37244e-09 0)
(4.22026e-11 -1.07564e-10 0)
(-1.14191e-09 -1.73913e-09 0)
(-4.23524e-10 -5.08213e-09 0)
(-2.66777e-09 -5.5173e-09 0)
(9.95494e-10 -1.48979e-09 0)
(2.24134e-09 -3.59918e-09 0)
(-4.67876e-09 6.69346e-09 0)
(1.70521e-10 -6.84305e-10 0)
(6.20702e-11 -2.55314e-09 0)
(2.13012e-09 -3.8171e-09 0)
(4.82828e-09 -5.18814e-09 0)
(3.8043e-09 -2.72599e-09 0)
(-1.49992e-11 -5.30609e-10 0)
(-5.98742e-10 -1.43152e-09 0)
(1.26993e-09 -1.32349e-09 0)
(-2.31143e-09 -1.43339e-09 0)
(-2.47938e-09 -2.09829e-09 0)
(-3.478e-10 -6.46531e-10 0)
(2.1447e-10 4.67602e-11 0)
(3.44941e-10 1.88464e-09 0)
(-1.17021e-09 1.54739e-09 0)
(-6.49252e-10 -4.96543e-09 0)
(-3.58658e-09 -5.39326e-09 0)
(4.83824e-09 -7.21916e-09 0)
(-7.80698e-09 8.29702e-09 0)
(7.16587e-09 2.84727e-09 0)
(-4.71999e-10 3.89395e-09 0)
(-1.41188e-08 1.32913e-08 0)
(-2.41615e-09 4.24673e-09 0)
(-2.37802e-09 8.02359e-10 0)
(1.89749e-10 -1.25873e-09 0)
(4.51192e-09 -3.52454e-09 0)
(2.06455e-09 -5.09999e-09 0)
(-1.08831e-10 -4.96471e-09 0)
(1.71719e-09 -1.95844e-09 0)
(-1.06112e-09 -3.89968e-09 0)
(-8.51936e-10 -2.69968e-09 0)
(6.97465e-10 7.78019e-10 0)
(1.17487e-09 2.13054e-09 0)
(-4.46479e-10 3.47155e-09 0)
(-2.39152e-09 -1.00317e-09 0)
(-2.88957e-09 -4.43981e-09 0)
(-1.41033e-10 -6.42269e-09 0)
(1.84851e-09 1.31513e-08 0)
(1.15135e-08 -2.51305e-09 0)
(-2.31921e-08 2.34631e-08 0)
(1.54552e-08 -5.06764e-09 0)
(-6.03555e-09 7.10147e-09 0)
(-2.26843e-08 1.57639e-08 0)
(-8.40285e-09 8.74719e-09 0)
(-3.71551e-09 4.18419e-09 0)
(-1.37584e-09 -4.61807e-10 0)
(-9.42864e-12 -5.34341e-09 0)
(1.4967e-09 -5.67287e-09 0)
(4.91919e-09 -2.03931e-09 0)
(8.30049e-10 -3.51273e-09 0)
(1.5497e-09 -1.88673e-09 0)
(2.37327e-09 6.67032e-10 0)
(1.07323e-09 1.4919e-09 0)
(-1.92239e-09 3.80741e-10 0)
(-3.48652e-09 -2.25267e-09 0)
(-4.06971e-09 -2.77656e-09 0)
(1.04747e-08 5.7404e-09 0)
(-7.85647e-09 1.54207e-08 0)
(1.7001e-08 -2.47748e-09 0)
(1.25848e-10 -2.12906e-08 0)
(-2.33614e-08 1.25912e-08 0)
(2.65125e-08 -1.31478e-08 0)
(-2.76466e-09 3.1386e-09 0)
(-2.10853e-08 1.13689e-08 0)
(-1.22362e-08 7.9416e-09 0)
(-5.87933e-09 3.81899e-09 0)
(-3.35632e-09 3.4211e-10 0)
(-6.91738e-10 -3.78e-10 0)
(4.20536e-09 6.61094e-12 0)
(2.0269e-09 -6.62741e-10 0)
(3.24726e-09 2.21858e-10 0)
(2.45059e-09 -6.79276e-10 0)
(-1.17142e-10 -2.26545e-09 0)
(-2.70197e-09 -3.47959e-09 0)
(-4.27252e-09 -1.23881e-09 0)
(3.79693e-09 3.4609e-09 0)
(2.51337e-09 8.80479e-09 0)
(1.48407e-08 -7.12478e-09 0)
(-5.27894e-08 2.90084e-08 0)
(7.79437e-08 -1.02236e-07 0)
(1.99656e-08 -1.05766e-08 0)
(-1.07135e-08 2.4618e-09 0)
(2.01364e-08 -1.20356e-08 0)
(-8.56e-11 -2.69941e-09 0)
(-1.20545e-08 4.49776e-09 0)
(-8.5752e-09 5.86603e-09 0)
(-4.67985e-09 5.33505e-09 0)
(-3.55067e-09 4.30014e-09 0)
(1.60037e-10 1.99255e-09 0)
(1.97601e-09 2.26793e-09 0)
(2.84544e-09 1.83055e-09 0)
(9.05971e-10 -2.12278e-09 0)
(-1.63026e-09 -5.16005e-09 0)
(-1.99678e-09 -4.08813e-09 0)
(-1.67746e-10 1.77621e-09 0)
(1.08242e-09 7.71494e-09 0)
(2.77492e-09 -3.80299e-09 0)
(1.67042e-08 -1.22769e-08 0)
(-5.13732e-08 -3.00782e-08 0)
(-5.40459e-07 1.03311e-07 0)
(1.58836e-07 -4.56556e-09 0)
(2.07044e-08 -1.22529e-08 0)
(-7.33371e-09 -1.23059e-08 0)
(4.88038e-09 -1.67518e-08 0)
(1.05797e-09 -6.60317e-09 0)
(-2.06828e-09 2.10247e-09 0)
(-2.85752e-09 5.55251e-09 0)
(-5.00897e-09 5.14467e-09 0)
(-3.93304e-09 2.48428e-09 0)
(7.35666e-10 3.02227e-09 0)
(1.31286e-09 1.65462e-09 0)
(-1.26554e-09 -2.90368e-09 0)
(-2.17426e-09 -4.20403e-09 0)
(2.45009e-10 -1.7075e-09 0)
(2.08234e-09 3.29742e-09 0)
(-9.39383e-10 4.16915e-09 0)
(-3.27365e-09 -6.42523e-09 0)
(-1.98081e-08 -1.46023e-08 0)
(4.7456e-08 -2.59913e-08 0)
(5.49987e-07 1.01473e-07 0)
(-1.622e-07 -3.88823e-09 0)
(-2.06481e-08 -8.29589e-09 0)
(5.58988e-09 -1.08444e-08 0)
(2.89254e-09 -1.18899e-08 0)
(1.24256e-08 -6.71373e-09 0)
(1.35725e-08 -4.89747e-10 0)
(3.75393e-09 2.60602e-09 0)
(-2.69924e-09 2.65157e-09 0)
(-6.3737e-09 1.40451e-09 0)
(-3.69763e-10 1.40068e-09 0)
(-5.14239e-10 3.02192e-10 0)
(-2.23089e-09 -2.17714e-09 0)
(-1.93542e-09 -1.0401e-09 0)
(1.82785e-09 1.72203e-09 0)
(3.03016e-09 1.85872e-10 0)
(-3.56229e-09 -1.01127e-09 0)
(-6.4195e-09 1.82312e-09 0)
(-1.16596e-08 -7.21642e-09 0)
(4.5977e-08 1.93886e-08 0)
(-9.30587e-08 -6.85292e-08 0)
(-9.68341e-09 -7.69867e-09 0)
(7.1815e-09 6.43542e-09 0)
(-1.90836e-08 -5.95979e-09 0)
(2.34816e-09 1.77079e-09 0)
(1.32078e-08 2.44242e-09 0)
(8.62061e-09 4.26358e-10 0)
(5.95467e-09 -1.02962e-09 0)
(-7.23613e-10 -1.43523e-09 0)
(-3.48542e-09 -4.68556e-10 0)
(-6.45707e-10 -7.58361e-10 0)
(-1.03277e-09 -5.20173e-10 0)
(-2.11442e-09 -1.30347e-10 0)
(-1.00545e-09 1.79622e-09 0)
(1.21401e-09 2.13281e-09 0)
(1.76088e-09 -1.33719e-09 0)
(2.24588e-11 -4.22095e-09 0)
(-7.41501e-09 5.50479e-09 0)
(-3.00023e-09 1.23492e-08 0)
(9.61559e-09 1.23502e-09 0)
(3.13077e-08 -5.25619e-08 0)
(-2.12271e-08 3.61552e-08 0)
(-2.23807e-08 -1.33431e-08 0)
(2.03671e-09 4.21677e-09 0)
(1.35432e-08 8.72258e-09 0)
(7.85224e-09 4.48644e-09 0)
(4.42879e-09 -3.13808e-10 0)
(1.90634e-09 -3.11943e-09 0)
(-5.47738e-11 -3.26903e-09 0)
(-2.24734e-09 -1.31069e-09 0)
(1.69807e-10 -1.56088e-09 0)
(-5.02318e-10 -3.23962e-10 0)
(-1.38255e-09 2.00227e-09 0)
(-9.62489e-10 2.58455e-09 0)
(5.5875e-10 6.28905e-10 0)
(5.60447e-10 -2.81203e-09 0)
(2.08714e-09 -5.36684e-10 0)
(-3.20819e-09 2.25359e-10 0)
(1.15735e-08 1.50309e-08 0)
(-8.61104e-08 1.45628e-09 0)
(-2.18588e-07 3.92663e-08 0)
(2.47609e-08 -3.03198e-08 0)
(-2.99592e-08 1.05801e-08 0)
(1.8596e-08 1.4854e-08 0)
(7.1939e-09 7.16432e-09 0)
(8.09934e-10 3.11469e-09 0)
(-1.01154e-09 2.91465e-10 0)
(-1.11984e-09 -1.62051e-09 0)
(-3.79037e-10 -1.5372e-09 0)
(-1.26453e-09 -7.10014e-10 0)
(1.16321e-09 -3.33877e-10 0)
(2.0323e-10 8.77319e-11 0)
(-9.07691e-10 2.95295e-09 0)
(-1.49005e-09 2.41935e-09 0)
(-9.50567e-10 -1.18761e-09 0)
(1.8981e-09 -3.61502e-09 0)
(1.75668e-09 -9.5263e-10 0)
(4.98422e-09 2.39768e-09 0)
(-1.66307e-08 2.14003e-09 0)
(8.51391e-08 9.18109e-09 0)
(1.91981e-07 1.84064e-08 0)
(-4.12987e-08 -1.59341e-08 0)
(4.60747e-08 1.53502e-08 0)
(-4.28713e-10 7.51052e-09 0)
(8.51307e-10 3.64255e-09 0)
(6.67816e-10 2.14472e-09 0)
(-3.3528e-09 6.26306e-10 0)
(-3.40474e-09 -4.19027e-10 0)
(-1.58885e-09 -5.06252e-10 0)
(-2.01595e-09 -4.81969e-10 0)
(1.25039e-09 1.68525e-09 0)
(-3.21425e-11 2.37505e-10 0)
(-8.30271e-10 1.83624e-09 0)
(-2.16321e-09 2.39106e-09 0)
(-2.00142e-09 -7.56507e-10 0)
(1.41281e-09 -3.68183e-09 0)
(4.98001e-09 -3.49257e-09 0)
(2.29404e-09 3.74368e-10 0)
(7.68064e-09 -4.94691e-10 0)
(-3.58892e-08 5.70042e-09 0)
(1.05723e-08 -4.22113e-08 0)
(3.74286e-08 3.28049e-08 0)
(-5.56573e-09 2.43471e-09 0)
(5.20929e-09 2.13996e-09 0)
(3.84375e-09 2.00353e-09 0)
(-1.15485e-09 2.52618e-10 0)
(-5.33692e-09 -1.06688e-09 0)
(-4.9109e-09 -1.53731e-09 0)
(-2.83e-09 -2.22376e-09 0)
(-1.9992e-09 -1.52462e-09 0)
(1.65978e-10 2.57447e-09 0)
(-1.57192e-09 3.30142e-10 0)
(-6.0682e-10 -4.7354e-10 0)
(-1.76905e-09 1.60783e-09 0)
(-3.30009e-09 2.18849e-09 0)
(1.32366e-11 -4.09528e-10 0)
(3.85116e-09 -4.12829e-09 0)
(5.67062e-09 -3.01985e-09 0)
(-1.66417e-09 -2.54904e-09 0)
(3.05417e-09 -5.95175e-09 0)
(4.29348e-09 2.72376e-08 0)
(-6.73172e-10 -1.05242e-09 0)
(4.67413e-09 3.67521e-09 0)
(1.08116e-09 2.13175e-09 0)
(1.06215e-09 1.81414e-10 0)
(-2.80133e-09 -2.62451e-09 0)
(-7.34293e-09 -4.51812e-09 0)
(-6.75192e-09 -3.87939e-09 0)
(-2.77459e-09 -3.85489e-09 0)
(1.21171e-09 -2.20691e-09 0)
(-1.80644e-09 1.51589e-09 0)
(-3.0905e-09 1.28294e-09 0)
(-3.71828e-10 -1.78667e-09 0)
(4.12921e-10 -5.70641e-10 0)
(-2.64953e-09 3.36578e-09 0)
(-2.30837e-09 5.71011e-09 0)
(1.47608e-09 -2.41369e-10 0)
(3.05887e-09 -4.2483e-09 0)
(2.29932e-09 -5.94415e-09 0)
(1.36765e-09 -4.67136e-09 0)
(-5.52876e-09 -5.7788e-09 0)
(4.22325e-10 -1.61266e-09 0)
(-1.78646e-09 -2.75996e-09 0)
(-3.53769e-10 -1.39712e-09 0)
(-1.53125e-09 -2.48221e-09 0)
(-7.57314e-09 -7.15506e-09 0)
(-9.12765e-09 -7.87814e-09 0)
(-5.35743e-09 -3.79839e-09 0)
(1.11091e-09 -1.43159e-09 0)
(6.45674e-09 -8.32694e-10 0)
(-2.99307e-09 -8.01524e-10 0)
(-3.39177e-09 2.24999e-09 0)
(-7.34647e-11 8.55658e-11 0)
(2.44817e-09 -2.41901e-09 0)
(5.11543e-10 9.83088e-10 0)
(-3.2491e-09 6.91463e-09 0)
(-1.97286e-09 6.94955e-09 0)
(-3.10048e-10 -7.3134e-10 0)
(1.07063e-09 -2.63128e-09 0)
(-8.78652e-10 -5.71397e-09 0)
(-6.16269e-10 -6.10729e-09 0)
(-2.24308e-09 -6.02298e-09 0)
(-2.77143e-09 -5.62879e-09 0)
(-2.61543e-09 -3.45906e-09 0)
(-8.13305e-09 -5.62481e-09 0)
(-9.8801e-09 -8.03963e-09 0)
(-4.72399e-09 -5.97896e-09 0)
(4.26991e-10 1.35299e-10 0)
(5.57192e-09 4.1859e-09 0)
(8.71864e-09 2.21705e-09 0)
(-2.3169e-09 -2.44296e-09 0)
(-1.87272e-09 1.87072e-09 0)
(-9.20534e-11 3.43719e-09 0)
(2.94615e-09 -1.19916e-09 0)
(2.99812e-09 -2.71703e-09 0)
(-1.09986e-09 1.92031e-09 0)
(-3.49165e-09 7.32012e-09 0)
(-2.74306e-09 5.57927e-09 0)
(-3.44558e-10 3.00551e-09 0)
(6.89511e-10 1.32416e-09 0)
(1.14927e-09 -1.88852e-09 0)
(-1.62705e-09 -4.37427e-09 0)
(-2.50766e-09 -3.03832e-09 0)
(-4.82385e-09 -2.08763e-09 0)
(-7.88803e-09 -2.06847e-09 0)
(-4.66176e-09 -4.80874e-10 0)
(2.17211e-09 1.53884e-09 0)
(6.0003e-09 5.33552e-09 0)
(7.10209e-09 8.85387e-09 0)
(4.84538e-09 4.68954e-09 0)
(-5.08651e-10 -2.28712e-09 0)
(2.78785e-10 5.39579e-10 0)
(7.81745e-11 4.18574e-09 0)
(1.65062e-09 9.87386e-10 0)
(2.95078e-09 -3.34657e-09 0)
(8.24858e-10 -2.86002e-09 0)
(-2.7134e-09 2.4065e-09 0)
(-3.67802e-09 5.27451e-09 0)
(-1.66345e-09 5.5736e-09 0)
(-5.55229e-10 4.85338e-09 0)
(4.16928e-11 2.99498e-09 0)
(5.6256e-10 7.51834e-10 0)
(5.1858e-10 1.58587e-09 0)
(-9.88012e-10 2.83846e-09 0)
(-1.24345e-09 4.5678e-09 0)
(1.86178e-09 6.82654e-09 0)
(5.81107e-09 6.86446e-09 0)
(6.94999e-09 6.83063e-09 0)
(2.82331e-09 8.03518e-09 0)
(-4.39988e-09 4.21465e-09 0)
(5.61758e-10 -8.83152e-10 0)
(1.545e-09 -1.23967e-10 0)
(4.67512e-10 1.74014e-09 0)
(7.1724e-10 8.09323e-10 0)
(2.10855e-09 -1.21016e-09 0)
(1.66634e-09 -1.90469e-09 0)
(-1.98993e-09 -2.95215e-12 0)
(-3.88102e-09 1.6351e-09 0)
(-2.72147e-09 2.45196e-09 0)
(-5.06752e-10 2.42722e-09 0)
(-1.30294e-10 3.05924e-09 0)
(3.10779e-11 1.95296e-09 0)
(1.95645e-09 2.01051e-09 0)
(1.82107e-09 2.55885e-09 0)
(2.64438e-09 3.29375e-09 0)
(4.36317e-09 4.13177e-09 0)
(5.03289e-09 3.68118e-09 0)
(4.2189e-09 2.80462e-09 0)
(-2.20905e-09 2.76868e-09 0)
(-1.09124e-08 1.50551e-09 0)
)
;

boundaryField
{
    sides
    {
        type            calculated;
        value           nonuniform List<vector> 
40
(
(5.61758e-10 0 0)
(1.545e-09 0 0)
(4.67512e-10 0 0)
(7.1724e-10 0 0)
(2.10855e-09 0 0)
(1.66634e-09 0 0)
(-1.98993e-09 0 0)
(-3.88102e-09 0 0)
(-2.72147e-09 0 0)
(-5.06752e-10 0 0)
(-1.30294e-10 0 0)
(3.10779e-11 0 0)
(1.95645e-09 0 0)
(1.82107e-09 0 0)
(2.64438e-09 0 0)
(4.36317e-09 0 0)
(5.03289e-09 0 0)
(4.2189e-09 0 0)
(-2.20905e-09 0 0)
(-1.09124e-08 0 0)
(2.77496e-09 0 0)
(2.33403e-09 0 0)
(1.50469e-09 0 0)
(1.22681e-10 0 0)
(-9.40849e-10 0 0)
(-1.30238e-09 0 0)
(-1.66456e-09 0 0)
(-2.31929e-09 0 0)
(-1.08264e-09 0 0)
(-1.7493e-09 0 0)
(3.33596e-10 0 0)
(5.8988e-10 0 0)
(2.79829e-09 0 0)
(3.22741e-09 0 0)
(2.01422e-09 0 0)
(9.68701e-10 0 0)
(-2.54219e-09 0 0)
(-1.71384e-09 0 0)
(1.3832e-09 0 0)
(-3.21842e-10 0 0)
)
;
    }
    inlet
    {
        type            calculated;
        value           uniform (0 0 0);
    }
    outlet
    {
        type            calculated;
        value           nonuniform List<vector> 
20
(
(-3.21842e-10 -4.38929e-10 0)
(7.43692e-10 -1.16093e-09 0)
(1.26993e-09 -1.32349e-09 0)
(1.71719e-09 -1.95844e-09 0)
(4.91919e-09 -2.03931e-09 0)
(4.20536e-09 6.61094e-12 0)
(1.60037e-10 1.99255e-09 0)
(-3.93304e-09 2.48428e-09 0)
(-6.3737e-09 1.40451e-09 0)
(-3.48542e-09 -4.68556e-10 0)
(-2.24734e-09 -1.31069e-09 0)
(-1.26453e-09 -7.10014e-10 0)
(-2.01595e-09 -4.81969e-10 0)
(-1.9992e-09 -1.52462e-09 0)
(1.21171e-09 -2.20691e-09 0)
(6.45674e-09 -8.32694e-10 0)
(8.71864e-09 2.21705e-09 0)
(4.84538e-09 4.68954e-09 0)
(-4.39988e-09 4.21465e-09 0)
(-1.09124e-08 1.50551e-09 0)
)
;
    }
    frontAndBack
    {
        type            empty;
    }
}


// ************************************************************************* //
