/*--------------------------------*- C++ -*----------------------------------*\
  =========                 |
  \\      /  F ield         | OpenFOAM: The Open Source CFD Toolbox
   \\    /   O peration     | Website:  https://openfoam.org
    \\  /    A nd           | Version:  9
     \\/     M anipulation  |
\*---------------------------------------------------------------------------*/
FoamFile
{
    format      ascii;
    class       surfaceScalarField;
    location    "79";
    object      ddtCorrDdt0(phi);
}
// * * * * * * * * * * * * * * * * * * * * * * * * * * * * * * * * * * * * * //

dimensions      [0 4 -2 0 0 0 0];

internalField   nonuniform List<scalar> 
760
(
1.88993e-11
1.75058e-11
1.02251e-11
-7.42649e-12
-1.00075e-12
-1.46244e-11
5.91824e-12
-2.65048e-12
-1.52321e-11
-1.83802e-11
6.18964e-13
-7.1845e-12
-1.68448e-11
-1.35493e-11
-1.21381e-12
3.19406e-12
-8.97666e-12
-1.41776e-11
-7.23604e-12
-1.08903e-11
-5.37372e-13
1.00688e-11
6.66413e-12
-1.15675e-11
2.28589e-11
4.12018e-12
1.30735e-11
-2.03575e-11
1.20988e-11
-1.54058e-11
-1.10536e-11
-5.31144e-12
-1.80283e-11
7.44906e-12
1.02595e-11
1.05691e-11
3.26026e-12
-1.99199e-12
-8.02921e-12
1.78942e-12
1.8808e-11
-5.11279e-13
-1.0042e-11
9.36801e-12
-1.47138e-11
-4.48629e-12
-1.16477e-11
-4.97243e-12
-1.51143e-11
-3.58699e-12
-7.75669e-12
-1.49773e-12
-2.75557e-12
-1.54151e-11
-1.88192e-11
-4.9784e-12
-1.33411e-11
-2.17775e-12
-3.24285e-11
-5.36976e-12
-8.63433e-12
1.69234e-11
1.06024e-11
3.47774e-12
-1.41656e-11
1.94081e-11
-1.79199e-11
1.95149e-11
-3.26381e-11
5.69808e-12
-2.79845e-11
-3.55152e-12
-4.02117e-12
-5.72787e-12
7.44739e-12
4.83345e-12
-5.91207e-12
-6.70289e-12
-1.90834e-11
1.7774e-12
-6.92616e-12
-7.42712e-12
9.59564e-12
-8.85144e-12
-1.06671e-11
-7.45777e-12
1.76527e-12
1.68201e-12
2.53191e-12
8.6027e-12
-8.08225e-12
-1.34136e-11
-5.55163e-12
-3.42435e-11
-1.87018e-11
-4.67242e-11
2.9788e-11
1.53436e-11
-1.82158e-11
-4.5444e-11
-8.97166e-12
6.55946e-11
-2.27543e-13
1.29635e-11
1.38814e-12
-4.44082e-12
2.05661e-11
-3.44894e-12
2.70296e-11
-2.06936e-11
1.23576e-11
-2.01454e-11
-1.03305e-11
-1.69519e-11
-6.71692e-13
-1.87281e-11
-7.4197e-12
-2.18067e-11
-1.64647e-11
-6.88132e-12
-1.30308e-11
7.29329e-12
2.85647e-12
-6.62193e-12
7.87781e-12
8.18086e-12
1.8174e-11
-6.02483e-12
7.16699e-12
-1.75489e-11
-3.92041e-11
-7.9647e-12
-2.42035e-11
2.02381e-11
-2.90606e-11
-4.47607e-11
7.4252e-11
8.09356e-11
9.8093e-11
-8.06923e-11
-1.86868e-11
-3.53775e-11
1.21786e-10
-9.66305e-12
5.20809e-11
-1.21262e-11
1.89629e-11
2.01564e-11
1.52669e-11
2.41585e-11
-6.39123e-12
-5.9974e-12
-2.50014e-11
4.81496e-13
-2.56252e-11
-9.63645e-12
-1.32439e-11
-2.33382e-11
6.1583e-12
-1.35771e-11
6.80407e-12
6.08377e-12
-5.73849e-13
1.50962e-11
6.86645e-12
1.73626e-11
-3.89905e-11
-2.05898e-11
5.63632e-12
-7.31267e-12
-3.4516e-11
-4.44361e-11
1.09411e-10
1.7287e-10
-7.71257e-11
-1.25079e-10
-2.82936e-11
1.38758e-10
8.12955e-11
-2.71986e-11
-1.23235e-10
-5.55962e-11
-7.252e-11
1.01682e-10
-2.70063e-11
7.69427e-11
-1.01145e-11
3.0387e-11
-7.83905e-13
9.06857e-12
-3.87468e-12
-1.00004e-11
1.60672e-11
-1.34031e-11
-3.86877e-12
2.57921e-13
-1.254e-11
2.26447e-11
-5.25465e-12
8.30101e-12
1.57406e-12
2.3441e-12
1.1335e-12
-2.20723e-11
-1.46311e-11
-2.19139e-11
-5.28501e-12
-3.89459e-11
-2.08712e-11
1.4729e-10
1.22173e-10
-1.47457e-10
-5.62353e-11
2.24553e-10
9.73748e-11
-2.13965e-10
-4.0421e-10
7.20541e-11
1.90681e-10
8.59139e-11
-8.77622e-11
-9.30909e-11
-1.05724e-10
-8.64308e-11
1.97954e-11
-4.06977e-11
4.1868e-11
-2.44636e-11
2.87182e-11
-1.26213e-11
1.77656e-11
1.10612e-11
1.45334e-11
7.62688e-12
1.14151e-11
5.84285e-12
2.96137e-11
7.30238e-12
6.06516e-12
-8.76216e-12
-1.45039e-11
-2.46256e-11
-1.35738e-11
-2.16079e-11
-4.59391e-11
-6.1456e-12
6.49804e-11
5.97496e-11
6.7992e-11
-2.77638e-11
-8.87165e-11
-3.04907e-11
-1.13145e-10
1.47018e-10
4.93726e-10
1.69962e-09
-1.45971e-10
-4.69735e-10
8.88713e-11
6.10065e-11
5.96454e-11
-3.39273e-11
-5.10495e-11
-7.03451e-11
-5.53062e-11
-1.57212e-11
-3.43662e-11
2.35023e-11
-1.71235e-11
2.80707e-11
-6.73937e-12
2.84807e-11
1.26827e-11
1.63931e-11
1.74039e-11
2.06646e-11
1.00562e-11
-8.4444e-12
-1.52423e-11
-1.61918e-11
-2.97744e-11
-9.96579e-12
-1.86204e-11
1.09422e-11
3.1836e-11
9.62377e-12
7.0167e-12
7.60889e-12
-1.08796e-11
2.73654e-10
-6.33294e-11
-2.25996e-09
-4.68272e-10
-3.58524e-10
1.35574e-08
3.53146e-10
6.37839e-10
-2.34515e-11
-1.48645e-10
6.47366e-12
-6.2344e-11
1.61117e-11
-8.72339e-11
-7.65929e-12
-3.56534e-11
-1.37122e-11
-1.29155e-11
-1.53963e-11
1.43992e-11
-2.25604e-11
1.60154e-11
7.6156e-12
1.2741e-11
1.28067e-11
3.89818e-12
4.97795e-12
-2.06644e-11
-1.65992e-11
-1.57175e-11
-1.24204e-11
2.65236e-11
3.06498e-12
1.29823e-11
4.72841e-12
-2.22407e-11
2.02993e-11
-1.73529e-11
-6.19247e-11
-3.07296e-10
-3.98258e-11
2.28974e-09
1.88553e-10
3.61737e-10
1.39207e-09
-3.62541e-10
-4.29644e-10
2.76046e-11
1.30891e-10
-2.874e-12
2.40752e-11
4.93201e-11
-3.40777e-11
6.7665e-11
5.94051e-12
4.35601e-11
-2.12652e-09
3.5468e-12
5.20914e-13
-2.35445e-11
-3.00388e-12
6.85239e-10
5.85843e-12
6.81615e-13
-1.30184e-11
-2.93678e-12
-2.06434e-11
-6.06878e-12
-3.279e-12
4.9579e-12
2.84544e-11
1.52442e-11
3.16544e-11
-1.00642e-11
-7.02275e-11
-2.9476e-11
-7.60783e-11
7.97324e-11
1.01316e-10
-1.99109e-11
1.76475e-11
-3.05619e-11
-4.7176e-10
-3.33804e-11
1.62271e-10
1.42975e-10
-1.12711e-10
-8.60223e-11
-2.81999e-11
-5.34914e-11
5.12351e-11
2.76546e-11
5.55499e-11
2.46055e-11
3.60356e-11
7.88126e-12
1.46096e-11
-1.26878e-11
-1.28392e-11
-1.60363e-11
-6.63993e-12
1.2007e-12
-8.52621e-12
-1.73767e-11
-2.52916e-12
-1.36771e-11
5.15344e-12
7.09314e-12
1.48875e-11
1.44462e-11
5.05178e-12
4.66166e-12
-4.98814e-12
9.10008e-12
-2.04487e-11
-1.08123e-10
4.43922e-12
5.19477e-11
1.25914e-10
1.62969e-10
1.15141e-10
-2.70669e-11
-1.47894e-09
-1.06345e-10
2.6737e-10
-7.09016e-11
-9.59273e-11
6.62166e-11
1.28216e-11
5.66977e-11
4.79952e-11
2.74229e-11
1.69794e-11
1.35526e-11
-5.98747e-12
5.33857e-12
-1.37247e-11
-5.47516e-12
-1.03432e-11
-4.58209e-12
4.02463e-12
-6.91962e-12
-1.35241e-11
9.30578e-13
-5.33793e-12
1.60401e-11
3.06494e-12
1.03821e-11
3.76621e-12
-1.22496e-12
3.00213e-12
-2.10876e-11
8.07997e-12
1.62608e-11
7.26544e-12
-2.54925e-11
-7.09911e-11
8.04389e-11
-1.13611e-09
-1.13881e-10
4.6948e-12
3.96325e-08
-3.33671e-10
-6.80405e-10
6.80685e-11
1.3932e-10
6.31504e-11
7.98575e-11
1.78018e-11
2.68226e-11
-2.47606e-12
9.0238e-12
-7.71578e-12
-2.94148e-12
-2.066e-12
-1.51792e-12
-2.87856e-12
8.3129e-14
-4.09124e-13
6.91179e-12
3.99936e-12
-2.38267e-12
2.16799e-12
-7.01304e-12
1.51474e-11
-2.74591e-12
1.27433e-11
-1.26673e-11
-1.32206e-11
2.61198e-11
-1.56916e-11
5.37019e-12
-1.7053e-11
1.58698e-11
2.28113e-11
-2.29315e-11
-3.901e-11
1.16077e-09
2.4594e-10
-1.80724e-10
-1.70837e-09
3.34781e-10
4.27372e-10
4.40925e-11
9.43858e-12
-5.19357e-12
-1.61834e-12
1.20173e-11
1.34922e-11
-6.96961e-12
9.39036e-12
-2.24758e-11
1.42441e-12
-8.74931e-12
-1.52632e-12
-7.39836e-12
-3.39721e-12
-3.40724e-12
7.44757e-13
1.27582e-11
5.58119e-12
5.15462e-13
-5.04174e-12
4.31953e-12
-1.8071e-11
1.21564e-11
-1.36661e-11
3.73437e-12
2.37165e-11
-2.23136e-11
3.72577e-11
-1.83388e-11
-8.40329e-13
-1.562e-11
3.3915e-11
2.65608e-11
-3.09402e-10
-1.01272e-10
3.56356e-10
3.46116e-10
-1.38799e-11
-5.77269e-11
8.128e-12
3.01207e-11
2.29307e-11
2.56716e-11
1.02725e-11
6.67179e-12
-1.47116e-11
-3.65292e-13
-3.21066e-11
-8.6258e-12
-1.71876e-11
-1.24095e-11
-9.86453e-12
-1.79901e-11
-1.10735e-11
-1.50638e-11
1.29816e-11
4.62726e-12
1.56726e-12
3.7618e-12
-9.54243e-12
-1.85788e-11
5.40123e-12
-3.34314e-11
1.98142e-11
2.29787e-11
1.60142e-11
3.69025e-11
-2.72825e-11
1.29345e-11
-1.50779e-11
-1.37374e-11
-3.64084e-11
3.47669e-11
1.4702e-11
-8.73469e-12
3.14094e-10
2.75231e-11
3.55129e-11
4.06456e-12
2.8286e-12
2.23768e-12
-1.9654e-12
3.04303e-12
3.88091e-13
-2.26549e-11
-1.83994e-11
-4.23111e-11
-3.18004e-11
-2.7496e-11
-2.52462e-11
-5.73041e-13
-2.12955e-11
-1.1582e-11
-2.82924e-11
2.87841e-12
-7.60377e-12
1.06145e-11
1.81981e-11
-1.0455e-11
-4.32985e-12
-1.10495e-11
-3.20374e-11
1.78703e-11
-1.43776e-11
4.30532e-11
4.28932e-11
1.95368e-11
-2.04775e-12
-2.956e-11
1.47494e-11
-2.64617e-11
-1.06977e-11
-4.66281e-11
-1.10648e-11
-5.91412e-11
-2.07266e-12
-2.37627e-11
-1.37093e-11
-2.41213e-11
-7.7441e-13
-7.72606e-12
-2.16945e-11
-2.17268e-11
-4.06153e-11
-4.59707e-11
-3.89242e-11
-4.32596e-11
-1.94485e-11
-1.47678e-11
2.16491e-11
1.72972e-12
8.01503e-13
-2.30486e-11
-1.02521e-11
-2.31203e-11
1.28356e-11
2.20463e-11
9.7643e-12
1.9797e-11
-1.54076e-11
-1.33155e-11
-6.56825e-12
-3.31566e-11
3.01282e-11
3.12349e-12
5.15031e-11
6.65677e-12
1.95589e-11
-3.57929e-12
-4.89016e-12
-1.65062e-12
-1.83679e-11
9.18913e-13
-1.68778e-11
-1.98491e-11
-4.41129e-11
-1.07737e-11
-3.20611e-11
-2.5446e-11
-2.53547e-11
-5.35969e-11
-3.34322e-11
-3.43145e-11
-3.20947e-11
-5.47044e-12
-1.71834e-11
5.56138e-12
1.25496e-11
3.47109e-11
3.52389e-11
1.90551e-11
-4.83584e-12
-1.49852e-11
-2.20992e-11
6.79675e-12
8.15105e-12
2.52752e-11
3.0244e-11
-2.57666e-13
1.16381e-11
-2.44905e-11
-2.31042e-11
-8.93099e-12
-2.50898e-11
2.95526e-11
-3.47327e-12
4.25907e-11
2.91699e-12
3.27512e-11
7.87698e-12
1.64207e-11
-3.29358e-12
4.51098e-12
-1.13957e-11
-1.49158e-11
-1.15332e-11
-7.60954e-12
-3.42372e-11
-2.14436e-12
-4.14573e-11
5.89653e-12
-5.27761e-12
2.02235e-11
2.99662e-11
2.69764e-11
3.0679e-11
3.9112e-11
2.61645e-11
5.49656e-11
2.86415e-11
1.0427e-11
-9.638e-12
-5.62345e-12
1.48111e-12
-5.98276e-12
2.07291e-11
1.6885e-11
6.63479e-12
2.10649e-11
-1.70662e-11
-4.32898e-12
-2.24824e-11
-2.7433e-11
3.16091e-12
-1.30896e-11
2.36109e-11
1.4075e-12
3.12118e-11
-6.53464e-12
2.83337e-11
-2.7268e-12
1.18454e-11
5.74764e-12
1.27343e-11
6.34629e-12
1.57118e-11
-7.53711e-12
2.08444e-11
-5.92486e-12
2.7516e-11
1.60499e-11
3.67284e-11
4.00428e-11
3.48062e-11
3.43927e-11
3.19557e-11
-8.06225e-12
3.7037e-11
1.85886e-11
1.51618e-11
9.65736e-12
-1.21234e-11
4.90292e-12
1.80038e-11
7.81155e-12
-2.42619e-11
-1.64869e-11
-4.52421e-12
-1.346e-12
-1.23888e-11
9.75884e-12
1.82699e-11
9.84642e-12
1.30266e-11
1.7664e-11
2.72009e-11
2.19306e-11
-3.40629e-11
)
;

boundaryField
{
    sides
    {
        type            calculated;
        value           uniform 0;
    }
    inlet
    {
        type            calculated;
        value           uniform 0;
    }
    outlet
    {
        type            calculated;
        value           nonuniform List<scalar> 
20
(
-9.08463e-12
3.84925e-12
1.64791e-11
2.06074e-11
3.53702e-11
2.75159e-11
6.36995e-13
-2.41012e-11
-3.94686e-11
-2.28772e-11
-1.48635e-11
-9.94041e-12
-1.54909e-11
-1.39318e-11
1.02926e-11
4.6264e-11
6.10131e-11
3.06601e-11
-3.47352e-11
-8.13373e-11
)
;
    }
    frontAndBack
    {
        type            empty;
        value           nonuniform List<scalar> 0();
    }
}


// ************************************************************************* //
