/*--------------------------------*- C++ -*----------------------------------*\
  =========                 |
  \\      /  F ield         | OpenFOAM: The Open Source CFD Toolbox
   \\    /   O peration     | Website:  https://openfoam.org
    \\  /    A nd           | Version:  9
     \\/     M anipulation  |
\*---------------------------------------------------------------------------*/
FoamFile
{
    format      ascii;
    class       volVectorField;
    location    "79";
    object      hU_0;
}
// * * * * * * * * * * * * * * * * * * * * * * * * * * * * * * * * * * * * * //

dimensions      [0 2 -1 0 0 0 0];

internalField   nonuniform List<vector> 
400
(
(0.001 -2.46214e-08 0)
(0.00100004 -7.06856e-08 0)
(0.00100012 -1.13213e-07 0)
(0.00100024 -1.52194e-07 0)
(0.00100039 -1.87061e-07 0)
(0.00100058 -2.16654e-07 0)
(0.00100078 -2.36881e-07 0)
(0.00100099 -2.4524e-07 0)
(0.00100118 -2.36232e-07 0)
(0.00100133 -2.11313e-07 0)
(0.0010014 -1.69012e-07 0)
(0.0010014 -1.28935e-07 0)
(0.00100129 -9.93447e-08 0)
(0.00100111 -9.32205e-08 0)
(0.00100087 -9.97628e-08 0)
(0.00100065 -1.35812e-07 0)
(0.00100044 -1.56689e-07 0)
(0.00100034 -2.01011e-07 0)
(0.00100026 -1.88488e-07 0)
(0.00100033 -2.68358e-07 0)
(0.001 -2.72945e-08 0)
(0.00100005 -7.91724e-08 0)
(0.00100013 -1.28328e-07 0)
(0.00100026 -1.73715e-07 0)
(0.00100042 -2.12929e-07 0)
(0.00100062 -2.40199e-07 0)
(0.00100084 -2.45807e-07 0)
(0.00100108 -2.20122e-07 0)
(0.0010013 -1.54442e-07 0)
(0.00100147 -4.80771e-08 0)
(0.00100156 9.27757e-08 0)
(0.00100154 2.46223e-07 0)
(0.00100141 3.88595e-07 0)
(0.00100119 4.76194e-07 0)
(0.00100093 5.04746e-07 0)
(0.00100067 4.5145e-07 0)
(0.00100048 3.77986e-07 0)
(0.00100036 2.56887e-07 0)
(0.00100033 2.05503e-07 0)
(0.00100029 8.13384e-08 0)
(0.001 -5.30089e-08 0)
(0.00100004 -1.59607e-07 0)
(0.00100013 -2.67057e-07 0)
(0.00100026 -3.73423e-07 0)
(0.00100043 -4.73283e-07 0)
(0.00100065 -5.55459e-07 0)
(0.0010009 -6.03439e-07 0)
(0.00100117 -5.97521e-07 0)
(0.00100143 -5.17964e-07 0)
(0.00100164 -3.52576e-07 0)
(0.00100176 -1.10861e-07 0)
(0.00100176 1.60952e-07 0)
(0.00100159 4.00269e-07 0)
(0.00100131 5.19196e-07 0)
(0.00100095 4.98917e-07 0)
(0.00100062 3.53318e-07 0)
(0.00100037 2.02541e-07 0)
(0.00100026 4.54589e-08 0)
(0.00100022 -3.42826e-09 0)
(0.0010003 -1.17023e-07 0)
(0.001 -7.39421e-08 0)
(0.00100004 -2.23099e-07 0)
(0.00100013 -3.75222e-07 0)
(0.00100026 -5.30272e-07 0)
(0.00100045 -6.80412e-07 0)
(0.00100069 -8.09849e-07 0)
(0.001001 -8.8923e-07 0)
(0.00100134 -8.86001e-07 0)
(0.00100171 -7.56281e-07 0)
(0.00100203 -4.75281e-07 0)
(0.00100222 -2.42909e-08 0)
(0.00100219 4.92338e-07 0)
(0.00100192 9.35765e-07 0)
(0.00100146 1.13858e-06 0)
(0.00100097 1.05408e-06 0)
(0.00100058 7.42572e-07 0)
(0.00100041 4.23139e-07 0)
(0.00100035 1.6923e-07 0)
(0.0010004 1.0164e-07 0)
(0.00100035 5.0387e-10 0)
(0.001 -9.11992e-08 0)
(0.00100004 -2.78755e-07 0)
(0.00100012 -4.77438e-07 0)
(0.00100025 -6.9384e-07 0)
(0.00100045 -9.20526e-07 0)
(0.00100072 -1.13939e-06 0)
(0.0010011 -1.29979e-06 0)
(0.00100155 -1.33838e-06 0)
(0.00100207 -1.17594e-06 0)
(0.00100257 -7.77292e-07 0)
(0.0010029 -1.69994e-07 0)
(0.00100288 5.79141e-07 0)
(0.00100244 1.23206e-06 0)
(0.00100167 1.512e-06 0)
(0.00100086 1.37528e-06 0)
(0.00100031 9.64586e-07 0)
(0.00100013 5.80762e-07 0)
(0.00100022 3.13161e-07 0)
(0.00100037 2.61419e-07 0)
(0.00100043 1.67942e-07 0)
(0.001 -1.03369e-07 0)
(0.00100003 -3.18971e-07 0)
(0.00100009 -5.62357e-07 0)
(0.00100019 -8.44498e-07 0)
(0.00100038 -1.17286e-06 0)
(0.00100068 -1.52608e-06 0)
(0.00100115 -1.86092e-06 0)
(0.00100179 -2.05562e-06 0)
(0.00100254 -1.91039e-06 0)
(0.00100326 -1.19863e-06 0)
(0.00100377 8.78554e-08 0)
(0.00100378 1.5445e-06 0)
(0.00100309 2.4357e-06 0)
(0.00100192 2.30702e-06 0)
(0.00100082 1.43153e-06 0)
(0.00100019 4.93079e-07 0)
(0.00100017 1.28851e-08 0)
(0.00100037 -8.66266e-08 0)
(0.00100064 5.92019e-08 0)
(0.00100055 4.98454e-08 0)
(0.001 -1.0255e-07 0)
(0.001 -3.33548e-07 0)
(0.00100002 -6.01711e-07 0)
(0.00100008 -9.61832e-07 0)
(0.00100021 -1.39315e-06 0)
(0.00100048 -1.94817e-06 0)
(0.001001 -2.4911e-06 0)
(0.00100188 -3.08447e-06 0)
(0.00100321 -3.2326e-06 0)
(0.00100473 -2.8778e-06 0)
(0.00100574 -6.69851e-07 0)
(0.00100535 2.55929e-06 0)
(0.0010035 4.8282e-06 0)
(0.00100112 4.73747e-06 0)
(0.000999607 3.03004e-06 0)
(0.000999371 1.26522e-06 0)
(0.00100001 4.31272e-07 0)
(0.00100056 3.25951e-07 0)
(0.00100093 5.6163e-07 0)
(0.00100066 5.34117e-07 0)
(0.000999996 -9.24854e-08 0)
(0.000999968 -2.88501e-07 0)
(0.000999908 -5.76534e-07 0)
(0.000999876 -9.56826e-07 0)
(0.000999879 -1.57872e-06 0)
(0.0010001 -2.34686e-06 0)
(0.0010005 -3.40342e-06 0)
(0.00100153 -4.12362e-06 0)
(0.00100308 -4.37279e-06 0)
(0.00100601 -2.55203e-06 0)
(0.00100911 7.51032e-07 0)
(0.00100915 4.26021e-06 0)
(0.0010055 4.71573e-06 0)
(0.00100074 2.78065e-06 0)
(0.00099815 7.35446e-07 0)
(0.000998274 -2.73485e-07 0)
(0.000999798 -2.85035e-07 0)
(0.00100087 -9.42767e-09 0)
(0.00100133 2.12396e-07 0)
(0.00100085 1.03278e-07 0)
(0.000999995 -4.90856e-08 0)
(0.000999915 -2.03442e-07 0)
(0.000999756 -3.8618e-07 0)
(0.000999531 -7.35299e-07 0)
(0.000999288 -1.33966e-06 0)
(0.000999211 -2.48272e-06 0)
(0.000999708 -4.6877e-06 0)
(0.00100139 -8.06732e-06 0)
(0.00100491 -1.32858e-05 0)
(0.00100958 -1.49158e-05 0)
(0.00101188 3.83761e-06 0)
(0.00100893 1.87221e-05 0)
(0.00100222 1.57777e-05 0)
(0.000997569 5.73945e-06 0)
(0.000996888 -3.17198e-07 0)
(0.000998462 -1.26332e-06 0)
(0.00100027 -9.37404e-08 0)
(0.001001 6.35106e-07 0)
(0.00100107 6.52507e-07 0)
(0.00100054 2.44272e-07 0)
(0.000999804 -1.95846e-08 0)
(0.00100017 -6.63861e-08 0)
(0.000999216 -1.51404e-07 0)
(0.000999904 -2.49191e-07 0)
(0.000997521 -5.92845e-07 0)
(0.000998844 -1.13181e-06 0)
(0.000993348 -2.88395e-06 0)
(0.000997531 -5.59269e-06 0)
(0.000991667 -1.1542e-05 0)
(0.000915831 -1.27047e-05 0)
(0.000951465 2.7328e-07 0)
(0.00101023 1.46418e-05 0)
(0.000990952 1.3084e-05 0)
(0.000983977 5.14086e-06 0)
(0.000989589 1.93977e-07 0)
(0.000996283 -7.82062e-07 0)
(0.000999237 -1.11914e-07 0)
(0.000999412 2.48078e-07 0)
(0.000998647 1.74472e-07 0)
(0.000998505 -1.84574e-07 0)
(0.000999804 1.3274e-08 0)
(0.00100017 4.59712e-08 0)
(0.000999215 1.1713e-07 0)
(0.000999903 1.99513e-07 0)
(0.000997519 5.29289e-07 0)
(0.000998839 1.05151e-06 0)
(0.00099334 2.78604e-06 0)
(0.00099752 5.47263e-06 0)
(0.000991651 1.1398e-05 0)
(0.00091581 1.25481e-05 0)
(0.000951429 -4.68049e-07 0)
(0.0010102 -1.49062e-05 0)
(0.000990948 -1.34068e-05 0)
(0.000983969 -5.53387e-06 0)
(0.000989569 -6.47755e-07 0)
(0.000996244 2.47566e-07 0)
(0.000999196 -4.73461e-07 0)
(0.000999367 -1.0031e-06 0)
(0.000998633 -9.88985e-07 0)
(0.000998455 -8.8863e-07 0)
(0.000999995 4.2773e-08 0)
(0.000999915 1.83691e-07 0)
(0.000999755 3.52943e-07 0)
(0.000999531 6.87059e-07 0)
(0.000999286 1.27682e-06 0)
(0.000999211 2.40188e-06 0)
(0.000999703 4.58886e-06 0)
(0.00100139 7.94203e-06 0)
(0.0010049 1.31313e-05 0)
(0.00100958 1.47208e-05 0)
(0.0010119 -4.06692e-06 0)
(0.0010089 -1.90022e-05 0)
(0.00100214 -1.60928e-05 0)
(0.000997479 -6.12165e-06 0)
(0.000996815 -8.42837e-08 0)
(0.000998401 7.74505e-07 0)
(0.00100017 -4.28337e-07 0)
(0.00100085 -1.30585e-06 0)
(0.00100088 -1.37987e-06 0)
(0.00100037 -1.25093e-06 0)
(0.000999996 8.6305e-08 0)
(0.000999967 2.69719e-07 0)
(0.000999906 5.44307e-07 0)
(0.000999872 9.10119e-07 0)
(0.000999871 1.51412e-06 0)
(0.00100008 2.26209e-06 0)
(0.00100048 3.29389e-06 0)
(0.00100149 3.99089e-06 0)
(0.00100303 4.21078e-06 0)
(0.00100594 2.36616e-06 0)
(0.00100901 -9.79978e-07 0)
(0.00100907 -4.53649e-06 0)
(0.00100543 -5.01811e-06 0)
(0.00100066 -3.12911e-06 0)
(0.000998057 -1.1318e-06 0)
(0.000998134 -2.52557e-07 0)
(0.000999622 -3.23592e-07 0)
(0.00100064 -7.418e-07 0)
(0.00100106 -9.67551e-07 0)
(0.00100055 -1.0741e-06 0)
(0.001 9.6695e-08 0)
(0.001 3.15421e-07 0)
(0.00100002 5.71056e-07 0)
(0.00100007 9.17252e-07 0)
(0.0010002 1.33395e-06 0)
(0.00100046 1.87165e-06 0)
(0.00100097 2.39943e-06 0)
(0.00100185 2.9753e-06 0)
(0.00100318 3.11141e-06 0)
(0.00100469 2.73049e-06 0)
(0.00100568 5.10355e-07 0)
(0.00100527 -2.75294e-06 0)
(0.00100338 -5.07708e-06 0)
(0.00100096 -5.07063e-06 0)
(0.000999409 -3.45024e-06 0)
(0.000999121 -1.7953e-06 0)
(0.000999744 -1.02148e-06 0)
(0.00100025 -1.05882e-06 0)
(0.00100062 -1.30697e-06 0)
(0.00100024 -1.51558e-06 0)
(0.001 9.79975e-08 0)
(0.00100003 3.02701e-07 0)
(0.00100008 5.35002e-07 0)
(0.00100019 8.05021e-07 0)
(0.00100037 1.12128e-06 0)
(0.00100066 1.45996e-06 0)
(0.00100112 1.7792e-06 0)
(0.00100174 1.95152e-06 0)
(0.00100248 1.78234e-06 0)
(0.00100317 1.0342e-06 0)
(0.00100366 -2.80143e-07 0)
(0.00100363 -1.7821e-06 0)
(0.00100292 -2.71041e-06 0)
(0.00100171 -2.63237e-06 0)
(0.00100058 -1.78011e-06 0)
(0.000999904 -8.96497e-07 0)
(0.000999859 -4.27291e-07 0)
(0.000999983 -4.47057e-07 0)
(0.00100022 -6.15672e-07 0)
(0.00100001 -8.48369e-07 0)
(0.001 8.61897e-08 0)
(0.00100004 2.64635e-07 0)
(0.00100011 4.54065e-07 0)
(0.00100024 6.6059e-07 0)
(0.00100043 8.76788e-07 0)
(0.0010007 1.08443e-06 0)
(0.00100106 1.23103e-06 0)
(0.0010015 1.25372e-06 0)
(0.001002 1.07386e-06 0)
(0.00100248 6.56288e-07 0)
(0.0010028 1.71574e-08 0)
(0.00100275 -7.70689e-07 0)
(0.00100227 -1.45047e-06 0)
(0.00100146 -1.77528e-06 0)
(0.00100062 -1.66928e-06 0)
(0.00100001 -1.34887e-06 0)
(0.000999795 -1.02892e-06 0)
(0.000999768 -9.35697e-07 0)
(0.000999887 -9.44364e-07 0)
(0.000999768 -1.10814e-06 0)
(0.001 6.94293e-08 0)
(0.00100004 2.10334e-07 0)
(0.00100012 3.54358e-07 0)
(0.00100025 5.00723e-07 0)
(0.00100043 6.4283e-07 0)
(0.00100066 7.64934e-07 0)
(0.00100096 8.3797e-07 0)
(0.00100129 8.26702e-07 0)
(0.00100163 6.91811e-07 0)
(0.00100191 4.06692e-07 0)
(0.00100206 -4.61848e-08 0)
(0.001002 -5.75604e-07 0)
(0.00100171 -1.03554e-06 0)
(0.0010012 -1.28193e-06 0)
(0.00100065 -1.23008e-06 0)
(0.00100016 -9.94021e-07 0)
(0.000999917 -7.00926e-07 0)
(0.000999743 -5.55655e-07 0)
(0.000999754 -4.86706e-07 0)
(0.000999561 -5.98203e-07 0)
(0.001 5.0702e-08 0)
(0.00100004 1.50314e-07 0)
(0.00100012 2.4712e-07 0)
(0.00100025 3.38616e-07 0)
(0.00100041 4.20615e-07 0)
(0.00100062 4.82076e-07 0)
(0.00100086 5.0796e-07 0)
(0.00100112 4.73341e-07 0)
(0.00100137 3.61727e-07 0)
(0.00100157 1.5664e-07 0)
(0.00100167 -1.15322e-07 0)
(0.00100161 -4.19741e-07 0)
(0.00100139 -6.80692e-07 0)
(0.00100104 -8.41899e-07 0)
(0.00100064 -8.49527e-07 0)
(0.00100022 -7.69663e-07 0)
(0.000999952 -6.36849e-07 0)
(0.000999691 -5.96272e-07 0)
(0.000999629 -5.61803e-07 0)
(0.000999388 -6.8502e-07 0)
(0.001 3.4902e-08 0)
(0.00100004 1.04943e-07 0)
(0.00100011 1.74688e-07 0)
(0.00100023 2.41837e-07 0)
(0.00100038 3.01748e-07 0)
(0.00100056 3.48731e-07 0)
(0.00100077 3.74214e-07 0)
(0.00100097 3.68133e-07 0)
(0.00100116 3.19618e-07 0)
(0.0010013 2.24417e-07 0)
(0.00100136 8.68194e-08 0)
(0.00100131 -6.95539e-08 0)
(0.00100115 -2.05223e-07 0)
(0.00100086 -2.964e-07 0)
(0.00100054 -3.11246e-07 0)
(0.00100017 -2.80734e-07 0)
(0.000999902 -2.0209e-07 0)
(0.000999614 -1.69024e-07 0)
(0.000999518 -1.19572e-07 0)
(0.00099925 -1.98908e-07 0)
(0.001 -3.97212e-09 0)
(0.00100004 -9.84935e-09 0)
(0.00100012 -1.28961e-08 0)
(0.00100024 -1.46779e-08 0)
(0.00100038 -1.72213e-08 0)
(0.00100056 -2.32686e-08 0)
(0.00100075 -3.43112e-08 0)
(0.00100094 -5.38594e-08 0)
(0.00100112 -8.20342e-08 0)
(0.00100123 -1.22225e-07 0)
(0.00100128 -1.69813e-07 0)
(0.00100122 -2.31106e-07 0)
(0.00100107 -2.90197e-07 0)
(0.00100081 -3.40865e-07 0)
(0.00100053 -3.59172e-07 0)
(0.00100018 -3.67557e-07 0)
(0.000999946 -3.42248e-07 0)
(0.000999609 -3.5313e-07 0)
(0.000999522 -3.28455e-07 0)
(0.000999132 -4.10881e-07 0)
)
;

boundaryField
{
    sides
    {
        type            slip;
    }
    inlet
    {
        type            fixedValue;
        value           uniform (0.001 0 0);
    }
    outlet
    {
        type            zeroGradient;
    }
    frontAndBack
    {
        type            empty;
    }
}


// ************************************************************************* //
