/*--------------------------------*- C++ -*----------------------------------*\
  =========                 |
  \\      /  F ield         | OpenFOAM: The Open Source CFD Toolbox
   \\    /   O peration     | Website:  https://openfoam.org
    \\  /    A nd           | Version:  9
     \\/     M anipulation  |
\*---------------------------------------------------------------------------*/
FoamFile
{
    format      ascii;
    class       volVectorField;
    location    "79";
    object      U;
}
// * * * * * * * * * * * * * * * * * * * * * * * * * * * * * * * * * * * * * //

dimensions      [0 1 -1 0 0 0 0];

internalField   nonuniform List<vector> 
400
(
(0.0999964 -2.4423e-06 0)
(0.100001 -7.07475e-06 0)
(0.10001 -1.13322e-05 0)
(0.100023 -1.52265e-05 0)
(0.10004 -1.87216e-05 0)
(0.100061 -2.16734e-05 0)
(0.100084 -2.37004e-05 0)
(0.100107 -2.45323e-05 0)
(0.100128 -2.3639e-05 0)
(0.100144 -2.11475e-05 0)
(0.100153 -1.69007e-05 0)
(0.100152 -1.2897e-05 0)
(0.10014 -9.93229e-06 0)
(0.10012 -9.33828e-06 0)
(0.100093 -9.99409e-06 0)
(0.100068 -1.35864e-05 0)
(0.100045 -1.566e-05 0)
(0.100034 -2.00899e-05 0)
(0.100025 -1.88529e-05 0)
(0.100033 -2.68408e-05 0)
(0.099997 -2.69308e-06 0)
(0.100002 -7.92963e-06 0)
(0.100011 -1.2854e-05 0)
(0.100025 -1.73914e-05 0)
(0.100044 -2.13214e-05 0)
(0.100066 -2.40344e-05 0)
(0.100091 -2.46012e-05 0)
(0.100117 -2.20451e-05 0)
(0.100141 -1.54807e-05 0)
(0.100161 -4.83739e-06 0)
(0.100171 9.28845e-06 0)
(0.100169 2.46477e-05 0)
(0.100154 3.88613e-05 0)
(0.100129 4.75948e-05 0)
(0.1001 5.04366e-05 0)
(0.100071 4.51196e-05 0)
(0.100051 3.78025e-05 0)
(0.100037 2.57025e-05 0)
(0.100033 2.05387e-05 0)
(0.100029 8.12171e-06 0)
(0.0999969 -5.28283e-06 0)
(0.100002 -1.59721e-05 0)
(0.100011 -2.67242e-05 0)
(0.100025 -3.73606e-05 0)
(0.100044 -4.73397e-05 0)
(0.100069 -5.55495e-05 0)
(0.100097 -6.03817e-05 0)
(0.100127 -5.98139e-05 0)
(0.100156 -5.18691e-05 0)
(0.10018 -3.52492e-05 0)
(0.100193 -1.10985e-05 0)
(0.100192 1.61704e-05 0)
(0.100174 4.00711e-05 0)
(0.100142 5.19196e-05 0)
(0.100102 4.98763e-05 0)
(0.100066 3.5302e-05 0)
(0.100038 2.02345e-05 0)
(0.100026 4.53807e-06 0)
(0.100021 -3.59824e-07 0)
(0.100029 -1.17147e-05 0)
(0.0999963 -7.40671e-06 0)
(0.100001 -2.23232e-05 0)
(0.10001 -3.75275e-05 0)
(0.100025 -5.30267e-05 0)
(0.100046 -6.80244e-05 0)
(0.100073 -8.09903e-05 0)
(0.100107 -8.89862e-05 0)
(0.100146 -8.8671e-05 0)
(0.100186 -7.56619e-05 0)
(0.100222 -4.74872e-05 0)
(0.100243 -2.32859e-06 0)
(0.10024 4.92677e-05 0)
(0.100211 9.37211e-05 0)
(0.100159 0.00011396 0)
(0.100104 0.00010545 0)
(0.100061 7.4267e-05 0)
(0.100042 4.22961e-05 0)
(0.100035 1.68819e-05 0)
(0.10004 1.01211e-05 0)
(0.100035 3.3411e-08 0)
(0.0999953 -9.15395e-06 0)
(0.0999995 -2.78915e-05 0)
(0.100008 -4.77338e-05 0)
(0.100023 -6.93646e-05 0)
(0.100045 -9.20309e-05 0)
(0.100076 -0.000113966 0)
(0.100117 -0.000130031 0)
(0.100168 -0.000133883 0)
(0.100225 -0.000117474 0)
(0.100281 -7.77869e-05 0)
(0.100318 -1.68433e-05 0)
(0.100316 5.7944e-05 0)
(0.100267 0.00012323 0)
(0.100181 0.000151342 0)
(0.100091 0.000137635 0)
(0.100029 9.65106e-05 0)
(0.10001 5.80837e-05 0)
(0.100019 3.12824e-05 0)
(0.100036 2.61044e-05 0)
(0.100043 1.6782e-05 0)
(0.0999939 -1.03673e-05 0)
(0.0999968 -3.19085e-05 0)
(0.100003 -5.62268e-05 0)
(0.100016 -8.44386e-05 0)
(0.100036 -0.000117289 0)
(0.10007 -0.000152629 0)
(0.100122 -0.000186111 0)
(0.100193 -0.00020549 0)
(0.100277 -0.000191028 0)
(0.100357 -0.000119841 0)
(0.100414 8.46096e-06 0)
(0.100415 0.000154538 0)
(0.100339 0.000243532 0)
(0.100208 0.00023069 0)
(0.100084 0.000143218 0)
(0.100015 4.93718e-05 0)
(0.100013 1.32828e-06 0)
(0.100035 -8.64454e-06 0)
(0.100065 5.93562e-06 0)
(0.100056 4.99405e-06 0)
(0.0999923 -1.02588e-05 0)
(0.0999928 -3.33529e-05 0)
(0.099995 -6.01802e-05 0)
(0.100001 -9.62046e-05 0)
(0.100016 -0.000139335 0)
(0.100046 -0.000194804 0)
(0.100103 -0.000249064 0)
(0.100202 -0.000308428 0)
(0.10035 -0.000323408 0)
(0.100519 -0.000287838 0)
(0.100632 -6.73662e-05 0)
(0.100591 0.000255763 0)
(0.100383 0.000482972 0)
(0.100118 0.000473669 0)
(0.0999478 0.000302895 0)
(0.0999218 0.000126508 0)
(0.0999926 4.31624e-05 0)
(0.100056 3.26419e-05 0)
(0.100095 5.62076e-05 0)
(0.100067 5.34335e-05 0)
(0.0999905 -9.22524e-06 0)
(0.0999874 -2.88385e-05 0)
(0.0999807 -5.76796e-05 0)
(0.099977 -9.57226e-05 0)
(0.0999774 -0.000157879 0)
(0.100001 -0.000234627 0)
(0.100047 -0.000340267 0)
(0.10016 -0.00041247 0)
(0.100335 -0.000437492 0)
(0.100659 -0.000255496 0)
(0.101006 7.56042e-05 0)
(0.101014 0.000426629 0)
(0.100606 0.000471774 0)
(0.100072 0.000277987 0)
(0.099782 7.3384e-05 0)
(0.0997969 -2.74295e-05 0)
(0.0999672 -2.85127e-05 0)
(0.100089 -9.13929e-07 0)
(0.100138 2.12727e-05 0)
(0.100087 1.03448e-05 0)
(0.0999895 -4.87985e-06 0)
(0.0999806 -2.03357e-05 0)
(0.0999628 -3.86478e-05 0)
(0.0999377 -7.35539e-05 0)
(0.0999106 -0.000133945 0)
(0.099902 -0.000248185 0)
(0.0999569 -0.000468683 0)
(0.100145 -0.000806863 0)
(0.100536 -0.00132929 0)
(0.101062 -0.00149324 0)
(0.101323 0.000384764 0)
(0.100996 0.00187433 0)
(0.100241 0.00157806 0)
(0.0997202 0.000573674 0)
(0.0996447 -3.17842e-05 0)
(0.0998222 -0.000126368 0)
(0.100024 -9.40067e-06 0)
(0.100107 6.35157e-05 0)
(0.100113 6.5258e-05 0)
(0.100055 2.44297e-05 0)
(0.0999703 -1.94655e-06 0)
(0.100006 -6.64003e-06 0)
(0.0999077 -1.51576e-05 0)
(0.0999716 -2.49151e-05 0)
(0.0997259 -5.92548e-05 0)
(0.0998442 -0.000113139 0)
(0.0992767 -0.000288232 0)
(0.0996751 -0.000558827 0)
(0.0991181 -0.00115368 0)
(0.102003 -0.00141498 0)
(0.106281 3.03424e-05 0)
(0.101267 0.00146753 0)
(0.0990079 0.00130729 0)
(0.0982226 0.000513119 0)
(0.0988556 1.93772e-05 0)
(0.0996054 -7.81581e-05 0)
(0.0999353 -1.11783e-05 0)
(0.0999522 2.48061e-05 0)
(0.0998669 1.74291e-05 0)
(0.099849 -1.84672e-05 0)
(0.099971 1.31885e-06 0)
(0.100006 4.5926e-06 0)
(0.0999083 1.17173e-05 0)
(0.0999722 1.99701e-05 0)
(0.0997263 5.29271e-05 0)
(0.0998443 0.000105082 0)
(0.0992765 0.000278415 0)
(0.0996745 0.000546924 0)
(0.0991169 0.00113928 0)
(0.102001 0.00139777 0)
(0.106277 -5.25648e-05 0)
(0.101265 -0.001494 0)
(0.0990079 -0.00133956 0)
(0.0982224 -0.000552423 0)
(0.0988541 -6.46584e-05 0)
(0.0996018 2.48058e-05 0)
(0.0999312 -4.73261e-05 0)
(0.0999479 -0.000100327 0)
(0.0998658 -9.89224e-05 0)
(0.0998442 -8.88727e-05 0)
(0.0999915 4.26159e-06 0)
(0.0999825 1.83707e-05 0)
(0.0999647 3.53162e-05 0)
(0.0999397 6.87218e-05 0)
(0.0999125 0.000127657 0)
(0.0999039 0.000240114 0)
(0.0999584 0.000458824 0)
(0.100146 0.000794286 0)
(0.100537 0.00131391 0)
(0.101064 0.00147352 0)
(0.101325 -0.000407178 0)
(0.100995 -0.00190247 0)
(0.100235 -0.00160964 0)
(0.0997123 -0.000611841 0)
(0.0996387 -8.35114e-06 0)
(0.0998174 7.7473e-05 0)
(0.100015 -4.28125e-05 0)
(0.100092 -0.000130593 0)
(0.100093 -0.000137999 0)
(0.100038 -0.000125098 0)
(0.0999938 8.62478e-06 0)
(0.0999906 2.69796e-05 0)
(0.0999838 5.44618e-05 0)
(0.0999799 9.1024e-05 0)
(0.09998 0.000151382 0)
(0.100003 0.000226158 0)
(0.100048 0.000329381 0)
(0.100159 0.000399144 0)
(0.100332 0.000421262 0)
(0.100654 0.000236729 0)
(0.101 -9.82558e-05 0)
(0.101008 -0.000454316 0)
(0.100601 -0.00050202 0)
(0.100067 -0.000312839 0)
(0.0997751 -0.000113108 0)
(0.0997847 -2.52243e-05 0)
(0.099951 -3.23426e-05 0)
(0.100066 -7.41793e-05 0)
(0.100112 -9.67582e-05 0)
(0.100057 -0.000107412 0)
(0.0999971 9.68053e-06 0)
(0.0999974 3.1549e-05 0)
(0.0999993 5.71307e-05 0)
(0.100005 9.17441e-05 0)
(0.100019 0.000133379 0)
(0.100049 0.000187129 0)
(0.100105 0.000239931 0)
(0.100203 0.000297587 0)
(0.100351 0.000311225 0)
(0.100519 0.000273338 0)
(0.100631 5.10353e-05 0)
(0.100587 -0.000275199 0)
(0.100375 -0.000507809 0)
(0.100105 -0.000507075 0)
(0.0999303 -0.000344967 0)
(0.0998989 -0.000179496 0)
(0.0999682 -0.000102145 0)
(0.100026 -0.000105896 0)
(0.100065 -0.000130719 0)
(0.100025 -0.000151572 0)
(0.1 9.82119e-06 0)
(0.100003 3.02714e-05 0)
(0.100009 5.35045e-05 0)
(0.100021 8.05258e-05 0)
(0.100041 0.00011215 0)
(0.100074 0.000145991 0)
(0.100124 0.000177904 0)
(0.100194 0.000195164 0)
(0.100276 0.000178268 0)
(0.100354 0.000103419 0)
(0.100408 -2.78175e-05 0)
(0.100405 -0.00017821 0)
(0.100326 -0.000271091 0)
(0.10019 -0.000263256 0)
(0.100064 -0.000178007 0)
(0.099989 -8.9658e-05 0)
(0.0999836 -4.27617e-05 0)
(0.0999984 -4.4746e-05 0)
(0.100024 -6.16119e-05 0)
(0.100002 -8.4862e-05 0)
(0.100003 8.63794e-06 0)
(0.100007 2.64665e-05 0)
(0.100015 4.53891e-05 0)
(0.100029 6.60682e-05 0)
(0.10005 8.77266e-05 0)
(0.10008 0.000108498 0)
(0.10012 0.000123103 0)
(0.10017 0.000125359 0)
(0.100225 0.000107357 0)
(0.100279 6.56176e-05 0)
(0.100315 1.69691e-06 0)
(0.100309 -7.70993e-05 0)
(0.100256 -0.000145086 0)
(0.100166 -0.000177555 0)
(0.100072 -0.000166945 0)
(0.100003 -0.000134939 0)
(0.0999793 -0.000102962 0)
(0.0999768 -9.36189e-05 0)
(0.0999896 -9.44712e-05 0)
(0.0999776 -0.000110834 0)
(0.100005 6.94504e-06 0)
(0.10001 2.10472e-05 0)
(0.100019 3.54234e-05 0)
(0.100033 5.00567e-05 0)
(0.100053 6.43142e-05 0)
(0.100079 7.65761e-05 0)
(0.100111 8.38569e-05 0)
(0.100148 8.2672e-05 0)
(0.100186 6.91689e-05 0)
(0.100218 4.06258e-05 0)
(0.100235 -4.68543e-06 0)
(0.100228 -5.76279e-05 0)
(0.100195 -0.000103621 0)
(0.100139 -0.00012823 0)
(0.100077 -0.000123057 0)
(0.100023 -9.9485e-05 0)
(0.0999953 -7.01664e-05 0)
(0.0999765 -5.55839e-05 0)
(0.099977 -4.86507e-05 0)
(0.099957 -5.98089e-05 0)
(0.100007 5.05324e-06 0)
(0.100012 1.50514e-05 0)
(0.100021 2.47315e-05 0)
(0.100035 3.38411e-05 0)
(0.100053 4.20485e-05 0)
(0.100076 4.82511e-05 0)
(0.100103 5.08807e-05 0)
(0.100131 4.73928e-05 0)
(0.10016 3.62089e-05 0)
(0.100182 1.56642e-05 0)
(0.100193 -1.15811e-05 0)
(0.100186 -4.20454e-05 0)
(0.100162 -6.81236e-05 0)
(0.100122 -8.42271e-05 0)
(0.100078 -8.49981e-05 0)
(0.100032 -7.70101e-05 0)
(0.100001 -6.37028e-05 0)
(0.0999729 -5.95893e-05 0)
(0.0999651 -5.60962e-05 0)
(0.0999396 -6.84553e-05 0)
(0.100009 3.46904e-06 0)
(0.100013 1.05078e-05 0)
(0.100021 1.75045e-05 0)
(0.100034 2.41785e-05 0)
(0.100051 3.01411e-05 0)
(0.100071 3.48651e-05 0)
(0.100094 3.74728e-05 0)
(0.100117 3.68857e-05 0)
(0.100138 3.20307e-05 0)
(0.100153 2.2488e-05 0)
(0.10016 8.6987e-06 0)
(0.100155 -6.96703e-06 0)
(0.100137 -2.05283e-05 0)
(0.100105 -2.96368e-05 0)
(0.100068 -3.11153e-05 0)
(0.100027 -2.80474e-05 0)
(0.0999973 -2.01678e-05 0)
(0.0999659 -1.6835e-05 0)
(0.0999542 -1.18604e-05 0)
(0.0999258 -1.9838e-05 0)
(0.10001 -4.06355e-07 0)
(0.100015 -9.82072e-07 0)
(0.100023 -1.2738e-06 0)
(0.100036 -1.46773e-06 0)
(0.100053 -1.73916e-06 0)
(0.100072 -2.34148e-06 0)
(0.100094 -3.42101e-06 0)
(0.100115 -5.36134e-06 0)
(0.100134 -8.17492e-06 0)
(0.100147 -1.22007e-05 0)
(0.100152 -1.69592e-05 0)
(0.100145 -2.31018e-05 0)
(0.100129 -2.90136e-05 0)
(0.1001 -3.40778e-05 0)
(0.100069 -3.59042e-05 0)
(0.10003 -3.67344e-05 0)
(0.100003 -3.41994e-05 0)
(0.099967 -3.52833e-05 0)
(0.0999558 -3.28073e-05 0)
(0.0999145 -4.10669e-05 0)
)
;

boundaryField
{
    sides
    {
        type            calculated;
        value           nonuniform List<vector> 
40
(
(0.10001 0 0)
(0.100015 0 0)
(0.100023 0 0)
(0.100036 0 0)
(0.100053 0 0)
(0.100072 0 0)
(0.100094 0 0)
(0.100115 0 0)
(0.100134 0 0)
(0.100147 0 0)
(0.100152 0 0)
(0.100145 0 0)
(0.100129 0 0)
(0.1001 0 0)
(0.100069 0 0)
(0.10003 0 0)
(0.100003 0 0)
(0.099967 0 0)
(0.0999558 0 0)
(0.0999145 0 0)
(0.0999964 0 0)
(0.100001 0 0)
(0.10001 0 0)
(0.100023 0 0)
(0.10004 0 0)
(0.100061 0 0)
(0.100084 0 0)
(0.100107 0 0)
(0.100128 0 0)
(0.100144 0 0)
(0.100153 0 0)
(0.100152 0 0)
(0.10014 0 0)
(0.10012 0 0)
(0.100093 0 0)
(0.100068 0 0)
(0.100045 0 0)
(0.100034 0 0)
(0.100025 0 0)
(0.100033 0 0)
)
;
    }
    inlet
    {
        type            calculated;
        value           nonuniform List<vector> 
20
(
(0.0999962 0 0)
(0.0999968 0 0)
(0.0999967 0 0)
(0.0999961 0 0)
(0.0999951 0 0)
(0.0999938 0 0)
(0.0999923 0 0)
(0.0999909 0 0)
(0.0999899 0 0)
(0.0999899 0 0)
(0.0999906 0 0)
(0.099992 0 0)
(0.0999943 0 0)
(0.0999971 0 0)
(0.0999999 0 0)
(0.100003 0 0)
(0.100005 0 0)
(0.100007 0 0)
(0.100009 0 0)
(0.10001 0 0)
)
;
    }
    outlet
    {
        type            calculated;
        value           nonuniform List<vector> 
20
(
(0.100033 -2.6841e-05 0)
(0.100029 8.1217e-06 0)
(0.10003 -1.17147e-05 0)
(0.100035 3.34109e-08 0)
(0.100043 1.6782e-05 0)
(0.100055 4.99401e-06 0)
(0.100066 5.34328e-05 0)
(0.100085 1.03446e-05 0)
(0.100054 2.44294e-05 0)
(0.0998504 -1.84674e-05 0)
(0.0998455 -8.88739e-05 0)
(0.100037 -0.000125096 0)
(0.100055 -0.00010741 0)
(0.100024 -0.00015157 0)
(0.100001 -8.4861e-05 0)
(0.0999769 -0.000110833 0)
(0.0999562 -5.98084e-05 0)
(0.0999388 -6.84548e-05 0)
(0.099925 -1.98378e-05 0)
(0.0999131 -4.10663e-05 0)
)
;
    }
    frontAndBack
    {
        type            empty;
    }
}


// ************************************************************************* //
