/*--------------------------------*- C++ -*----------------------------------*\
  =========                 |
  \\      /  F ield         | OpenFOAM: The Open Source CFD Toolbox
   \\    /   O peration     | Website:  https://openfoam.org
    \\  /    A nd           | Version:  9
     \\/     M anipulation  |
\*---------------------------------------------------------------------------*/
FoamFile
{
    format      ascii;
    class       surfaceScalarField;
    location    "99";
    object      ddtCorrDdt0(phi);
}
// * * * * * * * * * * * * * * * * * * * * * * * * * * * * * * * * * * * * * //

dimensions      [0 4 -2 0 0 0 0];

internalField   nonuniform List<scalar> 
760
(
2.91922e-11
1.67459e-11
2.13803e-11
2.39767e-12
-2.79478e-12
-2.32447e-11
-1.19777e-11
-1.76246e-11
1.52584e-11
2.1937e-11
3.77451e-12
1.42127e-11
6.90477e-12
8.89299e-12
-1.75761e-11
6.79936e-12
5.00101e-12
1.86639e-11
-1.26919e-11
-4.07379e-12
5.65299e-12
7.97179e-12
-1.10824e-11
-1.23926e-11
-4.46693e-12
-9.31921e-13
4.56116e-12
-8.85818e-12
-1.61988e-11
-1.35877e-11
-1.0436e-11
7.94762e-12
1.15033e-11
4.44981e-12
9.29718e-12
-1.81264e-11
-2.99269e-11
-2.74874e-11
-1.85143e-11
1.11216e-11
1.71053e-11
-2.1311e-12
-4.3378e-12
-9.82953e-12
-2.49794e-11
8.75894e-12
-2.16123e-12
8.69847e-12
2.26814e-11
5.65614e-13
-2.15512e-12
1.02379e-11
1.52061e-11
-7.77842e-12
3.42942e-14
1.92142e-12
2.35657e-11
1.71624e-11
-2.62446e-13
-2.71646e-11
-3.57931e-12
4.53229e-12
1.68677e-11
-1.20329e-11
-1.60751e-11
-2.32048e-12
1.17864e-12
2.04846e-12
-2.98447e-12
-1.40654e-11
7.64351e-12
-1.59415e-11
1.6496e-11
3.31878e-12
1.30351e-12
1.65288e-11
-1.70219e-11
-8.18413e-12
-1.05338e-11
3.46781e-12
-2.03437e-11
-3.81019e-12
2.90415e-13
2.37391e-12
2.22091e-11
1.61481e-11
-1.73095e-11
-1.59313e-11
1.57823e-11
-5.73682e-12
-4.18169e-12
-3.17491e-13
1.8093e-11
1.66946e-11
-1.91926e-11
-1.46084e-11
1.78617e-11
4.44805e-11
-2.52991e-12
-2.9694e-11
-1.5623e-11
2.1804e-11
9.51029e-12
1.73944e-11
-6.15997e-12
-9.70693e-12
1.13318e-11
8.79293e-12
-2.8371e-12
1.24967e-11
-1.73169e-11
1.40036e-11
3.04672e-12
1.61379e-11
2.02815e-11
9.66525e-12
8.92455e-13
-2.14571e-11
-7.15667e-12
-1.5852e-11
6.60081e-12
1.28883e-11
2.28621e-11
-5.53209e-12
3.52607e-12
-1.27795e-11
-1.9391e-11
1.63696e-11
-8.75572e-12
6.81881e-12
4.78687e-13
-8.63454e-12
-1.3807e-11
3.50821e-11
1.02691e-11
-5.83371e-11
-3.29076e-11
5.04358e-11
1.24501e-10
-1.41491e-11
-6.42768e-11
-1.92536e-11
3.1165e-11
2.34196e-11
3.14771e-11
2.06945e-11
-6.19408e-12
2.6956e-12
-3.19409e-12
-1.47779e-11
9.75221e-12
-9.92595e-12
2.28506e-11
1.60374e-11
2.5912e-11
1.19545e-11
-1.22076e-11
-4.72062e-12
3.97304e-13
1.04851e-11
3.13266e-12
1.1712e-11
-2.26531e-11
-4.00805e-12
-2.05183e-12
-9.2928e-12
2.00048e-11
3.69858e-12
-2.24818e-12
-3.85138e-12
1.52327e-12
-2.74053e-11
-2.15334e-12
4.70634e-11
7.71564e-11
-7.32788e-11
-1.32282e-10
-1.15152e-10
8.99434e-11
1.13382e-10
-1.22458e-11
-8.43852e-11
-2.66672e-11
-1.51293e-12
2.79185e-11
3.32411e-11
1.8148e-11
-1.23012e-12
-9.98586e-12
-2.30071e-12
-1.94693e-11
1.78677e-11
-6.18399e-12
2.88691e-11
1.40105e-11
1.89316e-12
1.16789e-12
4.47478e-12
7.44583e-13
-5.15049e-12
-4.23076e-12
-2.27362e-11
-7.43428e-12
9.46567e-12
1.06277e-11
2.00178e-11
1.12815e-11
-3.5084e-11
-1.38965e-11
8.17128e-11
5.08758e-11
-1.36122e-10
-1.52747e-10
1.3621e-10
2.96752e-10
-1.25627e-11
-6.06321e-10
-1.19465e-10
-3.65255e-12
8.02375e-11
1.07385e-10
1.15195e-11
-6.21646e-11
-1.37447e-11
-3.56734e-11
1.20004e-11
-5.20446e-12
1.14006e-11
-3.62624e-12
-1.01193e-11
2.48022e-12
-2.46977e-11
8.89372e-12
4.0975e-12
3.97372e-12
-2.34658e-13
1.19089e-12
-7.79787e-12
-6.21181e-12
-1.36892e-11
-7.03993e-12
7.70861e-13
1.41227e-11
1.35344e-11
-7.48228e-12
1.15091e-11
3.21328e-11
3.02357e-11
-8.41553e-11
-5.81462e-11
1.92074e-10
1.11426e-10
-5.43683e-10
-2.64352e-10
7.44069e-10
1.52005e-09
-1.22839e-11
-5.76634e-10
-8.63449e-11
-6.46862e-11
3.74168e-11
3.38396e-11
2.58263e-11
-2.0811e-11
1.35949e-11
-1.86333e-11
1.57031e-11
-1.41534e-11
-1.63926e-12
-1.58216e-11
-2.50851e-11
-1.13274e-11
-5.84953e-12
-7.98442e-13
-5.15435e-12
-5.05092e-12
-1.13053e-11
4.70806e-12
-7.45277e-12
3.47933e-12
1.61273e-12
6.52676e-12
1.76702e-11
1.51683e-11
1.12948e-11
-4.41909e-11
-6.40127e-12
4.14097e-11
2.66157e-11
2.18456e-10
-1.85892e-10
-2.95705e-09
-1.34304e-10
-2.40903e-10
3.12069e-08
6.14549e-10
1.10677e-09
3.51975e-11
-7.16386e-11
-4.6722e-11
-5.53835e-11
1.07731e-11
-2.81118e-11
2.50515e-11
-2.05871e-11
2.26841e-11
-1.84182e-11
5.97036e-12
-2.91107e-11
-1.76852e-11
-2.35848e-11
-1.10241e-11
-5.57231e-12
-9.348e-12
-4.44444e-12
-4.67092e-12
1.04085e-11
-5.65539e-13
1.43995e-11
8.68535e-12
3.08599e-12
9.86853e-12
-3.43321e-12
8.71293e-12
-8.87017e-12
-2.05774e-11
-6.6562e-11
-5.5988e-11
-2.27351e-10
1.48074e-10
3.01041e-09
-2.09291e-10
2.29386e-10
1.26518e-09
-6.6712e-10
-5.07002e-10
-5.99423e-11
1.86999e-12
2.31595e-11
4.58724e-11
1.21786e-11
3.26452e-11
3.52952e-11
-2.88526e-12
2.1054e-11
-2.2988e-09
1.42318e-11
-3.01218e-11
-5.74648e-13
-1.3672e-11
3.42249e-10
-1.11374e-12
-8.90286e-12
-3.01708e-12
2.77037e-12
1.47321e-11
1.08859e-11
1.79853e-11
2.34783e-12
-4.53026e-13
7.90608e-12
-1.40868e-11
-1.14665e-11
-5.28908e-11
-2.73699e-11
6.96749e-11
2.47317e-11
-1.48185e-10
-5.15287e-11
4.13258e-10
2.96385e-10
-6.79621e-10
-2.95603e-10
1.16617e-11
4.21717e-11
3.61698e-11
1.76548e-10
-5.74514e-11
2.511e-11
-3.70523e-11
3.56951e-11
-1.5301e-11
2.30394e-11
2.36477e-11
1.06537e-11
2.60424e-11
-8.31571e-12
1.48844e-11
-4.134e-12
-3.24409e-12
8.65141e-12
-3.68133e-12
3.18696e-12
7.20343e-12
5.95137e-12
1.46263e-11
2.39772e-11
3.80098e-13
-9.12808e-12
-1.48191e-11
-3.53025e-11
-3.15407e-12
-5.96621e-12
-1.90993e-11
-1.02504e-11
1.99167e-11
1.71481e-10
5.37553e-11
-2.74879e-11
-1.00749e-10
-1.07524e-10
-2.31678e-10
2.07503e-10
2.93466e-10
-1.12668e-10
-1.97744e-10
-6.15628e-11
-6.96287e-11
-5.06676e-11
5.94249e-12
-3.47484e-11
1.60106e-11
2.86458e-12
1.89618e-11
2.82751e-11
2.16538e-11
2.03298e-11
1.8002e-11
5.36278e-12
1.70338e-11
4.59058e-12
1.05461e-11
6.82828e-12
-3.80685e-12
9.64851e-12
1.01464e-11
-2.04332e-12
1.05845e-12
-2.47235e-11
-3.82057e-11
-1.47207e-11
-4.40511e-12
4.00161e-11
5.35784e-11
-9.15448e-12
-1.24035e-11
-8.44912e-11
-2.6712e-10
-9.04993e-11
-1.29052e-09
1.11901e-08
-3.25819e-10
-5.0163e-10
-1.1835e-11
-6.74748e-11
-2.16618e-11
-7.33817e-11
-5.05721e-11
-3.33331e-11
-2.7446e-11
5.14653e-12
1.00269e-11
3.65777e-11
2.53072e-11
3.73403e-11
6.04747e-12
2.08388e-11
4.48441e-12
1.64064e-11
1.13529e-11
1.509e-11
3.67342e-12
-1.22592e-11
-1.25811e-12
-1.04108e-11
-1.68724e-12
8.16964e-13
-1.73869e-11
1.95413e-12
-1.11156e-11
8.32248e-12
1.49249e-11
-5.14974e-11
4.20638e-11
6.01232e-11
3.09919e-11
1.05925e-10
-1.02336e-10
1.4054e-09
7.85797e-11
2.24632e-10
1.70029e-10
1.43657e-12
-1.19505e-10
2.35809e-11
-3.74336e-11
2.85572e-11
-7.80573e-12
1.04016e-11
1.60807e-11
1.17203e-11
2.84575e-11
6.53871e-12
1.62103e-11
-1.24521e-11
-6.32396e-12
-8.0352e-12
7.32808e-12
8.95773e-12
1.18773e-11
1.55481e-12
-1.22215e-11
-1.07261e-11
-2.66171e-11
-1.15957e-12
4.49656e-13
2.91718e-12
1.84305e-11
-1.00327e-11
2.84117e-11
-4.58051e-12
-4.51309e-11
1.93662e-11
-1.13144e-10
7.82409e-11
6.60509e-11
4.83552e-11
9.55765e-11
9.02054e-11
-1.2023e-10
-9.08034e-11
5.38443e-11
5.09739e-11
7.96583e-11
4.47695e-11
6.29296e-11
3.62538e-11
3.11526e-11
2.43733e-11
-2.46435e-12
1.05893e-11
-1.90654e-11
-1.12664e-11
-1.62609e-11
-2.6018e-11
-1.41955e-11
-3.22176e-13
-2.06778e-12
1.79278e-12
-1.17718e-12
-6.77574e-12
-2.46768e-12
-2.47255e-11
-3.82016e-12
-1.2588e-11
1.62762e-11
2.01739e-11
2.59325e-12
3.25372e-11
-1.52224e-11
-1.38338e-11
-1.71671e-11
-3.22145e-11
2.61781e-11
7.27514e-12
9.6633e-11
-1.95151e-11
3.62645e-10
5.7689e-11
1.14061e-10
6.10601e-11
7.99652e-11
6.29911e-11
6.04934e-11
4.4367e-11
2.73236e-11
1.30333e-11
7.72632e-12
-2.69685e-11
-1.26216e-11
-3.41203e-11
-2.37917e-11
-3.12963e-12
-1.79669e-11
-5.93595e-12
-1.27437e-13
-7.77468e-12
5.00409e-13
-6.98743e-12
-1.0817e-11
5.61531e-12
-9.3256e-12
6.57926e-12
-2.10342e-11
3.50175e-12
7.08977e-12
1.56851e-11
2.64353e-11
-1.77584e-11
1.8821e-11
-2.92907e-11
-8.33708e-12
-2.83534e-11
-6.04989e-12
4.67222e-12
-2.21831e-11
3.68166e-12
3.11781e-11
4.57204e-11
3.8383e-11
4.30232e-11
2.30131e-11
2.04356e-11
1.61668e-11
8.07157e-12
-1.43981e-11
-1.37262e-11
-4.27508e-11
-2.84782e-11
-2.9113e-11
-1.40128e-11
1.19492e-11
7.06949e-12
7.0476e-12
5.77747e-13
1.64869e-12
8.3486e-12
-9.71244e-12
-9.92262e-12
-6.22249e-12
-1.00963e-11
6.09373e-12
-5.27586e-12
6.93103e-13
-1.52509e-11
2.21689e-12
2.10861e-11
7.191e-12
1.45395e-11
-2.13861e-11
6.15855e-12
-3.12693e-11
-2.4887e-12
-3.6989e-11
4.28794e-12
-2.14685e-12
9.17375e-12
-1.06401e-11
-1.383e-12
-9.25506e-12
2.87398e-14
-4.38217e-12
-1.52642e-11
-1.98201e-11
-3.49263e-11
-3.38469e-11
-3.13256e-11
-2.00613e-11
-9.76113e-12
6.78025e-12
1.28973e-11
1.87586e-11
9.85589e-12
-7.50158e-12
1.55658e-11
7.38317e-12
-3.48547e-12
1.77842e-12
-2.51418e-11
-8.99498e-12
-1.48121e-11
1.01489e-12
8.21937e-12
-7.23277e-12
9.40881e-12
-5.59916e-13
1.32095e-11
1.16103e-11
1.3309e-12
1.96286e-14
-1.51071e-11
-8.58796e-12
-2.55555e-11
9.29471e-12
-2.69204e-11
5.09755e-12
-2.61327e-11
-2.14682e-12
-1.60763e-11
-1.76984e-11
-1.31102e-11
-2.74861e-11
-2.64387e-11
-1.62226e-11
-2.72923e-11
-1.88581e-12
-8.86345e-12
6.25133e-13
5.45334e-12
3.20006e-12
4.64027e-12
1.63674e-12
-1.84313e-11
1.62868e-11
-1.15363e-11
2.90829e-12
1.05598e-11
-2.25933e-11
1.32078e-11
-2.26032e-11
6.0504e-12
5.10137e-12
-1.81188e-12
1.52259e-11
-8.61628e-12
1.18339e-11
2.01018e-12
8.92106e-12
-3.93227e-12
-2.42389e-12
-2.75122e-12
-5.7578e-12
3.92366e-12
-9.58486e-12
1.1912e-11
-1.31287e-11
4.99066e-13
-8.35671e-12
-2.58421e-11
-9.17188e-12
-2.23332e-11
-1.49155e-11
4.2293e-12
-1.62132e-11
1.32156e-11
-6.40907e-12
3.18882e-12
2.88221e-13
5.91985e-12
-2.06398e-12
-8.94404e-13
-2.66173e-11
-3.16646e-11
9.71565e-12
3.53336e-11
1.50281e-11
-2.76023e-12
-1.08634e-11
-5.29183e-12
-3.52689e-13
6.09843e-13
4.75727e-12
1.61228e-11
2.39741e-12
-2.66796e-11
-2.14588e-11
1.28684e-11
2.33967e-11
9.5901e-12
1.13221e-11
)
;

boundaryField
{
    sides
    {
        type            calculated;
        value           uniform 0;
    }
    inlet
    {
        type            calculated;
        value           uniform 0;
    }
    outlet
    {
        type            calculated;
        value           nonuniform List<scalar> 
20
(
-4.87869e-11
1.05532e-12
3.04154e-11
3.23095e-11
6.47184e-12
-2.81697e-11
-3.34657e-11
-2.09883e-11
1.46733e-11
-1.41274e-11
1.04176e-12
-1.37809e-11
-2.63159e-11
-1.23839e-11
1.79206e-11
3.4298e-11
2.26121e-11
6.12532e-12
1.24959e-11
2.28196e-11
)
;
    }
    frontAndBack
    {
        type            empty;
        value           nonuniform List<scalar> 0();
    }
}


// ************************************************************************* //
