/*--------------------------------*- C++ -*----------------------------------*\
  =========                 |
  \\      /  F ield         | OpenFOAM: The Open Source CFD Toolbox
   \\    /   O peration     | Website:  https://openfoam.org
    \\  /    A nd           | Version:  9
     \\/     M anipulation  |
\*---------------------------------------------------------------------------*/
FoamFile
{
    format      ascii;
    class       volVectorField;
    location    "99";
    object      hU_0;
}
// * * * * * * * * * * * * * * * * * * * * * * * * * * * * * * * * * * * * * //

dimensions      [0 2 -1 0 0 0 0];

internalField   nonuniform List<vector> 
400
(
(0.001 -2.40941e-08 0)
(0.00100004 -7.03894e-08 0)
(0.00100012 -1.1321e-07 0)
(0.00100024 -1.52737e-07 0)
(0.00100039 -1.87731e-07 0)
(0.00100058 -2.1701e-07 0)
(0.00100078 -2.37218e-07 0)
(0.00100099 -2.45457e-07 0)
(0.00100118 -2.36357e-07 0)
(0.00100133 -2.10917e-07 0)
(0.0010014 -1.67874e-07 0)
(0.0010014 -1.2798e-07 0)
(0.00100129 -9.84292e-08 0)
(0.00100111 -9.27774e-08 0)
(0.00100087 -9.9464e-08 0)
(0.00100064 -1.35353e-07 0)
(0.00100044 -1.56107e-07 0)
(0.00100034 -2.00449e-07 0)
(0.00100026 -1.87999e-07 0)
(0.00100033 -2.68094e-07 0)
(0.001 -2.61606e-08 0)
(0.00100005 -7.84116e-08 0)
(0.00100013 -1.28396e-07 0)
(0.00100026 -1.74943e-07 0)
(0.00100042 -2.14167e-07 0)
(0.00100062 -2.40955e-07 0)
(0.00100084 -2.46525e-07 0)
(0.00100108 -2.20643e-07 0)
(0.0010013 -1.54442e-07 0)
(0.00100147 -4.69701e-08 0)
(0.00100156 9.50985e-08 0)
(0.00100154 2.48867e-07 0)
(0.00100141 3.90875e-07 0)
(0.00100119 4.77544e-07 0)
(0.00100092 5.05656e-07 0)
(0.00100067 4.52561e-07 0)
(0.00100048 3.79315e-07 0)
(0.00100036 2.58305e-07 0)
(0.00100033 2.06472e-07 0)
(0.00100029 8.15935e-08 0)
(0.001 -5.19124e-08 0)
(0.00100004 -1.58785e-07 0)
(0.00100013 -2.6726e-07 0)
(0.00100026 -3.74373e-07 0)
(0.00100043 -4.74091e-07 0)
(0.00100064 -5.56303e-07 0)
(0.0010009 -6.04275e-07 0)
(0.00100117 -5.9805e-07 0)
(0.00100143 -5.17741e-07 0)
(0.00100164 -3.51016e-07 0)
(0.00100176 -1.08735e-07 0)
(0.00100176 1.64102e-07 0)
(0.00100159 4.03065e-07 0)
(0.0010013 5.21212e-07 0)
(0.00100095 5.00452e-07 0)
(0.00100062 3.5482e-07 0)
(0.00100037 2.0416e-07 0)
(0.00100026 4.70754e-08 0)
(0.00100022 -2.45593e-09 0)
(0.0010003 -1.16889e-07 0)
(0.001 -7.32443e-08 0)
(0.00100004 -2.22483e-07 0)
(0.00100013 -3.75222e-07 0)
(0.00100026 -5.30433e-07 0)
(0.00100045 -6.80734e-07 0)
(0.00100069 -8.10574e-07 0)
(0.001001 -8.89716e-07 0)
(0.00100134 -8.85962e-07 0)
(0.00100171 -7.55797e-07 0)
(0.00100203 -4.74274e-07 0)
(0.00100222 -2.23171e-08 0)
(0.00100219 4.93823e-07 0)
(0.00100192 9.37856e-07 0)
(0.00100146 1.14029e-06 0)
(0.00100097 1.05539e-06 0)
(0.00100058 7.43916e-07 0)
(0.00100041 4.24543e-07 0)
(0.00100035 1.70281e-07 0)
(0.0010004 1.01822e-07 0)
(0.00100034 2.49047e-10 0)
(0.001 -9.10222e-08 0)
(0.00100004 -2.78315e-07 0)
(0.00100012 -4.77089e-07 0)
(0.00100025 -6.9363e-07 0)
(0.00100044 -9.20613e-07 0)
(0.00100072 -1.13945e-06 0)
(0.00100109 -1.29909e-06 0)
(0.00100155 -1.33757e-06 0)
(0.00100207 -1.17518e-06 0)
(0.00100257 -7.78527e-07 0)
(0.0010029 -1.69302e-07 0)
(0.00100288 5.78802e-07 0)
(0.00100244 1.23105e-06 0)
(0.00100167 1.51171e-06 0)
(0.00100086 1.37515e-06 0)
(0.00100031 9.64728e-07 0)
(0.00100013 5.813e-07 0)
(0.00100021 3.13751e-07 0)
(0.00100036 2.61372e-07 0)
(0.00100043 1.67579e-07 0)
(0.001 -1.03489e-07 0)
(0.00100003 -3.18719e-07 0)
(0.00100009 -5.62154e-07 0)
(0.00100019 -8.44538e-07 0)
(0.00100038 -1.17271e-06 0)
(0.00100068 -1.52502e-06 0)
(0.00100115 -1.85924e-06 0)
(0.00100179 -2.05413e-06 0)
(0.00100254 -1.9112e-06 0)
(0.00100326 -1.19989e-06 0)
(0.00100377 8.38636e-08 0)
(0.00100378 1.54304e-06 0)
(0.0010031 2.43284e-06 0)
(0.00100192 2.30454e-06 0)
(0.00100082 1.42997e-06 0)
(0.00100019 4.92147e-07 0)
(0.00100017 1.2673e-08 0)
(0.00100037 -8.61452e-08 0)
(0.00100064 5.9642e-08 0)
(0.00100054 4.98017e-08 0)
(0.001 -1.02653e-07 0)
(0.001 -3.33534e-07 0)
(0.00100002 -6.02078e-07 0)
(0.00100008 -9.62269e-07 0)
(0.00100021 -1.39262e-06 0)
(0.00100048 -1.94639e-06 0)
(0.001001 -2.48933e-06 0)
(0.00100188 -3.08382e-06 0)
(0.00100321 -3.2336e-06 0)
(0.00100473 -2.87743e-06 0)
(0.00100574 -6.77759e-07 0)
(0.00100535 2.55872e-06 0)
(0.00100349 4.82832e-06 0)
(0.00100112 4.73585e-06 0)
(0.000999608 3.02802e-06 0)
(0.000999371 1.26367e-06 0)
(0.00100001 4.30546e-07 0)
(0.00100056 3.26067e-07 0)
(0.00100093 5.61718e-07 0)
(0.00100066 5.33871e-07 0)
(0.000999996 -9.24783e-08 0)
(0.000999969 -2.88733e-07 0)
(0.000999907 -5.77322e-07 0)
(0.000999876 -9.57334e-07 0)
(0.000999878 -1.57789e-06 0)
(0.0010001 -2.34506e-06 0)
(0.0010005 -3.40247e-06 0)
(0.00100152 -4.1246e-06 0)
(0.00100308 -4.3736e-06 0)
(0.00100601 -2.55399e-06 0)
(0.00100912 7.58397e-07 0)
(0.00100916 4.25979e-06 0)
(0.0010055 4.71605e-06 0)
(0.00100073 2.78107e-06 0)
(0.000998151 7.34402e-07 0)
(0.000998274 -2.75003e-07 0)
(0.000999797 -2.86209e-07 0)
(0.00100087 -1.00519e-08 0)
(0.00100133 2.11834e-07 0)
(0.00100085 1.02738e-07 0)
(0.000999995 -4.9111e-08 0)
(0.000999915 -2.03828e-07 0)
(0.000999756 -3.86878e-07 0)
(0.000999531 -7.35483e-07 0)
(0.000999287 -1.33883e-06 0)
(0.000999211 -2.48136e-06 0)
(0.000999707 -4.68746e-06 0)
(0.00100139 -8.06878e-06 0)
(0.00100491 -1.32868e-05 0)
(0.00100958 -1.49172e-05 0)
(0.00101187 3.84603e-06 0)
(0.00100892 1.87226e-05 0)
(0.00100222 1.5779e-05 0)
(0.000997569 5.7407e-06 0)
(0.000996887 -3.16794e-07 0)
(0.000998461 -1.26385e-06 0)
(0.00100027 -9.44921e-08 0)
(0.001001 6.34493e-07 0)
(0.00100107 6.51686e-07 0)
(0.00100054 2.43752e-07 0)
(0.000999804 -1.97372e-08 0)
(0.00100017 -6.67353e-08 0)
(0.000999216 -1.51592e-07 0)
(0.000999904 -2.48899e-07 0)
(0.000997521 -5.92314e-07 0)
(0.000998843 -1.13117e-06 0)
(0.000993346 -2.8837e-06 0)
(0.00099753 -5.59336e-06 0)
(0.000991665 -1.15433e-05 0)
(0.000915834 -1.27031e-05 0)
(0.000951461 2.67858e-07 0)
(0.00101023 1.4645e-05 0)
(0.000990951 1.30865e-05 0)
(0.000983974 5.14104e-06 0)
(0.000989587 1.94103e-07 0)
(0.000996282 -7.81854e-07 0)
(0.000999237 -1.11669e-07 0)
(0.000999412 2.48275e-07 0)
(0.000998648 1.74131e-07 0)
(0.000998505 -1.84927e-07 0)
(0.000999804 1.3158e-08 0)
(0.00100017 4.58821e-08 0)
(0.000999215 1.17501e-07 0)
(0.000999903 2.00124e-07 0)
(0.000997519 5.29376e-07 0)
(0.000998838 1.05136e-06 0)
(0.000993338 2.78625e-06 0)
(0.000997518 5.47322e-06 0)
(0.000991651 1.13971e-05 0)
(0.000915808 1.2549e-05 0)
(0.000951429 -4.66339e-07 0)
(0.0010102 -1.49061e-05 0)
(0.000990943 -1.34084e-05 0)
(0.000983965 -5.53528e-06 0)
(0.000989567 -6.48335e-07 0)
(0.000996243 2.4802e-07 0)
(0.000999196 -4.72486e-07 0)
(0.000999367 -1.00228e-06 0)
(0.000998633 -9.88705e-07 0)
(0.000998455 -8.88847e-07 0)
(0.000999995 4.29318e-08 0)
(0.000999915 1.8398e-07 0)
(0.000999755 3.53614e-07 0)
(0.000999531 6.87658e-07 0)
(0.000999286 1.27647e-06 0)
(0.00099921 2.40089e-06 0)
(0.000999702 4.58863e-06 0)
(0.00100139 7.94322e-06 0)
(0.0010049 1.31336e-05 0)
(0.00100958 1.47178e-05 0)
(0.00101188 -4.07193e-06 0)
(0.00100889 -1.90066e-05 0)
(0.00100214 -1.6096e-05 0)
(0.000997477 -6.1224e-06 0)
(0.000996814 -8.39304e-08 0)
(0.000998401 7.75746e-07 0)
(0.00100017 -4.26823e-07 0)
(0.00100085 -1.30466e-06 0)
(0.00100088 -1.37924e-06 0)
(0.00100037 -1.25089e-06 0)
(0.000999996 8.67017e-08 0)
(0.000999967 2.70261e-07 0)
(0.000999905 5.4505e-07 0)
(0.000999871 9.1048e-07 0)
(0.00099987 1.51345e-06 0)
(0.00100008 2.26052e-06 0)
(0.00100048 3.29294e-06 0)
(0.00100149 3.9918e-06 0)
(0.00100303 4.21324e-06 0)
(0.00100594 2.36514e-06 0)
(0.00100902 -9.8549e-07 0)
(0.00100907 -4.54019e-06 0)
(0.00100543 -5.01906e-06 0)
(0.00100066 -3.12843e-06 0)
(0.000998058 -1.13034e-06 0)
(0.000998135 -2.50671e-07 0)
(0.000999622 -3.22095e-07 0)
(0.00100064 -7.40907e-07 0)
(0.00100106 -9.66956e-07 0)
(0.00100055 -1.07393e-06 0)
(0.001 9.70523e-08 0)
(0.001 3.15873e-07 0)
(0.00100002 5.71727e-07 0)
(0.00100007 9.17508e-07 0)
(0.0010002 1.33331e-06 0)
(0.00100046 1.87011e-06 0)
(0.00100097 2.39805e-06 0)
(0.00100185 2.97493e-06 0)
(0.00100318 3.11224e-06 0)
(0.00100469 2.73401e-06 0)
(0.00100568 5.1632e-07 0)
(0.00100527 -2.75051e-06 0)
(0.00100339 -5.07489e-06 0)
(0.00100097 -5.06872e-06 0)
(0.00099941 -3.44848e-06 0)
(0.000999122 -1.79378e-06 0)
(0.000999744 -1.02065e-06 0)
(0.00100025 -1.05863e-06 0)
(0.00100061 -1.30672e-06 0)
(0.00100024 -1.51545e-06 0)
(0.001 9.80969e-08 0)
(0.00100002 3.02674e-07 0)
(0.00100008 5.35428e-07 0)
(0.00100018 8.05491e-07 0)
(0.00100036 1.12117e-06 0)
(0.00100066 1.45902e-06 0)
(0.00100112 1.77791e-06 0)
(0.00100174 1.95042e-06 0)
(0.00100248 1.7821e-06 0)
(0.00100317 1.03631e-06 0)
(0.00100366 -2.77714e-07 0)
(0.00100363 -1.77823e-06 0)
(0.00100292 -2.70765e-06 0)
(0.00100171 -2.63027e-06 0)
(0.00100058 -1.77854e-06 0)
(0.000999904 -8.95536e-07 0)
(0.000999858 -4.27318e-07 0)
(0.000999981 -4.47732e-07 0)
(0.00100022 -6.16064e-07 0)
(0.00100001 -8.48453e-07 0)
(0.001 8.59944e-08 0)
(0.00100004 2.64056e-07 0)
(0.00100011 4.54004e-07 0)
(0.00100024 6.61359e-07 0)
(0.00100043 8.7751e-07 0)
(0.0010007 1.0845e-06 0)
(0.00100106 1.23026e-06 0)
(0.0010015 1.25277e-06 0)
(0.001002 1.07282e-06 0)
(0.00100248 6.56074e-07 0)
(0.0010028 1.77546e-08 0)
(0.00100274 -7.70285e-07 0)
(0.00100227 -1.44979e-06 0)
(0.00100146 -1.77435e-06 0)
(0.00100062 -1.66838e-06 0)
(0.00100001 -1.34868e-06 0)
(0.000999794 -1.02982e-06 0)
(0.000999766 -9.37146e-07 0)
(0.000999885 -9.45325e-07 0)
(0.000999767 -1.10845e-06 0)
(0.001 6.89715e-08 0)
(0.00100004 2.0962e-07 0)
(0.00100012 3.53902e-07 0)
(0.00100025 5.01333e-07 0)
(0.00100043 6.44117e-07 0)
(0.00100066 7.65953e-07 0)
(0.00100095 8.38173e-07 0)
(0.00100129 8.26299e-07 0)
(0.00100163 6.91005e-07 0)
(0.00100191 4.05312e-07 0)
(0.00100206 -4.78628e-08 0)
(0.001002 -5.77097e-07 0)
(0.00100171 -1.03658e-06 0)
(0.0010012 -1.28206e-06 0)
(0.00100065 -1.23007e-06 0)
(0.00100016 -9.94754e-07 0)
(0.000999915 -7.02468e-07 0)
(0.000999741 -5.57247e-07 0)
(0.000999753 -4.87525e-07 0)
(0.000999561 -5.98396e-07 0)
(0.001 5.0012e-08 0)
(0.00100004 1.49944e-07 0)
(0.00100012 2.46882e-07 0)
(0.00100025 3.38689e-07 0)
(0.00100041 4.21552e-07 0)
(0.00100062 4.83424e-07 0)
(0.00100086 5.09134e-07 0)
(0.00100112 4.74029e-07 0)
(0.00100137 3.61803e-07 0)
(0.00100157 1.55583e-07 0)
(0.00100167 -1.17638e-07 0)
(0.0010016 -4.22265e-07 0)
(0.00100139 -6.82513e-07 0)
(0.00100103 -8.42825e-07 0)
(0.00100064 -8.50334e-07 0)
(0.00100022 -7.70938e-07 0)
(0.000999951 -6.38452e-07 0)
(0.00099969 -5.97273e-07 0)
(0.000999628 -5.61646e-07 0)
(0.000999387 -6.84666e-07 0)
(0.001 3.41874e-08 0)
(0.00100004 1.0488e-07 0)
(0.00100011 1.74861e-07 0)
(0.00100023 2.41605e-07 0)
(0.00100038 3.01896e-07 0)
(0.00100056 3.49652e-07 0)
(0.00100077 3.75564e-07 0)
(0.00100097 3.69398e-07 0)
(0.00100116 3.20381e-07 0)
(0.0010013 2.24267e-07 0)
(0.00100136 8.5847e-08 0)
(0.00100131 -7.10841e-08 0)
(0.00100115 -2.06623e-07 0)
(0.00100086 -2.97347e-07 0)
(0.00100054 -3.12034e-07 0)
(0.00100017 -2.81733e-07 0)
(0.000999901 -2.03126e-07 0)
(0.000999614 -1.69202e-07 0)
(0.000999518 -1.18574e-07 0)
(0.00099925 -1.98167e-07 0)
(0.001 -4.28869e-09 0)
(0.00100004 -9.85507e-09 0)
(0.00100012 -1.27556e-08 0)
(0.00100024 -1.48115e-08 0)
(0.00100039 -1.73077e-08 0)
(0.00100056 -2.29982e-08 0)
(0.00100075 -3.37425e-08 0)
(0.00100094 -5.32712e-08 0)
(0.00100111 -8.1614e-08 0)
(0.00100123 -1.2213e-07 0)
(0.00100128 -1.69976e-07 0)
(0.00100121 -2.31458e-07 0)
(0.00100107 -2.90599e-07 0)
(0.00100081 -3.41138e-07 0)
(0.00100053 -3.59398e-07 0)
(0.00100018 -3.6786e-07 0)
(0.000999946 -3.42532e-07 0)
(0.00099961 -3.53035e-07 0)
(0.000999523 -3.27878e-07 0)
(0.000999131 -4.10498e-07 0)
)
;

boundaryField
{
    sides
    {
        type            slip;
    }
    inlet
    {
        type            fixedValue;
        value           uniform (0.001 0 0);
    }
    outlet
    {
        type            zeroGradient;
    }
    frontAndBack
    {
        type            empty;
    }
}


// ************************************************************************* //
