/*--------------------------------*- C++ -*----------------------------------*\
  =========                 |
  \\      /  F ield         | OpenFOAM: The Open Source CFD Toolbox
   \\    /   O peration     | Website:  https://openfoam.org
    \\  /    A nd           | Version:  9
     \\/     M anipulation  |
\*---------------------------------------------------------------------------*/
FoamFile
{
    format      ascii;
    class       surfaceScalarField;
    location    "99";
    object      phi_0;
}
// * * * * * * * * * * * * * * * * * * * * * * * * * * * * * * * * * * * * * //

dimensions      [0 4 -1 0 0 0 0];

internalField   nonuniform List<scalar> 
760
(
5.00009e-06
-9.09437e-11
5.0004e-06
-3.04058e-10
5.00092e-06
-5.13043e-10
5.00162e-06
-7.09941e-10
5.00249e-06
-8.79334e-10
5.00349e-06
-1.00519e-09
5.00455e-06
-1.06143e-09
5.00557e-06
-1.01329e-09
5.0064e-06
-8.31361e-10
5.00692e-06
-5.20032e-10
5.00705e-06
-1.19424e-10
5.00665e-06
4.00956e-10
5.0058e-06
8.58738e-10
5.00469e-06
1.10452e-09
5.00352e-06
1.1728e-09
5.00257e-06
9.53992e-10
5.00185e-06
7.17136e-10
5.00161e-06
2.47848e-10
5.00151e-06
1.10468e-10
-3.90531e-10
5.00012e-06
-2.10169e-10
5.00045e-06
-6.31211e-10
5.00098e-06
-1.04731e-09
5.00172e-06
-1.44928e-09
5.00265e-06
-1.81024e-09
5.00374e-06
-2.09706e-09
5.00493e-06
-2.24896e-09
5.00611e-06
-2.19274e-09
5.00713e-06
-1.85101e-09
5.00777e-06
-1.16627e-09
5.00774e-06
-8.78814e-11
5.00725e-06
8.9119e-10
5.00627e-06
1.84834e-09
5.00495e-06
2.41808e-09
5.00368e-06
2.44673e-09
5.00277e-06
1.86035e-09
5.00225e-06
1.24744e-09
5.00191e-06
5.8283e-10
5.00165e-06
3.70627e-10
-1.46223e-10
5.00011e-06
-3.19468e-10
5.00043e-06
-9.52426e-10
5.00096e-06
-1.57903e-09
5.00172e-06
-2.20722e-09
5.00272e-06
-2.80681e-09
5.00394e-06
-3.31959e-09
5.00532e-06
-3.62648e-09
5.00672e-06
-3.59486e-09
5.00793e-06
-3.0589e-09
5.00872e-06
-1.95917e-09
5.00893e-06
-3.04884e-10
5.00825e-06
1.57362e-09
5.00687e-06
3.22775e-09
5.00515e-06
4.13544e-09
5.0035e-06
4.09469e-09
5.00231e-06
3.05869e-09
5.00166e-06
1.89143e-09
5.00147e-06
7.69112e-10
5.00144e-06
3.95427e-10
-2.22294e-10
5.0001e-06
-4.21313e-10
5.00041e-06
-1.26334e-09
5.00094e-06
-2.11323e-09
5.00175e-06
-3.00648e-09
5.00285e-06
-3.91166e-09
5.00429e-06
-4.74956e-09
5.00601e-06
-5.35327e-09
5.00795e-06
-5.52836e-09
5.00984e-06
-4.95254e-09
5.01107e-06
-3.19069e-09
5.0112e-06
-4.2927e-10
5.00999e-06
2.77268e-09
5.00765e-06
5.57232e-09
5.00514e-06
6.63669e-09
5.00347e-06
5.76239e-09
5.0027e-06
3.83036e-09
5.00248e-06
2.11077e-09
5.00231e-06
9.34917e-10
5.00199e-06
7.06778e-10
3.38104e-10
5.00008e-06
-5.04077e-10
5.00034e-06
-1.52231e-09
5.00083e-06
-2.60604e-09
5.00163e-06
-3.80901e-09
5.00285e-06
-5.13237e-09
5.00457e-06
-6.46498e-09
5.0068e-06
-7.57321e-09
5.00942e-06
-8.1505e-09
5.01239e-06
-7.91463e-09
5.01478e-06
-5.59662e-09
5.01482e-06
-4.58374e-10
5.01285e-06
4.74611e-09
5.00866e-06
9.74233e-09
5.00459e-06
1.07149e-08
5.00224e-06
8.11725e-09
5.00174e-06
4.32303e-09
5.00204e-06
1.80507e-09
5.00225e-06
7.2355e-10
5.00201e-06
9.51029e-10
6.27325e-10
5.00004e-06
-5.45235e-10
5.0002e-06
-1.67778e-09
5.00054e-06
-2.94733e-09
5.00121e-06
-4.48315e-09
5.00241e-06
-6.3329e-09
5.00452e-06
-8.57539e-09
5.0076e-06
-1.06529e-08
5.01167e-06
-1.22148e-08
5.01553e-06
-1.17745e-08
5.01902e-06
-9.06908e-09
5.0202e-06
-1.67149e-09
5.01602e-06
8.95925e-09
5.0095e-06
1.62501e-08
5.00421e-06
1.60005e-08
5.00217e-06
1.01591e-08
5.00249e-06
4.0001e-09
5.00326e-06
1.03037e-09
5.00339e-06
5.9874e-10
5.0028e-06
1.54886e-09
1.42392e-09
4.99998e-06
-5.24349e-10
4.99994e-06
-1.63529e-09
5.00003e-06
-3.04083e-09
5.00036e-06
-4.81497e-09
5.00122e-06
-7.19339e-09
5.00292e-06
-1.02775e-08
5.0068e-06
-1.4532e-08
5.01393e-06
-1.93363e-08
5.02375e-06
-2.16055e-08
5.03093e-06
-1.62201e-08
5.02875e-06
3.80172e-10
5.01672e-06
2.09244e-08
5.00418e-06
2.88141e-08
4.99873e-06
2.14554e-08
5.00057e-06
8.3123e-09
5.00284e-06
1.72794e-09
5.00371e-06
1.62055e-10
5.00366e-06
6.53329e-10
5.00304e-06
2.16573e-09
1.68267e-09
4.99987e-06
-3.89578e-10
4.99955e-06
-1.32118e-09
4.99912e-06
-2.61425e-09
4.99885e-06
-4.54537e-09
4.99933e-06
-7.66885e-09
5.00036e-06
-1.13043e-08
5.00365e-06
-1.78244e-08
5.00982e-06
-2.55111e-08
5.02491e-06
-3.66703e-08
5.05607e-06
-4.75564e-08
5.05017e-06
7.75626e-09
5.02317e-06
4.77766e-08
4.99816e-06
5.37897e-08
4.99349e-06
2.61321e-08
4.99947e-06
2.33974e-09
5.00407e-06
-2.87955e-09
5.0049e-06
-6.70927e-10
5.00372e-06
1.83535e-09
5.00351e-06
2.38159e-09
9.70089e-10
4.99977e-06
-1.58103e-10
4.99915e-06
-7.05841e-10
4.99792e-06
-1.38114e-09
4.99611e-06
-2.73393e-09
4.99402e-06
-5.5774e-09
4.99374e-06
-1.10268e-08
4.99945e-06
-2.35323e-08
5.01713e-06
-4.32036e-08
5.05567e-06
-7.5238e-08
5.06687e-06
-5.8579e-08
5.04959e-06
2.35594e-08
4.99651e-06
1.01021e-07
4.98932e-06
6.10165e-08
4.99592e-06
1.95399e-08
5.00019e-06
-1.94e-09
5.00293e-06
-5.61744e-09
5.00252e-06
-2.69662e-10
5.00184e-06
2.51683e-09
5.00254e-06
1.67752e-09
7.01528e-11
4.99986e-06
-1.64719e-11
4.9992e-06
-5.24235e-11
4.99791e-06
-8.67193e-11
4.99531e-06
-1.274e-10
4.9899e-06
-1.68047e-10
4.97909e-06
-2.16964e-10
4.95582e-06
-2.71077e-10
4.91295e-06
-3.34726e-10
4.83813e-06
-4.13698e-10
4.77998e-06
-4.42659e-10
4.80427e-06
-5.87847e-10
4.90604e-06
-6.97997e-10
4.96778e-06
-7.38918e-10
4.98823e-06
-8.99738e-10
4.98745e-06
-1.16263e-09
4.98327e-06
-1.42878e-09
4.98456e-06
-1.56038e-09
4.9889e-06
-1.82865e-09
4.99248e-06
-1.89657e-09
-2.58603e-09
4.99986e-06
1.26434e-10
4.9992e-06
6.01279e-10
4.99791e-06
1.21216e-09
4.9953e-06
2.48465e-09
4.98988e-06
5.2508e-09
4.97905e-06
1.06004e-08
4.95577e-06
2.30112e-08
4.91289e-06
4.25402e-08
4.83804e-06
7.44671e-08
4.77972e-06
5.7831e-08
4.80426e-06
-2.50678e-08
4.90598e-06
-1.0247e-07
4.96775e-06
-6.25184e-08
4.98807e-06
-2.11978e-08
4.98736e-06
-4.52076e-10
4.98294e-06
2.99637e-09
4.98443e-06
-3.05189e-09
4.98889e-06
-6.2853e-09
4.99235e-06
-5.35892e-09
-4.9852e-09
4.99977e-06
3.59511e-10
4.99915e-06
1.22308e-09
4.99792e-06
2.44443e-09
4.9961e-06
4.29853e-09
4.99402e-06
7.33309e-09
4.99373e-06
1.08819e-08
4.99942e-06
1.73134e-08
5.01707e-06
2.49017e-08
5.05562e-06
3.59134e-08
5.06713e-06
4.63705e-08
5.0494e-06
-6.4902e-09
4.99609e-06
-4.91085e-08
4.98884e-06
-5.52673e-08
4.99569e-06
-2.80444e-08
5.00011e-06
-4.86171e-09
5.00232e-06
7.91844e-10
5.00166e-06
-2.38905e-09
5.0009e-06
-5.53315e-09
5.00168e-06
-6.13851e-09
-5.95285e-09
4.99986e-06
4.95247e-10
4.99955e-06
1.54253e-09
4.99911e-06
2.88012e-09
4.99883e-06
4.57938e-09
4.99927e-06
6.88676e-09
5.00027e-06
9.88839e-09
5.00348e-06
1.41004e-08
5.0096e-06
1.877e-08
5.02459e-06
2.0926e-08
5.05552e-06
1.54115e-08
5.04983e-06
-1.60766e-09
5.02283e-06
-2.21641e-08
4.99787e-06
-3.03006e-08
4.99316e-06
-2.33272e-08
4.99864e-06
-1.03407e-08
5.00345e-06
-4.01871e-09
5.00373e-06
-2.66985e-09
5.00235e-06
-4.1607e-09
5.00216e-06
-5.94561e-09
-6.53683e-09
4.99998e-06
5.16953e-10
4.99993e-06
1.59226e-09
5.00001e-06
2.80307e-09
5.00031e-06
4.27448e-09
5.00113e-06
6.0623e-09
5.00279e-06
8.22964e-09
5.00669e-06
1.02151e-08
5.01379e-06
1.16622e-08
5.02356e-06
1.11259e-08
5.03071e-06
8.29652e-09
5.02839e-06
6.37577e-10
5.01627e-06
-1.00096e-08
5.00351e-06
-1.75406e-08
4.99778e-06
-1.75993e-08
4.99941e-06
-1.19816e-08
5.00161e-06
-6.21769e-09
5.0024e-06
-3.46662e-09
5.00212e-06
-3.8904e-09
5.00119e-06
-5.00898e-09
-5.9781e-09
5.00004e-06
4.77589e-10
5.00018e-06
1.44621e-09
5.0005e-06
2.4815e-09
5.00115e-06
3.62875e-09
5.00232e-06
4.89299e-09
5.00439e-06
6.15936e-09
5.00742e-06
7.19733e-09
5.0114e-06
7.68517e-09
5.01513e-06
7.38157e-09
5.01853e-06
4.8773e-09
5.01956e-06
-4.01642e-10
5.01523e-06
-5.69368e-09
5.00854e-06
-1.08644e-08
5.0031e-06
-1.21761e-08
5.00087e-06
-9.75433e-09
5.001e-06
-6.35188e-09
5.00155e-06
-4.01345e-09
5.00131e-06
-3.65433e-09
5.00035e-06
-4.04705e-09
-4.97797e-09
5.00007e-06
3.97727e-10
5.00032e-06
1.19901e-09
5.00079e-06
2.01037e-09
5.00157e-06
2.85838e-09
5.00275e-06
3.71297e-09
5.00441e-06
4.50094e-09
5.00656e-06
5.05403e-09
5.0091e-06
5.15234e-09
5.01203e-06
4.44723e-09
5.0144e-06
2.50183e-09
5.01415e-06
-1.45375e-10
5.01208e-06
-3.64388e-09
5.00775e-06
-6.54291e-09
5.00348e-06
-7.91641e-09
5.00092e-06
-7.19559e-09
5.00013e-06
-5.55609e-09
5.0001e-06
-3.98865e-09
4.99987e-06
-3.42513e-09
4.99917e-06
-3.34368e-09
-4.17357e-09
5.0001e-06
2.97876e-10
5.00039e-06
9.01617e-10
5.00091e-06
1.49989e-09
5.00167e-06
2.09205e-09
5.00274e-06
2.65237e-09
5.00412e-06
3.11608e-09
5.00579e-06
3.38652e-09
5.00763e-06
3.31432e-09
5.00933e-06
2.75386e-09
5.01027e-06
1.5666e-09
5.01043e-06
-3.09477e-10
5.00903e-06
-2.24411e-09
5.0065e-06
-4.01722e-09
5.00367e-06
-5.08623e-09
5.00154e-06
-5.06303e-09
5.00034e-06
-4.35555e-09
4.9997e-06
-3.34563e-09
4.99917e-06
-2.88881e-09
4.99845e-06
-2.62637e-09
-3.21639e-09
5.0001e-06
1.94795e-10
5.00041e-06
5.94358e-10
5.00093e-06
9.85546e-10
5.00166e-06
1.35756e-09
5.00262e-06
1.69533e-09
5.00378e-06
1.95315e-09
5.00509e-06
2.06968e-09
5.00645e-06
1.96004e-09
5.00765e-06
1.55888e-09
5.00839e-06
8.28893e-10
5.00821e-06
-1.31587e-10
5.00733e-06
-1.36267e-09
5.0057e-06
-2.37986e-09
5.00368e-06
-3.066e-09
5.00179e-06
-3.1682e-09
5.00033e-06
-2.89684e-09
4.99932e-06
-2.32576e-09
4.99852e-06
-2.09382e-09
4.99773e-06
-1.83112e-09
-2.27756e-09
5.00008e-06
1.11476e-10
5.00037e-06
3.04862e-10
5.00087e-06
4.94828e-10
5.00155e-06
6.73805e-10
5.00241e-06
8.32469e-10
5.00341e-06
9.49417e-10
5.00448e-06
9.96153e-10
5.0055e-06
9.3626e-10
5.00633e-06
7.37581e-10
5.00679e-06
3.62559e-10
5.00681e-06
-1.41872e-10
5.00608e-06
-6.285e-10
5.00479e-06
-1.09139e-09
5.00315e-06
-1.42676e-09
5.00148e-06
-1.49798e-09
5.00002e-06
-1.43586e-09
4.99889e-06
-1.18648e-09
4.99793e-06
-1.13355e-09
4.99707e-06
-9.7399e-10
-1.4237e-09
5.00012e-06
5.00042e-06
5.00091e-06
5.00159e-06
5.00242e-06
5.00337e-06
5.00436e-06
5.00529e-06
5.00603e-06
5.00639e-06
5.00625e-06
5.00562e-06
5.00453e-06
5.00311e-06
5.0016e-06
5.00017e-06
4.99899e-06
4.99785e-06
4.99687e-06
)
;

boundaryField
{
    sides
    {
        type            calculated;
        value           uniform 0;
    }
    inlet
    {
        type            calculated;
        value           nonuniform List<scalar> 
20
(
-5e-06
-5e-06
-5e-06
-5e-06
-5e-06
-5e-06
-5e-06
-5e-06
-5e-06
-5e-06
-5e-06
-5e-06
-5e-06
-5e-06
-5e-06
-5e-06
-5e-06
-5e-06
-5e-06
-5e-06
)
;
    }
    outlet
    {
        type            calculated;
        value           nonuniform List<scalar> 
20
(
5.0019e-06
5.00141e-06
5.00152e-06
5.00143e-06
5.00172e-06
5.002e-06
5.00279e-06
5.00422e-06
5.00344e-06
4.99514e-06
4.99475e-06
5.00265e-06
5.00275e-06
5.00064e-06
4.99935e-06
4.99837e-06
4.99749e-06
4.99679e-06
4.99621e-06
4.99544e-06
)
;
    }
    frontAndBack
    {
        type            empty;
        value           nonuniform List<scalar> 0();
    }
}


// ************************************************************************* //
