/*--------------------------------*- C++ -*----------------------------------*\
  =========                 |
  \\      /  F ield         | OpenFOAM: The Open Source CFD Toolbox
   \\    /   O peration     | Website:  https://openfoam.org
    \\  /    A nd           | Version:  9
     \\/     M anipulation  |
\*---------------------------------------------------------------------------*/
FoamFile
{
    format      ascii;
    class       volVectorField;
    location    "120";
    object      D;
}
// * * * * * * * * * * * * * * * * * * * * * * * * * * * * * * * * * * * * * //

dimensions      [0 1 0 0 0 0 0];

internalField   nonuniform List<vector> 
1000
(
(5.92412e-08 -2.62206e-08 0)
(5.55639e-08 -2.36153e-08 0)
(5.33096e-08 -2.19684e-08 0)
(5.19929e-08 -2.09291e-08 0)
(5.13229e-08 -2.02931e-08 0)
(5.11135e-08 -1.9933e-08 0)
(5.12397e-08 -1.97649e-08 0)
(5.16145e-08 -1.97319e-08 0)
(5.21762e-08 -1.9795e-08 0)
(5.28879e-08 -1.99293e-08 0)
(5.36543e-08 -2.84991e-08 0)
(4.97726e-08 -2.63858e-08 0)
(4.73931e-08 -2.5036e-08 0)
(4.59918e-08 -2.41788e-08 0)
(4.52568e-08 -2.36552e-08 0)
(4.49904e-08 -2.33648e-08 0)
(4.50613e-08 -2.32403e-08 0)
(4.53797e-08 -2.32356e-08 0)
(4.58839e-08 -2.33183e-08 0)
(4.65365e-08 -2.34662e-08 0)
(4.78248e-08 -3.06413e-08 0)
(4.38854e-08 -2.90893e-08 0)
(4.14712e-08 -2.80797e-08 0)
(4.0041e-08 -2.74318e-08 0)
(3.9275e-08 -2.7038e-08 0)
(3.89717e-08 -2.68282e-08 0)
(3.89985e-08 -2.67544e-08 0)
(3.92653e-08 -2.67822e-08 0)
(3.97101e-08 -2.68869e-08 0)
(4.02935e-08 -2.70508e-08 0)
(4.17947e-08 -3.26136e-08 0)
(3.79547e-08 -3.16584e-08 0)
(3.5602e-08 -3.10115e-08 0)
(3.42024e-08 -3.05875e-08 0)
(3.34415e-08 -3.0333e-08 0)
(3.31224e-08 -3.02103e-08 0)
(3.31159e-08 -3.01915e-08 0)
(3.33346e-08 -3.0255e-08 0)
(3.37183e-08 -3.03843e-08 0)
(3.42279e-08 -3.05668e-08 0)
(3.56022e-08 -3.43821e-08 0)
(3.20203e-08 -3.40241e-08 0)
(2.98265e-08 -3.37407e-08 0)
(2.85174e-08 -3.35416e-08 0)
(2.77979e-08 -3.34275e-08 0)
(2.74838e-08 -3.33931e-08 0)
(2.74547e-08 -3.34304e-08 0)
(2.76294e-08 -3.35308e-08 0)
(2.79516e-08 -3.3686e-08 0)
(2.83852e-08 -3.38883e-08 0)
(2.92815e-08 -3.59138e-08 0)
(2.61103e-08 -3.61183e-08 0)
(2.41684e-08 -3.61778e-08 0)
(2.30068e-08 -3.61914e-08 0)
(2.23631e-08 -3.62104e-08 0)
(2.20739e-08 -3.62601e-08 0)
(2.20328e-08 -3.63513e-08 0)
(2.21678e-08 -3.64873e-08 0)
(2.24294e-08 -3.66677e-08 0)
(2.27856e-08 -3.689e-08 0)
(2.28628e-08 -3.71779e-08 0)
(2.02404e-08 -3.78777e-08 0)
(1.86342e-08 -3.82393e-08 0)
(1.76712e-08 -3.84408e-08 0)
(1.71342e-08 -3.85778e-08 0)
(1.6888e-08 -3.87021e-08 0)
(1.68446e-08 -3.88414e-08 0)
(1.69444e-08 -3.90096e-08 0)
(1.71466e-08 -3.92131e-08 0)
(1.74247e-08 -3.94537e-08 0)
(1.63729e-08 -3.81461e-08 0)
(1.44154e-08 -3.92454e-08 0)
(1.32144e-08 -3.98515e-08 0)
(1.24929e-08 -4.02051e-08 0)
(1.20887e-08 -4.04376e-08 0)
(1.19009e-08 -4.06226e-08 0)
(1.18635e-08 -4.0801e-08 0)
(1.1932e-08 -4.09955e-08 0)
(1.2076e-08 -4.12181e-08 0)
(1.22755e-08 -4.14744e-08 0)
(9.83652e-09 -3.8793e-08 0)
(8.63037e-09 -4.01733e-08 0)
(7.88671e-09 -4.09514e-08 0)
(7.43907e-09 -4.14116e-08 0)
(7.18784e-09 -4.17108e-08 0)
(7.0702e-09 -4.19379e-08 0)
(7.04515e-09 -4.21436e-08 0)
(7.08522e-09 -4.23566e-08 0)
(7.17169e-09 -4.2593e-08 0)
(7.29238e-09 -4.28611e-08 0)
(3.27884e-09 -3.90966e-08 0)
(2.87377e-09 -4.06167e-08 0)
(2.61956e-09 -4.1478e-08 0)
(2.46654e-09 -4.19884e-08 0)
(2.38069e-09 -4.23187e-08 0)
(2.3403e-09 -4.25654e-08 0)
(2.3313e-09 -4.27839e-08 0)
(2.34438e-09 -4.30059e-08 0)
(2.37329e-09 -4.32493e-08 0)
(2.41414e-09 -4.35242e-08 0)
(9.13808e-08 -1.21262e-09 0)
(9.19139e-08 -8.67297e-10 0)
(9.22458e-08 -6.35352e-10 0)
(9.25815e-08 -4.89625e-10 0)
(9.30197e-08 -4.00864e-10 0)
(9.36034e-08 -3.4915e-10 0)
(9.4347e-08 -3.2175e-10 0)
(9.52506e-08 -3.10405e-10 0)
(9.63068e-08 -3.09687e-10 0)
(9.75057e-08 -3.16093e-10 0)
(9.07937e-08 -3.69658e-09 0)
(9.11855e-08 -2.61941e-09 0)
(9.14298e-08 -1.94353e-09 0)
(9.17118e-08 -1.52052e-09 0)
(9.21151e-08 -1.26151e-09 0)
(9.26745e-08 -1.11018e-09 0)
(9.33995e-08 -1.03002e-09 0)
(9.42874e-08 -9.96893e-10 0)
(9.53288e-08 -9.94477e-10 0)
(9.6512e-08 -1.0115e-09 0)
(8.95052e-08 -6.20199e-09 0)
(8.96259e-08 -4.43863e-09 0)
(8.97017e-08 -3.3475e-09 0)
(8.98763e-08 -2.66773e-09 0)
(9.02091e-08 -2.25147e-09 0)
(9.07198e-08 -2.00805e-09 0)
(9.14085e-08 -1.87918e-09 0)
(9.22664e-08 -1.82612e-09 0)
(9.32805e-08 -1.82241e-09 0)
(9.44361e-08 -1.84971e-09 0)
(8.75632e-08 -8.7222e-09 0)
(8.73007e-08 -6.36217e-09 0)
(8.71409e-08 -4.90557e-09 0)
(8.7165e-08 -4.00018e-09 0)
(8.73982e-08 -3.44634e-09 0)
(8.78394e-08 -3.12278e-09 0)
(8.84763e-08 -2.95199e-09 0)
(8.92917e-08 -2.88252e-09 0)
(9.02672e-08 -2.87918e-09 0)
(9.13847e-08 -2.91761e-09 0)
(8.50082e-08 -1.12551e-08 0)
(8.42721e-08 -8.4172e-09 0)
(8.38221e-08 -6.66407e-09 0)
(8.36615e-08 -5.57461e-09 0)
(8.37723e-08 -4.90865e-09 0)
(8.4128e-08 -4.52027e-09 0)
(8.47006e-08 -4.31638e-09 0)
(8.54632e-08 -4.23526e-09 0)
(8.63909e-08 -4.23467e-09 0)
(8.74612e-08 -4.28548e-09 0)
(8.18802e-08 -1.37971e-08 0)
(8.0609e-08 -1.06206e-08 0)
(7.98312e-08 -8.65441e-09 0)
(7.94621e-08 -7.43126e-09 0)
(7.94345e-08 -6.68365e-09 0)
(7.96934e-08 -6.24852e-09 0)
(8.01929e-08 -6.0218e-09 0)
(8.08949e-08 -5.93448e-09 0)
(8.17677e-08 -5.93931e-09 0)
(8.27835e-08 -6.00374e-09 0)
(7.82221e-08 -1.63407e-08 0)
(7.63876e-08 -1.29781e-08 0)
(7.52643e-08 -1.08912e-08 0)
(7.46752e-08 -9.59084e-09 0)
(7.45014e-08 -8.79567e-09 0)
(7.46574e-08 -8.33387e-09 0)
(7.50785e-08 -8.09549e-09 0)
(7.57152e-08 -8.00763e-09 0)
(7.65281e-08 -8.02037e-09 0)
(7.74845e-08 -8.09939e-09 0)
(7.40801e-08 -1.88741e-08 0)
(7.16893e-08 -1.54825e-08 0)
(7.02245e-08 -1.33714e-08 0)
(6.94175e-08 -1.20529e-08 0)
(6.90982e-08 -1.12461e-08 0)
(6.91507e-08 -1.07788e-08 0)
(6.94922e-08 -1.05404e-08 0)
(7.00614e-08 -1.04574e-08 0)
(7.0812e-08 -1.04797e-08 0)
(7.17062e-08 -1.05735e-08 0)
(6.95028e-08 -2.13804e-08 0)
(6.65979e-08 -1.81141e-08 0)
(6.48175e-08 -1.60733e-08 0)
(6.38083e-08 -1.47953e-08 0)
(6.33526e-08 -1.40129e-08 0)
(6.33066e-08 -1.35614e-08 0)
(6.35706e-08 -1.33347e-08 0)
(6.4073e-08 -1.32618e-08 0)
(6.47611e-08 -1.32943e-08 0)
(6.55934e-08 -1.34009e-08 0)
(6.454e-08 -2.38378e-08 0)
(6.11964e-08 -2.08398e-08 0)
(5.91468e-08 -1.89575e-08 0)
(5.79639e-08 -1.77749e-08 0)
(5.7389e-08 -1.70507e-08 0)
(5.72543e-08 -1.66357e-08 0)
(5.74459e-08 -1.64327e-08 0)
(5.78835e-08 -1.63761e-08 0)
(5.85097e-08 -1.64202e-08 0)
(5.92825e-08 -1.65348e-08 0)
(9.88357e-08 -3.18853e-10 0)
(1.00294e-07 -3.12344e-10 0)
(1.01858e-07 -3.06081e-10 0)
(1.03516e-07 -2.99364e-10 0)
(1.05259e-07 -2.91519e-10 0)
(1.07079e-07 -2.81994e-10 0)
(1.08968e-07 -2.70354e-10 0)
(1.10919e-07 -2.56248e-10 0)
(1.12925e-07 -2.39369e-10 0)
(1.1498e-07 -2.19421e-10 0)
(1.17077e-07 -1.96095e-10 0)
(1.19211e-07 -1.69046e-10 0)
(1.21375e-07 -1.37873e-10 0)
(1.23565e-07 -1.02105e-10 0)
(1.25772e-07 -6.11757e-11 0)
(1.27992e-07 -1.44133e-11 0)
(1.30217e-07 3.89314e-11 0)
(1.32438e-07 9.94129e-11 0)
(1.34648e-07 1.66173e-10 0)
(1.36837e-07 2.33139e-10 0)
(9.78805e-08 -1.01145e-09 0)
(9.9422e-08 -9.81985e-10 0)
(1.01056e-07 -9.56278e-10 0)
(1.02776e-07 -9.31002e-10 0)
(1.04574e-07 -9.03495e-10 0)
(1.06442e-07 -8.7178e-10 0)
(1.08374e-07 -8.34368e-10 0)
(1.10364e-07 -7.90079e-10 0)
(1.12405e-07 -7.37896e-10 0)
(1.14492e-07 -6.76859e-10 0)
(1.1662e-07 -6.05984e-10 0)
(1.18781e-07 -5.24192e-10 0)
(1.20972e-07 -4.30252e-10 0)
(1.23186e-07 -3.22728e-10 0)
(1.25417e-07 -1.99935e-10 0)
(1.2766e-07 -5.99162e-11 0)
(1.29907e-07 9.95168e-11 0)
(1.32151e-07 2.80643e-10 0)
(1.34384e-07 4.85815e-10 0)
(1.36596e-07 7.18891e-10 0)
(9.58862e-08 -1.83493e-09 0)
(9.75989e-08 -1.76314e-09 0)
(9.9382e-08 -1.7019e-09 0)
(1.01232e-07 -1.64503e-09 0)
(1.03144e-07 -1.58739e-09 0)
(1.05113e-07 -1.52507e-09 0)
(1.07136e-07 -1.45515e-09 0)
(1.09207e-07 -1.37528e-09 0)
(1.11322e-07 -1.28351e-09 0)
(1.13476e-07 -1.17801e-09 0)
(1.15665e-07 -1.05696e-09 0)
(1.17884e-07 -9.18442e-10 0)
(1.20129e-07 -7.60291e-10 0)
(1.22393e-07 -5.80033e-10 0)
(1.24673e-07 -3.74794e-10 0)
(1.26961e-07 -1.41225e-10 0)
(1.29253e-07 1.24592e-10 0)
(1.31541e-07 4.27367e-10 0)
(1.33816e-07 7.73406e-10 0)
(1.36069e-07 1.17317e-09 0)
(9.29523e-08 -2.87094e-09 0)
(9.49114e-08 -2.72696e-09 0)
(9.69101e-08 -2.60496e-09 0)
(9.89493e-08 -2.49556e-09 0)
(1.01029e-07 -2.39061e-09 0)
(1.03147e-07 -2.28373e-09 0)
(1.05303e-07 -2.16998e-09 0)
(1.07495e-07 -2.04543e-09 0)
(1.09719e-07 -1.90677e-09 0)
(1.11972e-07 -1.75101e-09 0)
(1.14253e-07 -1.57527e-09 0)
(1.16557e-07 -1.37655e-09 0)
(1.1888e-07 -1.1516e-09 0)
(1.21219e-07 -8.96753e-10 0)
(1.23568e-07 -6.07792e-10 0)
(1.25924e-07 -2.79782e-10 0)
(1.28281e-07 9.31661e-11 0)
(1.30631e-07 5.18331e-10 0)
(1.32967e-07 1.00543e-09 0)
(1.35279e-07 1.56948e-09 0)
(8.91753e-08 -4.18524e-09 0)
(9.1443e-08 -3.93122e-09 0)
(9.37139e-08 -3.71619e-09 0)
(9.59942e-08 -3.52722e-09 0)
(9.82879e-08 -3.35255e-09 0)
(1.00598e-07 -3.18269e-09 0)
(1.02926e-07 -3.01008e-09 0)
(1.05272e-07 -2.82866e-09 0)
(1.07637e-07 -2.6333e-09 0)
(1.10019e-07 -2.41947e-09 0)
(1.12418e-07 -2.18288e-09 0)
(1.14831e-07 -1.91921e-09 0)
(1.17257e-07 -1.62388e-09 0)
(1.19692e-07 -1.29186e-09 0)
(1.22132e-07 -9.17389e-10 0)
(1.24574e-07 -4.9379e-10 0)
(1.27014e-07 -1.30921e-11 0)
(1.29444e-07 5.34495e-10 0)
(1.31859e-07 1.16176e-09 0)
(1.34249e-07 1.88783e-09 0)
(8.46653e-08 -5.82569e-09 0)
(8.72887e-08 -5.41907e-09 0)
(8.98769e-08 -5.07419e-09 0)
(9.24402e-08 -4.77444e-09 0)
(9.49871e-08 -4.50389e-09 0)
(9.75244e-08 -4.24932e-09 0)
(1.00057e-07 -3.99998e-09 0)
(1.02589e-07 -3.74708e-09 0)
(1.05123e-07 -3.48322e-09 0)
(1.0766e-07 -3.20185e-09 0)
(1.10202e-07 -2.89692e-09 0)
(1.12747e-07 -2.5625e-09 0)
(1.15295e-07 -2.19245e-09 0)
(1.17846e-07 -1.78011e-09 0)
(1.20395e-07 -1.31805e-09 0)
(1.22941e-07 -7.97704e-10 0)
(1.2548e-07 -2.0895e-10 0)
(1.28007e-07 4.605e-10 0)
(1.30516e-07 1.22645e-09 0)
(1.33e-07 2.1121e-09 0)
(7.95458e-08 -7.81913e-09 0)
(8.25553e-08 -7.21677e-09 0)
(8.54924e-08 -6.70376e-09 0)
(8.83701e-08 -6.26013e-09 0)
(9.12007e-08 -5.86552e-09 0)
(9.39945e-08 -5.50254e-09 0)
(9.67597e-08 -5.15677e-09 0)
(9.95032e-08 -4.81618e-09 0)
(1.0223e-07 -4.47057e-09 0)
(1.04945e-07 -4.11101e-09 0)
(1.07649e-07 -3.7293e-09 0)
(1.10346e-07 -3.31758e-09 0)
(1.13036e-07 -2.86786e-09 0)
(1.15718e-07 -2.37171e-09 0)
(1.18393e-07 -1.81984e-09 0)
(1.21057e-07 -1.20167e-09 0)
(1.2371e-07 -5.04887e-10 0)
(1.26347e-07 2.85332e-10 0)
(1.28964e-07 1.18781e-09 0)
(1.31556e-07 2.2298e-09 0)
(7.39495e-08 -1.01693e-08 0)
(7.73579e-08 -9.33193e-09 0)
(8.06613e-08 -8.61461e-09 0)
(8.38734e-08 -7.99479e-09 0)
(8.7009e-08 -7.44788e-09 0)
(9.00807e-08 -6.95232e-09 0)
(9.30996e-08 -6.48971e-09 0)
(9.60751e-08 -6.04444e-09 0)
(9.90148e-08 -5.60315e-09 0)
(1.01925e-07 -5.15408e-09 0)
(1.04811e-07 -4.68657e-09 0)
(1.07675e-07 -4.19051e-09 0)
(1.10521e-07 -3.65587e-09 0)
(1.1335e-07 -3.0722e-09 0)
(1.16163e-07 -2.42823e-09 0)
(1.18959e-07 -1.71132e-09 0)
(1.21737e-07 -9.06889e-10 0)
(1.24495e-07 2.42759e-12 0)
(1.27232e-07 1.03846e-09 0)
(1.29943e-07 2.23236e-09 0)
(6.80145e-08 -1.28562e-08 0)
(7.18181e-08 -1.17529e-08 0)
(7.54912e-08 -1.08008e-08 0)
(7.90458e-08 -9.97592e-09 0)
(8.24975e-08 -9.25052e-09 0)
(8.58604e-08 -8.5993e-09 0)
(8.91472e-08 -8e-09 0)
(9.23691e-08 -7.43329e-09 0)
(9.5536e-08 -6.88238e-09 0)
(9.8656e-08 -6.33242e-09 0)
(1.01736e-07 -5.76998e-09 0)
(1.04781e-07 -5.18246e-09 0)
(1.07796e-07 -4.55754e-09 0)
(1.10782e-07 -3.88263e-09 0)
(1.13744e-07 -3.14434e-09 0)
(1.16681e-07 -2.32794e-09 0)
(1.19594e-07 -1.4166e-09 0)
(1.22483e-07 -3.90508e-10 0)
(1.25348e-07 7.7509e-10 0)
(1.28188e-07 2.11509e-09 0)
(6.18855e-08 -1.58352e-08 0)
(6.60695e-08 -1.44452e-08 0)
(7.01022e-08 -1.32359e-08 0)
(7.3995e-08 -1.2183e-08 0)
(7.77628e-08 -1.12572e-08 0)
(8.14201e-08 -1.04304e-08 0)
(8.49803e-08 -9.67695e-09 0)
(8.84559e-08 -8.97381e-09 0)
(9.1858e-08 -8.3007e-09 0)
(9.51962e-08 -7.63951e-09 0)
(9.8479e-08 -6.97384e-09 0)
(1.01713e-07 -6.28839e-09 0)
(1.04904e-07 -5.56838e-09 0)
(1.08057e-07 -4.79894e-09 0)
(1.11175e-07 -3.96454e-09 0)
(1.1426e-07 -3.04832e-09 0)
(1.17316e-07 -2.03134e-09 0)
(1.20342e-07 -8.91554e-10 0)
(1.23341e-07 3.98361e-10 0)
(1.26315e-07 1.87696e-09 0)
(5.73857e-08 -1.85026e-08 0)
(6.17958e-08 -1.68985e-08 0)
(6.60396e-08 -1.54994e-08 0)
(7.01366e-08 -1.42708e-08 0)
(7.41008e-08 -1.31819e-08 0)
(7.79452e-08 -1.22041e-08 0)
(8.16821e-08 -1.13113e-08 0)
(8.53232e-08 -1.04796e-08 0)
(8.88796e-08 -9.68764e-09 0)
(9.23609e-08 -8.91578e-09 0)
(9.57759e-08 -8.14615e-09 0)
(9.91321e-08 -7.36196e-09 0)
(1.02436e-07 -6.547e-09 0)
(1.05693e-07 -5.68508e-09 0)
(1.08907e-07 -4.75945e-09 0)
(1.12083e-07 -3.75217e-09 0)
(1.15223e-07 -2.6434e-09 0)
(1.18331e-07 -1.41035e-09 0)
(1.21411e-07 -2.52267e-11 0)
(1.24466e-07 1.55089e-09 0)
(5.47871e-08 -2.05632e-08 0)
(5.92091e-08 -1.88947e-08 0)
(6.34917e-08 -1.74046e-08 0)
(6.76411e-08 -1.60753e-08 0)
(7.16653e-08 -1.48804e-08 0)
(7.55734e-08 -1.37946e-08 0)
(7.93748e-08 -1.27938e-08 0)
(8.30792e-08 -1.1856e-08 0)
(8.66958e-08 -1.09607e-08 0)
(9.02333e-08 -1.0089e-08 0)
(9.36996e-08 -9.22325e-09 0)
(9.71019e-08 -8.34666e-09 0)
(1.00447e-07 -7.44292e-09 0)
(1.03739e-07 -6.49569e-09 0)
(1.06985e-07 -5.48818e-09 0)
(1.10189e-07 -4.40257e-09 0)
(1.13354e-07 -3.2194e-09 0)
(1.16485e-07 -1.91668e-09 0)
(1.19588e-07 -4.67986e-10 0)
(1.22667e-07 1.1629e-09 0)
(5.24739e-08 -2.25216e-08 0)
(5.68617e-08 -2.082e-08 0)
(6.11394e-08 -1.92669e-08 0)
(6.53033e-08 -1.78565e-08 0)
(6.93547e-08 -1.65705e-08 0)
(7.3298e-08 -1.53881e-08 0)
(7.71394e-08 -1.42884e-08 0)
(8.08859e-08 -1.32513e-08 0)
(8.45447e-08 -1.22581e-08 0)
(8.81232e-08 -1.12908e-08 0)
(9.16282e-08 -1.03323e-08 0)
(9.50664e-08 -9.36634e-09 0)
(9.84437e-08 -8.37675e-09 0)
(1.01766e-07 -7.34746e-09 0)
(1.05038e-07 -6.26195e-09 0)
(1.08265e-07 -5.10287e-09 0)
(1.11453e-07 -3.85153e-09 0)
(1.14605e-07 -2.4871e-09 0)
(1.17729e-07 -9.85087e-10 0)
(1.20833e-07 6.87621e-10 0)
(5.0417e-08 -2.43815e-08 0)
(5.47457e-08 -2.26651e-08 0)
(5.89873e-08 -2.10701e-08 0)
(6.31345e-08 -1.95974e-08 0)
(6.7184e-08 -1.82357e-08 0)
(7.11363e-08 -1.69692e-08 0)
(7.49942e-08 -1.57807e-08 0)
(7.87621e-08 -1.46527e-08 0)
(8.24453e-08 -1.35683e-08 0)
(8.60494e-08 -1.25109e-08 0)
(8.95801e-08 -1.14645e-08 0)
(9.30433e-08 -1.04133e-08 0)
(9.64445e-08 -9.34199e-09 0)
(9.9789e-08 -8.23486e-09 0)
(1.03082e-07 -7.07602e-09 0)
(1.06329e-07 -5.8489e-09 0)
(1.09535e-07 -4.53586e-09 0)
(1.12707e-07 -3.1176e-09 0)
(1.15851e-07 -1.57184e-09 0)
(1.18976e-07 1.31149e-10 0)
(4.85825e-08 -2.61435e-08 0)
(5.28357e-08 -2.44253e-08 0)
(5.70202e-08 -2.28042e-08 0)
(6.11276e-08 -2.12853e-08 0)
(6.51522e-08 -1.98624e-08 0)
(6.90914e-08 -1.85244e-08 0)
(7.29456e-08 -1.72579e-08 0)
(7.67166e-08 -1.60481e-08 0)
(8.04078e-08 -1.48803e-08 0)
(8.40234e-08 -1.37396e-08 0)
(8.75677e-08 -1.26111e-08 0)
(9.10457e-08 -1.14802e-08 0)
(9.44622e-08 -1.03322e-08 0)
(9.78221e-08 -9.15228e-09 0)
(1.01131e-07 -7.92543e-09 0)
(1.04393e-07 -6.63609e-09 0)
(1.07615e-07 -5.26793e-09 0)
(1.10803e-07 -3.80342e-09 0)
(1.13965e-07 -2.22268e-09 0)
(1.1711e-07 -4.99558e-10 0)
(4.69376e-08 -2.78103e-08 0)
(5.1104e-08 -2.60996e-08 0)
(5.52174e-08 -2.44643e-08 0)
(5.92687e-08 -2.29121e-08 0)
(6.32509e-08 -2.1441e-08 0)
(6.71598e-08 -2.00435e-08 0)
(7.09935e-08 -1.87097e-08 0)
(7.47522e-08 -1.74277e-08 0)
(7.84376e-08 -1.6185e-08 0)
(8.20521e-08 -1.49684e-08 0)
(8.55992e-08 -1.37646e-08 0)
(8.90826e-08 -1.25601e-08 0)
(9.25066e-08 -1.13412e-08 0)
(9.58755e-08 -1.00942e-08 0)
(9.91943e-08 -8.80513e-09 0)
(1.02468e-07 -7.45965e-09 0)
(1.05703e-07 -6.04291e-09 0)
(1.08905e-07 -4.53929e-09 0)
(1.12082e-07 -2.93145e-09 0)
(1.15245e-07 -1.19691e-09 0)
(4.54513e-08 -2.93862e-08 0)
(4.95241e-08 -2.76895e-08 0)
(5.35571e-08 -2.6049e-08 0)
(5.7541e-08 -2.4474e-08 0)
(6.14683e-08 -2.29655e-08 0)
(6.53337e-08 -2.15193e-08 0)
(6.91341e-08 -2.01284e-08 0)
(7.2868e-08 -1.87837e-08 0)
(7.65359e-08 -1.74747e-08 0)
(8.01389e-08 -1.61901e-08 0)
(8.36794e-08 -1.49182e-08 0)
(8.71601e-08 -1.36467e-08 0)
(9.05847e-08 -1.23633e-08 0)
(9.39569e-08 -1.10554e-08 0)
(9.72812e-08 -9.71016e-09 0)
(1.00563e-07 -8.31469e-09 0)
(1.03807e-07 -6.85574e-09 0)
(1.0702e-07 -5.31965e-09 0)
(1.10211e-07 -3.69166e-09 0)
(1.1339e-07 -1.95297e-09 0)
(4.40954e-08 -3.08769e-08 0)
(4.80711e-08 -2.91985e-08 0)
(5.20181e-08 -2.75591e-08 0)
(5.59273e-08 -2.59695e-08 0)
(5.97911e-08 -2.44327e-08 0)
(6.36035e-08 -2.29473e-08 0)
(6.73606e-08 -2.15088e-08 0)
(7.10601e-08 -2.01102e-08 0)
(7.47012e-08 -1.87434e-08 0)
(7.82842e-08 -1.73988e-08 0)
(8.18102e-08 -1.60661e-08 0)
(8.52815e-08 -1.47347e-08 0)
(8.87007e-08 -1.33934e-08 0)
(9.20712e-08 -1.20309e-08 0)
(9.53969e-08 -1.06358e-08 0)
(9.86825e-08 -9.19645e-09 0)
(1.01933e-07 -7.70136e-09 0)
(1.05156e-07 -6.13887e-09 0)
(1.08358e-07 -4.49673e-09 0)
(1.1155e-07 -2.75971e-09 0)
(4.28443e-08 -3.22887e-08 0)
(4.67221e-08 -3.06308e-08 0)
(5.05803e-08 -2.89971e-08 0)
(5.44104e-08 -2.73992e-08 0)
(5.82049e-08 -2.58417e-08 0)
(6.19578e-08 -2.43252e-08 0)
(6.56647e-08 -2.28473e-08 0)
(6.93226e-08 -2.14033e-08 0)
(7.29298e-08 -1.99867e-08 0)
(7.6486e-08 -1.85898e-08 0)
(7.99915e-08 -1.72039e-08 0)
(8.34478e-08 -1.58196e-08 0)
(8.68568e-08 -1.44272e-08 0)
(9.02214e-08 -1.30166e-08 0)
(9.3545e-08 -1.15777e-08 0)
(9.68318e-08 -1.01004e-08 0)
(1.00087e-07 -8.57488e-09 0)
(1.03317e-07 -6.9914e-09 0)
(1.06528e-07 -5.34015e-09 0)
(1.0973e-07 -3.60924e-09 0)
(4.16752e-08 -3.36281e-08 0)
(4.54558e-08 -3.19916e-08 0)
(4.92245e-08 -3.03666e-08 0)
(5.29734e-08 -2.8765e-08 0)
(5.66954e-08 -2.71927e-08 0)
(6.03847e-08 -2.5652e-08 0)
(6.40366e-08 -2.41422e-08 0)
(6.76478e-08 -2.26603e-08 0)
(7.12162e-08 -2.12017e-08 0)
(7.47406e-08 -1.976e-08 0)
(7.8221e-08 -1.83281e-08 0)
(8.16579e-08 -1.68979e-08 0)
(8.5053e-08 -1.54609e-08 0)
(8.84083e-08 -1.40085e-08 0)
(9.17269e-08 -1.25318e-08 0)
(9.50126e-08 -1.10223e-08 0)
(9.82698e-08 -9.47162e-09 0)
(1.01504e-07 -7.87193e-09 0)
(1.04723e-07 -6.21567e-09 0)
(1.07935e-07 -4.49405e-09 0)
(4.05675e-08 -3.49016e-08 0)
(4.42529e-08 -3.32862e-08 0)
(4.79328e-08 -3.16716e-08 0)
(5.16002e-08 -3.00697e-08 0)
(5.52484e-08 -2.84874e-08 0)
(5.88719e-08 -2.69283e-08 0)
(6.24661e-08 -2.5393e-08 0)
(6.60275e-08 -2.38802e-08 0)
(6.95536e-08 -2.23865e-08 0)
(7.30429e-08 -2.09071e-08 0)
(7.64948e-08 -1.94361e-08 0)
(7.99094e-08 -1.79666e-08 0)
(8.32876e-08 -1.64916e-08 0)
(8.66312e-08 -1.50035e-08 0)
(8.99426e-08 -1.34949e-08 0)
(9.32251e-08 -1.19584e-08 0)
(9.64827e-08 -1.03873e-08 0)
(9.97205e-08 -8.77549e-09 0)
(1.02945e-07 -7.11744e-09 0)
(1.06163e-07 -5.40714e-09 0)
(3.95028e-08 -3.61153e-08 0)
(4.30955e-08 -3.45199e-08 0)
(4.66884e-08 -3.29165e-08 0)
(5.02751e-08 -3.13167e-08 0)
(5.38496e-08 -2.97282e-08 0)
(5.74068e-08 -2.81554e-08 0)
(6.09422e-08 -2.66003e-08 0)
(6.44523e-08 -2.50627e-08 0)
(6.79344e-08 -2.35404e-08 0)
(7.13867e-08 -2.20298e-08 0)
(7.48081e-08 -2.05262e-08 0)
(7.81983e-08 -1.9024e-08 0)
(8.15579e-08 -1.75171e-08 0)
(8.4888e-08 -1.59991e-08 0)
(8.81906e-08 -1.44639e-08 0)
(9.14684e-08 -1.29053e-08 0)
(9.47249e-08 -1.1318e-08 0)
(9.79645e-08 -9.69754e-09 0)
(1.01193e-07 -8.04013e-09 0)
(1.04417e-07 -6.34217e-09 0)
(3.84636e-08 -3.72747e-08 0)
(4.19669e-08 -3.56979e-08 0)
(4.54753e-08 -3.41057e-08 0)
(4.89833e-08 -3.25097e-08 0)
(5.24855e-08 -3.09179e-08 0)
(5.59771e-08 -2.93355e-08 0)
(5.9454e-08 -2.77655e-08 0)
(6.29127e-08 -2.62085e-08 0)
(6.63503e-08 -2.46635e-08 0)
(6.97649e-08 -2.31278e-08 0)
(7.3155e-08 -2.15977e-08 0)
(7.652e-08 -2.00687e-08 0)
(7.986e-08 -1.85357e-08 0)
(8.31756e-08 -1.69933e-08 0)
(8.64684e-08 -1.54364e-08 0)
(8.97404e-08 -1.38601e-08 0)
(9.29947e-08 -1.22604e-08 0)
(9.62351e-08 -1.06341e-08 0)
(9.94663e-08 -8.97895e-09 0)
(1.02694e-07 -7.29349e-09 0)
(3.74338e-08 -3.83847e-08 0)
(4.0851e-08 -3.68248e-08 0)
(4.4278e-08 -3.52436e-08 0)
(4.771e-08 -3.36524e-08 0)
(5.11423e-08 -3.20597e-08 0)
(5.45704e-08 -3.04713e-08 0)
(5.79904e-08 -2.88906e-08 0)
(6.13988e-08 -2.73191e-08 0)
(6.47928e-08 -2.57566e-08 0)
(6.81701e-08 -2.42014e-08 0)
(7.15292e-08 -2.26505e-08 0)
(7.4869e-08 -2.11002e-08 0)
(7.81892e-08 -1.95463e-08 0)
(8.149e-08 -1.79845e-08 0)
(8.47725e-08 -1.64105e-08 0)
(8.80383e-08 -1.48205e-08 0)
(9.12897e-08 -1.32116e-08 0)
(9.45298e-08 -1.15816e-08 0)
(9.77627e-08 -9.92977e-09 0)
(1.00993e-07 -8.25626e-09 0)
(3.63974e-08 -3.945e-08 0)
(3.97321e-08 -3.79052e-08 0)
(4.30814e-08 -3.63345e-08 0)
(4.6441e-08 -3.47491e-08 0)
(4.98067e-08 -3.31574e-08 0)
(5.31744e-08 -3.15657e-08 0)
(5.65402e-08 -2.99781e-08 0)
(5.99008e-08 -2.83965e-08 0)
(6.32531e-08 -2.68214e-08 0)
(6.65949e-08 -2.52516e-08 0)
(6.99241e-08 -2.3685e-08 0)
(7.32396e-08 -2.21185e-08 0)
(7.65406e-08 -2.05488e-08 0)
(7.9827e-08 -1.89721e-08 0)
(8.30992e-08 -1.7385e-08 0)
(8.63585e-08 -1.57847e-08 0)
(8.96065e-08 -1.41691e-08 0)
(9.28458e-08 -1.25371e-08 0)
(9.60796e-08 -1.08891e-08 0)
(9.93119e-08 -9.22642e-09 0)
(3.53383e-08 -4.04747e-08 0)
(3.85945e-08 -3.89434e-08 0)
(4.18704e-08 -3.73828e-08 0)
(4.51621e-08 -3.58038e-08 0)
(4.84656e-08 -3.42149e-08 0)
(5.17771e-08 -3.26226e-08 0)
(5.50927e-08 -3.10313e-08 0)
(5.84089e-08 -2.94434e-08 0)
(6.17228e-08 -2.78599e-08 0)
(6.50316e-08 -2.62801e-08 0)
(6.83333e-08 -2.47024e-08 0)
(7.16261e-08 -2.31243e-08 0)
(7.49092e-08 -2.1543e-08 0)
(7.8182e-08 -1.99555e-08 0)
(8.14444e-08 -1.83589e-08 0)
(8.46973e-08 -1.67512e-08 0)
(8.79418e-08 -1.5131e-08 0)
(9.11797e-08 -1.34982e-08 0)
(9.44137e-08 -1.1854e-08 0)
(9.76467e-08 -1.02007e-08 0)
(3.42397e-08 -4.14624e-08 0)
(3.74218e-08 -3.99437e-08 0)
(4.06294e-08 -3.8393e-08 0)
(4.38586e-08 -3.68211e-08 0)
(4.71056e-08 -3.52366e-08 0)
(5.03664e-08 -3.3646e-08 0)
(5.36371e-08 -3.20539e-08 0)
(5.69139e-08 -3.04632e-08 0)
(6.01937e-08 -2.8875e-08 0)
(6.34733e-08 -2.72892e-08 0)
(6.67505e-08 -2.57045e-08 0)
(7.00232e-08 -2.41188e-08 0)
(7.32902e-08 -2.25298e-08 0)
(7.65506e-08 -2.09349e-08 0)
(7.98041e-08 -1.93318e-08 0)
(8.30509e-08 -1.7719e-08 0)
(8.62918e-08 -1.60959e-08 0)
(8.9528e-08 -1.4463e-08 0)
(9.27615e-08 -1.28222e-08 0)
(9.59947e-08 -1.11765e-08 0)
(3.30831e-08 -4.24171e-08 0)
(3.61966e-08 -4.09104e-08 0)
(3.93421e-08 -3.93699e-08 0)
(4.25157e-08 -3.78061e-08 0)
(4.57133e-08 -3.62275e-08 0)
(4.89305e-08 -3.46408e-08 0)
(5.21631e-08 -3.30506e-08 0)
(5.5407e-08 -3.14599e-08 0)
(5.86582e-08 -2.98703e-08 0)
(6.19137e-08 -2.82818e-08 0)
(6.51704e-08 -2.66935e-08 0)
(6.84262e-08 -2.51036e-08 0)
(7.16794e-08 -2.351e-08 0)
(7.49289e-08 -2.19107e-08 0)
(7.81743e-08 -2.03036e-08 0)
(8.14155e-08 -1.86877e-08 0)
(8.46528e-08 -1.70627e-08 0)
(8.78872e-08 -1.54299e-08 0)
(9.11198e-08 -1.37918e-08 0)
(9.43524e-08 -1.21521e-08 0)
(3.18474e-08 -4.33428e-08 0)
(3.48989e-08 -4.18486e-08 0)
(3.79904e-08 -4.03193e-08 0)
(4.11172e-08 -3.87648e-08 0)
(4.42746e-08 -3.71938e-08 0)
(4.74574e-08 -3.56129e-08 0)
(5.06608e-08 -3.40268e-08 0)
(5.38798e-08 -3.24387e-08 0)
(5.71099e-08 -3.08502e-08 0)
(6.03474e-08 -2.92616e-08 0)
(6.35888e-08 -2.76723e-08 0)
(6.68315e-08 -2.60807e-08 0)
(7.00736e-08 -2.44851e-08 0)
(7.3314e-08 -2.28835e-08 0)
(7.65519e-08 -2.12744e-08 0)
(7.97875e-08 -1.96568e-08 0)
(8.30211e-08 -1.80307e-08 0)
(8.62534e-08 -1.63978e-08 0)
(8.94849e-08 -1.47616e-08 0)
(9.27168e-08 -1.31264e-08 0)
(3.0505e-08 -4.42447e-08 0)
(3.35039e-08 -4.27645e-08 0)
(3.6552e-08 -4.12479e-08 0)
(3.96438e-08 -3.97047e-08 0)
(4.27731e-08 -3.81431e-08 0)
(4.59337e-08 -3.65697e-08 0)
(4.91195e-08 -3.49895e-08 0)
(5.23243e-08 -3.34057e-08 0)
(5.55429e-08 -3.182e-08 0)
(5.87705e-08 -3.02331e-08 0)
(6.2003e-08 -2.86443e-08 0)
(6.52373e-08 -2.70526e-08 0)
(6.84714e-08 -2.54564e-08 0)
(7.17039e-08 -2.3854e-08 0)
(7.49346e-08 -2.2244e-08 0)
(7.81638e-08 -2.06257e-08 0)
(8.13925e-08 -1.89992e-08 0)
(8.46221e-08 -1.73663e-08 0)
(8.78536e-08 -1.57308e-08 0)
(9.10869e-08 -1.4099e-08 0)
(2.39814e-09 -4.38378e-08 0)
(7.2375e-09 -4.32049e-08 0)
(1.21713e-08 -4.18806e-08 0)
(1.7256e-08 -3.99479e-08 0)
(2.25339e-08 -3.74913e-08 0)
(2.80302e-08 -3.46077e-08 0)
(3.37504e-08 -3.14064e-08 0)
(3.9678e-08 -2.80035e-08 0)
(4.57745e-08 -2.4517e-08 0)
(5.19783e-08 -2.10623e-08 0)
(2.32315e-09 -4.41914e-08 0)
(7.00409e-09 -4.36176e-08 0)
(1.17631e-08 -4.24138e-08 0)
(1.66481e-08 -4.06516e-08 0)
(2.16953e-08 -3.84031e-08 0)
(2.69273e-08 -3.57512e-08 0)
(3.23509e-08 -3.27889e-08 0)
(3.79556e-08 -2.96158e-08 0)
(4.37128e-08 -2.63354e-08 0)
(4.95751e-08 -2.30551e-08 0)
(2.25647e-09 -4.45782e-08 0)
(6.79788e-09 -4.40547e-08 0)
(1.14036e-08 -4.29549e-08 0)
(1.61141e-08 -4.13413e-08 0)
(2.09601e-08 -3.92764e-08 0)
(2.59613e-08 -3.68317e-08 0)
(3.11246e-08 -3.40875e-08 0)
(3.64433e-08 -3.11302e-08 0)
(4.18961e-08 -2.80501e-08 0)
(4.7446e-08 -2.49437e-08 0)
(2.19654e-09 -4.49971e-08 0)
(6.61337e-09 -4.45166e-08 0)
(1.10834e-08 -4.35068e-08 0)
(1.56405e-08 -4.20228e-08 0)
(2.03106e-08 -4.01192e-08 0)
(2.51106e-08 -3.78588e-08 0)
(3.00469e-08 -3.53116e-08 0)
(3.51149e-08 -3.25531e-08 0)
(4.02982e-08 -2.96628e-08 0)
(4.55665e-08 -2.67267e-08 0)
(2.1417e-09 -4.54464e-08 0)
(6.44519e-09 -4.50031e-08 0)
(1.07929e-08 -4.40713e-08 0)
(1.52133e-08 -4.27003e-08 0)
(1.97281e-08 -4.09386e-08 0)
(2.43516e-08 -3.88416e-08 0)
(2.90894e-08 -3.64714e-08 0)
(3.39378e-08 -3.38945e-08 0)
(3.88839e-08 -3.11813e-08 0)
(4.39021e-08 -2.84084e-08 0)
(2.09059e-09 -4.59242e-08 0)
(6.28893e-09 -4.55132e-08 0)
(1.05244e-08 -4.46494e-08 0)
(1.48209e-08 -4.33771e-08 0)
(1.91968e-08 -4.174e-08 0)
(2.36639e-08 -3.97878e-08 0)
(2.82269e-08 -3.75758e-08 0)
(3.28828e-08 -3.51635e-08 0)
(3.76204e-08 -3.26135e-08 0)
(4.24183e-08 -2.99942e-08 0)
(2.04209e-09 -4.64285e-08 0)
(6.14112e-09 -4.60457e-08 0)
(1.02717e-08 -4.5241e-08 0)
(1.44541e-08 -4.40552e-08 0)
(1.87038e-08 -4.25278e-08 0)
(2.30307e-08 -4.07035e-08 0)
(2.74385e-08 -3.86326e-08 0)
(3.19244e-08 -3.63685e-08 0)
(3.64787e-08 -3.39675e-08 0)
(4.10829e-08 -3.14906e-08 0)
(1.99531e-09 -4.69569e-08 0)
(5.99898e-09 -4.65988e-08 0)
(1.00299e-08 -4.5846e-08 0)
(1.41054e-08 -4.47361e-08 0)
(1.82387e-08 -4.33052e-08 0)
(2.24382e-08 -4.15942e-08 0)
(2.67066e-08 -3.96487e-08 0)
(3.10413e-08 -3.75174e-08 0)
(3.54337e-08 -3.52513e-08 0)
(3.98673e-08 -3.29053e-08 0)
(1.94953e-09 -4.75071e-08 0)
(5.86026e-09 -4.71707e-08 0)
(9.7949e-09 -4.64636e-08 0)
(1.37687e-08 -4.54205e-08 0)
(1.7793e-08 -4.40748e-08 0)
(2.18749e-08 -4.24639e-08 0)
(2.60165e-08 -4.063e-08 0)
(3.02153e-08 -3.86174e-08 0)
(3.44634e-08 -3.64728e-08 0)
(3.87463e-08 -3.42455e-08 0)
(1.90412e-09 -4.80766e-08 0)
(5.723e-09 -4.77595e-08 0)
(9.56338e-09 -4.70927e-08 0)
(1.34388e-08 -4.61087e-08 0)
(1.73593e-08 -4.48382e-08 0)
(2.13311e-08 -4.33162e-08 0)
(2.53558e-08 -4.15813e-08 0)
(2.94309e-08 -3.96747e-08 0)
(3.35492e-08 -3.7639e-08 0)
(3.76978e-08 -3.55189e-08 0)
(1.85852e-09 -4.86629e-08 0)
(5.58549e-09 -4.83629e-08 0)
(9.33227e-09 -4.77319e-08 0)
(1.31112e-08 -4.68003e-08 0)
(1.69314e-08 -4.55967e-08 0)
(2.07983e-08 -4.41535e-08 0)
(2.47135e-08 -4.25067e-08 0)
(2.86745e-08 -4.06945e-08 0)
(3.26746e-08 -3.8756e-08 0)
(3.67023e-08 -3.67322e-08 0)
(1.81222e-09 -4.92633e-08 0)
(5.44611e-09 -4.89786e-08 0)
(9.09875e-09 -4.83796e-08 0)
(1.27817e-08 -4.74947e-08 0)
(1.65034e-08 -4.63507e-08 0)
(2.0269e-08 -4.49777e-08 0)
(2.40799e-08 -4.34093e-08 0)
(2.79338e-08 -4.16811e-08 0)
(3.18247e-08 -3.98293e-08 0)
(3.57421e-08 -3.78915e-08 0)
(1.76469e-09 -4.9875e-08 0)
(5.30328e-09 -4.96042e-08 0)
(8.8601e-09 -4.90339e-08 0)
(1.24462e-08 -4.81908e-08 0)
(1.60698e-08 -4.71001e-08 0)
(1.97359e-08 -4.57898e-08 0)
(2.34458e-08 -4.42914e-08 0)
(2.71976e-08 -4.2638e-08 0)
(3.09859e-08 -4.08636e-08 0)
(3.48013e-08 -3.90022e-08 0)
(1.71539e-09 -5.0495e-08 0)
(5.15535e-09 -5.02368e-08 0)
(8.61352e-09 -4.96925e-08 0)
(1.21008e-08 -4.88872e-08 0)
(1.56252e-08 -4.78444e-08 0)
(1.91917e-08 -4.65904e-08 0)
(2.28022e-08 -4.51546e-08 0)
(2.6455e-08 -4.35681e-08 0)
(3.01453e-08 -4.18624e-08 0)
(3.38646e-08 -4.00692e-08 0)
(1.66374e-09 -5.11199e-08 0)
(5.00061e-09 -5.08734e-08 0)
(8.35606e-09 -5.03529e-08 0)
(1.1741e-08 -4.9582e-08 0)
(1.51636e-08 -4.85826e-08 0)
(1.86292e-08 -4.73793e-08 0)
(2.214e-08 -4.59998e-08 0)
(2.56949e-08 -4.44732e-08 0)
(2.92898e-08 -4.28289e-08 0)
(3.2917e-08 -4.10963e-08 0)
(1.60911e-09 -5.17461e-08 0)
(4.83717e-09 -5.15106e-08 0)
(8.08453e-09 -5.10121e-08 0)
(1.13622e-08 -5.02728e-08 0)
(1.46789e-08 -4.93129e-08 0)
(1.80403e-08 -4.81558e-08 0)
(2.14495e-08 -4.68273e-08 0)
(2.49059e-08 -4.53547e-08 0)
(2.8406e-08 -4.37655e-08 0)
(3.19433e-08 -4.2087e-08 0)
(1.55081e-09 -5.23693e-08 0)
(4.66304e-09 -5.21445e-08 0)
(7.7954e-09 -5.16667e-08 0)
(1.09592e-08 -5.09565e-08 0)
(1.41639e-08 -5.00332e-08 0)
(1.74163e-08 -4.89185e-08 0)
(2.07199e-08 -4.76367e-08 0)
(2.40752e-08 -4.62133e-08 0)
(2.74795e-08 -4.46741e-08 0)
(3.09272e-08 -4.30443e-08 0)
(1.48833e-09 -5.29846e-08 0)
(4.47622e-09 -5.27706e-08 0)
(7.4846e-09 -5.23125e-08 0)
(1.05258e-08 -5.16296e-08 0)
(1.36105e-08 -5.07403e-08 0)
(1.67466e-08 -4.96653e-08 0)
(1.99388e-08 -4.84271e-08 0)
(2.31885e-08 -4.70493e-08 0)
(2.6494e-08 -4.55562e-08 0)
(2.98508e-08 -4.39711e-08 0)
(1.42236e-09 -5.35866e-08 0)
(4.27474e-09 -5.33838e-08 0)
(7.14691e-09 -5.29442e-08 0)
(1.00539e-08 -5.22871e-08 0)
(1.30081e-08 -5.14305e-08 0)
(1.60185e-08 -5.03934e-08 0)
(1.90911e-08 -4.91967e-08 0)
(2.22285e-08 -4.78625e-08 0)
(2.54302e-08 -4.6413e-08 0)
(2.8693e-08 -4.487e-08 0)
(1.35788e-09 -5.417e-08 0)
(4.05557e-09 -5.3977e-08 0)
(6.7741e-09 -5.35549e-08 0)
(9.53182e-09 -5.29231e-08 0)
(1.23418e-08 -5.20987e-08 0)
(1.52142e-08 -5.1099e-08 0)
(1.81561e-08 -4.99432e-08 0)
(2.11717e-08 -4.86518e-08 0)
(2.42621e-08 -4.72455e-08 0)
(2.74258e-08 -4.57443e-08 0)
)
;

boundaryField
{
    left
    {
        type            symmetryPlane;
    }
    right
    {
        type            tractionDisplacement;
        traction        uniform (10000 0 0);
        pressure        
        {
            type            uniform;
            value           0;
        }
        value           nonuniform List<vector> 
30
(
(1.37927e-07 2.6081e-10 3.25428e-26)
(1.37693e-07 8.52136e-10 -1.95235e-26)
(1.37183e-07 1.40437e-09 -2.48568e-29)
(1.36421e-07 1.8947e-09 3.62036e-26)
(1.35427e-07 2.30467e-09 -3.0938e-26)