/*--------------------------------*- C++ -*----------------------------------*\
  =========                 |
  \\      /  F ield         | OpenFOAM: The Open Source CFD Toolbox
   \\    /   O peration     | Website:  https://openfoam.org
    \\  /    A nd           | Version:  9
     \\/     M anipulation  |
\*---------------------------------------------------------------------------*/
FoamFile
{
    format      ascii;
    class       volScalarField;
    location    "120";
    object      sigmaxx;
}
// * * * * * * * * * * * * * * * * * * * * * * * * * * * * * * * * * * * * * //

dimensions      [1 -1 -2 0 0 0 0];

internalField   nonuniform List<scalar> 
1000
(
7760.38
10956
12581.2
13410.6
13803.1
13946.1
13943.4
13854.8
13725.5
13554.6
10761
13194.2
14322.7
14799.4
14931.9
14877.7
14722
14514.1
14290.8
14045.5
14080.5
15490
15980.3
16029.1
15864
15596.5
15284.4
14959.6
14646
14334.8
17574.1
17766.2
17515.8
17085.4
16599.3
16110.7
15642.8
15205.7
14807.6
14433.7
21068.6
19937.6
18894.9
17963.8
17150.9
16443.6
15826.3
15284.8
14810.6
14382.5
24375.1
21916
20087.8
18668.4
17542.5
16630
15875.6
15241.1
14701.4
14229
27302.4
23616.1
21069.9
19209.1
17803.5
16710.3
15837.5
15124.5
14531.3
14024.7
29670.1
24961.1
21821.9
19598.3
17964.3
16725
15758.1
14984
14350.4
13819.1
31318.2
25887.6
22328.6
19847.2
18051.6
16710
15678
14862.6
14202.6
13656.3
32164.2
26376.4
22561.9
19925.5
18036.9
16638.9
15572.8
14737.4
14066.6
13517.4
-481.038
-496.915
-106.896
604.807
1427.91
2260.22
3054.91
3792.77
4468.45
5083.12
-572.571
-335.926
175.658
941.372
1779.55
2607.39
3387.8
4106.32
4759.34
5346.04
-656.801
28.6951
767.476
1635.6
2506.79
3329.03
4082.94
4764.07
5374.16
5912.34
-688.401
605.837
1640.93
2633.93
3540.11
4348.43
5062.01
5689.3
6239.03
6709.65
-585.406
1399.45
2766.24
3890.84
4824.96
5606.36
6264.31
6821.81
7295.3
7681.83
-247.678
2419.63
4106.79
5347.51
6292.34
7029.72
7616
8089.08
8472.97
8762.97
425.62
3676.28
5622.95
6939.22
7866
8538.08
9036.42
9412.3
9696.35
9881.86
1521.28
5172.7
7272.71
8600.55
9469.64
10051.4
10445.9
10714.4
10892
10969.4
3099.78
6901.36
9012.19
10269
11032.4
11496.3
11772.3
11927.1
11998.1
11971.4
5185.54
8841.19
10796.6
11888.3
12492.9
12810.5
12954.6
12993.1
12967.1
12875.1
5624.88
6117.75
6561.23
6963.09
7328.26
7660.86
7964.35
8241.7
8495.39
8727.45
8939.48
9132.63
9307.65
9464.79
9603.83
9723.99
9823.94
9901.95
9956.93
10016.1
5846.83
6302.88
6711.6
7086.13
7429.1
7743.38
8031.62
8296.19
8539.1
8762.02
8966.3
9152.87
9322.35
9474.95
9610.52
9728.53
9828.13
9907.93
9964.5
10024
6342.07
6726.61
7063.24
7378.23
7671.69
7944.66
8198.28
8433.7
8651.97
8854
9040.51
9212
9368.72
9510.65
9637.47
9748.5
9842.53
9917.37
9968.76
10023.5
7044.14
7330.23
7568.74
7801.07
8024.87
8239.07
8443.02
8636.34
8818.83
8990.35
9150.79
9299.98
9437.64
9563.32
9676.34
9775.65
9859.72
9926.17
9971.32
10022.3
7905.22
8072.14
8195.07
8328.49
8468.05
8610.44
8753.14
8894.13
9031.83
9164.93
9292.33
9413.07
9526.21
9630.78
9725.68
9809.55
9880.7
9936.93
9975.02
10021.2
8869.86
8905.59
8905.53
8931.48
8978.33
9040.73
9114.45
9195.95
9282.29
9370.99
9459.94
9547.34
9631.57
9711.11
9784.44
9849.98
9905.95
9950.32
9980.2
10020.2
9877.2
9779.91
9660.14
9578.39
9530.61
9510.03
9511.18
9529.34
9560.41
9600.89
9647.74
9698.36
9750.48
9802.06
9851.23
9896.17
9935.1
9966.12
9986.66
10019.1
10866.1
10644.4
10418
10236.4
10098.5
9997.13
9926.35
9880.73
9855.42
9846.12
9849.09
9861.05
9879.14
9900.89
9924.09
9946.81
9967.25
9983.72
9994.11
10017.9
11783.8
11456
11142.6
10875.1
10656.9
10481.6
10343.4
10236.7
10156.5
10098
10057.1
10030
10013.4
10004.5
10000.8
10000.3
10001.2
10002.3
10002.1
10016.6
12612.7
12204.2
11812.2
11467.5
11176.1
10932.7
10731.9
10568.4
10437
10332.6
10250.6
10186.8
10137.6
10099.8
10070.8
10048.2
10030.7
10017.1
10007.1
10013.9
13188.5
12738.6
12290.2
11909.9
11582.1
11300.8
11061.3
10859.3
10690.2
10549.6
10433.6
10338
10259.5
10194.9
10141.8
10098
10062.4
10034.4
10014.5
10012
13104.2
12797.2
12412.4
12065.8
11756
11481.8
11241.1
11031.6
10850.4
10694.6
10561.2
10447.2
10350
10267.1
10196.6
10136.9
10087.4
10047.9
10019.9
10010.2
13051
12807.7
12480.6
12169.1
11879.2
11614.4
11375.5
11162.1
10972.9
10806.2
10659.8
10531.8
10420.1
10322.8
10238.6
10166.4
10105.9
10057.7
10023.7
10008.4
12925
12730.2
12456.2
12185.2
11923.6
11677.2
11448.8
11239.9
11050.4
10879.8
10727
10590.8
10469.8
10362.8
10269
10187.9
10119.5
10065
10026.6
10006.9
12746
12591.9
12364.7
12133.3
11903.2
11680.2
11468.3
11270
11086.4
10917.9
10764.3
10625.1
10499.7
10387.5
10288.1
10201.4
10128.1
10069.6
10028.4
10005.4
12529.4
12410.2
12224.5
12030.1
11831.6
11634.4
11442.6
11259.2
11086.1
10924.4
10774.7
10637.1
10511.5
10398
10296.5
10207.6
10132.1
10071.7
10029.2
10004.1
12288.1
12198.8
12049.8
11889.2
11721.2
11550.2
11380.2
11214.4
11055.1
10903.9
10761.7
10629.4
10507.3
10395.8
10295.4
10207
10131.7
10071.4
10029.1
10003
12031.9
11968
11851.4
11721.5
11582
11436.6
11289.1
11142.5
10999.1
10860.9
10729.2
10605.1
10489.3
10382.8
10286.2
10200.7
10127.7
10069.2
10028.1
10002
11768.4
11726.1
11637.7
11535.5
11422.4
11301.7
11176.5
11049.6
10923.5
10800.1
10680.9
10567.2
10460.2
10360.8
10270.2
10189.6
10120.6
10065.3
10026.5
10001.2
11502.8
11479
11415.4
11338
11249.3
11151.9
11048.4
10941.5
10833.3
10725.7
10620.4
10518.8
10422.2
10331.8
10248.9
10174.8
10111.2
10060.1
10024.3
10000.5
11238.7
11230.9
11189.3
11134.5
11068.2
10992.8
10910.3
10823.1
10733
10641.8
10551.3
10462.9
10377.9
10297.7
10223.7
10157.2
10100
10054
10021.8
10000
10978.3
10985.1
10963.4
10929.1
10883.8
10829.1
10766.8
10698.7
10626.6
10552.1
10476.8
10402.2
10329.5
10260.3
10195.9
10137.8
10087.6
10047.3
10019
9999.62
10723.1
10743.8
10740.5
10725.5
10699.9
10664.9
10621.9
10572.4
10517.9
10459.9
10399.8
10339.1
10279.1
10221.2
10166.8
10117.5
10074.7
10040.2
10016.2
9999.39
10474.4
10508.8
10523.1
10526.6
10519.9
10503.8
10479.3
10447.7
10410.2
10368.2
10323
10276
10228.6
10182
10137.7
10097.1
10061.7
10033.2
10013.3
9999.25
10232.9
10281.8
10313.7
10335.3
10347
10349.2
10342.5
10328
10306.8
10280
10249.1
10215.2
10179.7
10144
10109.3
10077.2
10049
10026.2
10010.4
9999.21
9999.75
10064.4
10114.5
10154.6
10184.6
10204.5
10214.9
10216.7
10210.6
10198.1
10180.2
10158.4
10134
10108.3
10082.7
10058.4
10036.9
10019.5
10007.6
9999.18
9776.36
9858.83
9928.6
9987.89
10036.3
10073.7
10100.4
10117.2
10125.1
10125.2
10118.9
10107.6
10092.8
10075.9
10058.2
10041
10025.5
10012.9
10004.5
9999.08
9564.9
9668.2
9759.62
9839.29
9906.52
9961.06
10003.2
10033.7
10053.6
10064.2
10067.2
10064.2
10056.9
10047
10035.9
10024.7
10014.6
10006.5
10001.2
9998.72
9368.73
9496.94
9612.77
9714.42
9801.01
9872.27
9928.55
9970.71
10000.1
10018.4
10027.5
10029.7
10027
10021.4
10014.9
10008.8
10003.9
10000.4
9998.43
9998.39
9191.76
9351.22
9495.29
9621.23
9728.1
9815.63
9884.34
9935.42
9970.65
9992.31
10003
10005.5
10002.8
9997.66
9992.63
9989.83
9990.58
9994.92
10000.7
10000.9
13058.8
13189.4
13352.6
13563.3
13780.5
13958.7
14050.9
14014.1
13811.5
13371.8
12651.2
12767.3
12919.7
13123.4
13346.4
13553.3
13707.5
13773.9
13719.7
13405.7
12291
12394.8
12535.3
12726.7
12942.7
13154.3
13331.1
13444.1
13464.8
13267
11969.1
12061.9
12190.5
12368.4
12574
12783.9
12973
13117
13189.8
13084.4
11676.4
11759.6
11876.5
12040
12232.8
12435.3
12627
12787.6
12893.8
12859
11405.8
11480.5
11586.4
11735.9
11914.7
12106.6
12294.8
12462
12587.9
12604
11151.2
11218.5
11314.5
11451
11615.9
11795.9
11976.7
12144.1
12280.3
12331.3
10907.8
10968.7
11056.1
11180.8
11332.7
11500.6
11672.3
11835.9
11976
12050
10671.5
10727.1
10807.1
10921.5
11061.8
11218.2
11380.4
11538
11678
11766.4
10438.9
10490
10563.8
10669.6
10799.8
10945.9
11099
11250
11387.5
11484.6
10206.6
10254.2
10323.1
10421.8
10543.7
10681.2
10826.2
10970.8
11105
11207.2
9971.75
10016.7
10081.8
10175.2
10290.7
10421.3
10559.8
10698.9
10830
10935.4
9731.3
9774.46
9837.07
9926.8
10037.8
10163.7
10297.6
10432.9
10561.7
10669.8
9482.24
9524.44
9585.81
9673.6
9782.26
9905.67
10037.4
10171
10299.3
10410.5
9221.33
9263.49
9324.88
9412.5
9521.05
9644.59
9776.83
9911.45
10041.7
10157.7
8945.11
8988.18
9050.8
9140.08
9250.98
9377.65
9513.69
9652.7
9788.09
9911.54
8649.92
8694.67
8759.5
8852.4
8968.53
9101.84
9245.61
9393.15
9537.8
9672.38
8332.58
8378.18
8445.79
8544.7
8669.7
8813.95
8970.18
9131.31
9290.49
9441.3
7993
8030.99
8102.35
8211.3
8349.99
8510.47
8684.91
8865.84
9046.14
9220.07
7635.4
7627.46
7709.49
7835.41
7993.88
8177.24
8377.84
8587.74
8799.26
9008
)
;

boundaryField
{
    left
    {
        type            symmetryPlane;
    }
    right
    {
        type            calculated;
        value           nonuniform List<scalar> 
30
(
10000
10000
10000
10000
10000
10000
10000
10000
10000
10000
10000
10000
10000
10000
10000
10000
10000
10000
10000
10000
10000
10000
10000
10000
10000
10000.1
10000.1
10000.1
10000.1
10000
)
;
    }
    down
    {
        type            symmetryPlane;
    }
    up
    {
        type            calculated;
        value           nonuniform List<scalar> 
30
(
7639.55
7633.57
7715.47
7841.08
7999.29
8182.41
8382.76
8592.4
8803.63
9011.82
9195.13
9354.22
9497.9
9623.49
9730.04
9817.29
9885.75
9936.6
9971.65
9993.14
10003.7
10006.1
10003.3
9997.99
9992.84
9989.9
9990.48
9994.68
10000.5
10001.8
)
;
    }
    hole
    {
        type            calculated;
        value           nonuniform List<scalar> 
20
(
6322.96
9326.33
12714.4
16331
19986.7
23472.8
26577.4
29100.6
30865.2
31770
-18.3579
-158.866
-397.237
-651.544
-812.513
-756.099
-358.127
490.385
1869.05
3816.57
)
;
    }
    frontAndBack
    {
        type            empty;
    }
}


// ************************************************************************* //
