/*--------------------------------*- C++ -*----------------------------------*\
  =========                 |
  \\      /  F ield         | OpenFOAM: The Open Source CFD Toolbox
   \\    /   O peration     | Website:  https://openfoam.org
    \\  /    A nd           | Version:  9
     \\/     M anipulation  |
\*---------------------------------------------------------------------------*/
FoamFile
{
    format      ascii;
    class       volScalarField;
    location    "120";
    object      sigmaxy;
}
// * * * * * * * * * * * * * * * * * * * * * * * * * * * * * * * * * * * * * //

dimensions      [1 -1 -2 0 0 0 0];

internalField   nonuniform List<scalar> 
1000
(
-5589.98
-4256.41
-3363.13
-2728.76
-2262.02
-1908.75
-1635.05
-1418.6
-1240.39
-1012.7
-6882.8
-4614.86
-3208.08
-2293.38
-1676.92
-1249.23
-944.75
-721.873
-550.021
-356.942
-7847.48
-4808.28
-2982.17
-1842.55
-1109.32
-626.713
-303.189
-82.5918
72.634
230.127
-8373.03
-4803.28
-2695.05
-1409.76
-605.828
-94.935
232.37
442.283
578.241
703.734
-8383.05
-4579.39
-2357.1
-1022.17
-202.526
305.791
620.575
812.761
928.538
1024.93
-7843.91
-4131.93
-1979.02
-698.367
78.2424
551.717
837.712
1005.78
1100.89
1171.83
-6769.01
-3473.62
-1571.71
-447.336
229.003
636.527
878.34
1016.46
1090.78
1140.51
-5219.06
-2635.53
-1147.51
-270.328
254.769
568.711
752.808
856.042
909.792
942.78
-3298.13
-1670.98
-728.675
-172.041
160.891
359.537
475.808
541.015
575.205
595.974
-1148.11
-684.898
-388.111
-204.072
-89.507
-17.4525
28.1146
56.9608
75.5096
89.1285
431.034
162.889
-43.0812
-166.648
-233.466
-266.29
-279.277
-280.808
-276.058
-269.812
1055.74
-186.367
-843.931
-1179.46
-1336.15
-1391.4
-1389.32
-1355.61
-1305.54
-1255.69
1526.08
-449.289
-1471.55
-1980.17
-2210.38
-2284.83
-2271.67
-2210.19
-2123.67
-2038.83
1719.24
-743.106
-2010.64
-2631.62
-2904.13
-2983.53
-2955.19
-2867.85
-2750.28
-2638.76
1559.13
-1106.86
-2470.41
-3126.21
-3401.43
-3467.3
-3417.63
-3305.59
-3162.53
-3033.34
1014.83
-1551.42
-2846.32
-3449.91
-3683.48
-3715.44
-3637.91
-3502.73
-3340.41
-3203.19
100.772
-2068.91
-3133.08
-3597.88
-3745.47
-3723.28
-3611.62
-3455.27
-3280.44
-3144.96
-1125.39
-2636.57
-3327.34
-3577.14
-3599.76
-3505.72
-3354.58
-3179.06
-2998.35
-2873.9
-2568.21
-3219.81
-3428.52
-3405.97
-3274.86
-3096.43
-2902.28
-2708.98
-2526.99
-2421.95
-4103.5
-3775.59
-3438.88
-3111.9
-2812.32
-2544.59
-2307.91
-2099.2
-1915.52
-1824.79
-251.042
-222.777
-199.887
-179.49
-161.081
-144.362
-129.1
-115.071
-102.053
-89.8195
-78.1398
-66.7773
-55.4835
-43.9904
-32.0032
-19.2224
-5.54224
8.04424
16.6011
6.64568
-1163.23
-1039.26
-937.902
-847.784
-767.444
-695.709
-631.47
-573.647
-521.203
-473.137
-428.48
-386.28
-345.583
-305.413
-264.766
-222.638
-178.129
-130.47
-78.0824
-15.0273
-1891.52
-1700
-1541.93
-1399.79
-1271.86
-1156.78
-1053.14
-959.446
-874.196
-795.882
-723.01
-654.096
-587.64
-522.107
-455.91
-387.384
-314.682
-235.275
-144.179
-28.6581
-2454.27
-2221.84
-2028.74
-1852.65
-1692
-1545.75
-1412.67
-1291.32
-1180.09
-1077.27
-981.082
-889.712
-801.266
-713.76
-625.076
-532.872
-434.342
-325.553
-199.469
-39.5974
-2830.87
-2588
-2384.18
-2194.64
-2018.32
-1855
-1704.14
-1564.8
-1435.66
-1315.13
-1201.44
-1092.65
-986.636
-881.102
-773.483
-660.839
-539.571
-404.719
-247.809
-49.2674
-3002.67
-2782.37
-2593.66
-2412.72
-2239.26
-2074.38
-1918.73
-1772.25
-1634.31
-1503.8
-1379.21
-1258.72
-1140.19
-1021.14
-898.728
-769.556
-629.441
-472.659
-289.577
-57.8237
-2964.65
-2799.02
-2650.18
-2499.56
-2347.58
-2197.06
-2050.11
-1907.92
-1770.89
-1638.65
-1510.26
-1384.25
-1258.66
-1131.04
-998.406
-857.112
-702.561
-528.452
-324.198
-65.1011
-2727.1
-2642.87
-2554.7
-2453.74
-2340.63
-2219.78
-2094.86
-1968.48
-1842.24
-1716.79
-1591.96
-1466.86
-1339.91
-1208.89
-1070.87
-922.12
-757.813
-571.234
-351.068
-70.9115
-2308.76
-2321.78
-2309.49
-2274.17
-2215.54
-2138.96
-2049.28
-1950.44
-1845.29
-1735.6
-1622.15
-1504.79
-1382.53
-1253.54
-1115.17
-963.791
-794.565
-600.557
-369.942
-75.1946
-1724.79
-1839.49
-1919.75
-1966.19
-1978.16
-1960.91
-1920.05
-1860.66
-1786.89
-1701.78
-1607.23
-1504.05
-1392.04
-1269.97
-1135.66
-985.833
-815.87
-618.909
-382.75
-78.4989
-1221
-1394.27
-1548.96
-1652.27
-1714.03
-1741.16
-1739.53
-1714.31
-1669.8
-1609.34
-1535.23
-1448.73
-1350.09
-1238.54
-1112.36
-968.721
-803.518
-610.454
-377.994
-78.1384
-862.553
-1056.4
-1238.03
-1373.85
-1466.85
-1523.41
-1549.31
-1549.43
-1527.79
-1487.6
-1431.13
-1359.77
-1273.99
-1173.38
-1056.62
-921.412
-764.296
-579.847
-357.97
-73.6971
-516.141
-719.065
-916.785
-1077.06
-1197.61
-1282.08
-1335.01
-1360.61
-1362.48
-1343.53
-1305.97
-1251.24
-1180
-1092.16
-986.798
-862.184
-715.547
-542.44
-334.263
-68.6656
-227.254
-425.214
-625.589
-798.037
-936.658
-1042.08
-1116.95
-1164.3
-1187.02
-1187.56
-1167.88
-1129.36
-1072.78
-998.25
-905.259
-792.588
-658.188
-498.611
-306.753
-62.9287
8.33949
-179.971
-374.764
-549.78
-697.501
-816.306
-906.974
-971.212
-1010.98
-1028.13
-1024.26
-1000.59
-957.887
-896.444
-816.061
-716.011
-594.929
-450.328
-276.561
-56.662
196.306
20.4701
-164.021
-335.158
-485.046
-610.694
-711.413
-787.676
-840.499
-871.077
-880.562
-869.927
-839.879
-790.818
-722.806
-635.547
-528.305
-399.486
-244.827
-50.0844
342.551
181.115
9.70234
-153.423
-300.543
-427.923
-533.845
-617.783
-679.908
-720.766
-741.054
-741.467
-722.607
-684.923
-628.689
-553.984
-460.626
-347.829
-212.624
-43.4197
452.93
306.881
150.035
-2.54169
-143.551
-268.893
-376.179
-464.135
-532.244
-580.48
-609.113
-618.56
-609.295
-581.789
-536.478
-473.756
-393.926
-296.912
-180.919
-36.8669
532.851
402.312
260.557
119.915
-12.8439
-133.494
-239.235
-328.271
-399.559
-452.607
-487.315
-503.852
-502.565
-483.923
-448.492
-396.927
-329.936
-248.058
-150.539
-30.599
586.972
471.404
344.542
216.385
93.1183
-21.0629
-123.137
-210.968
-283.134
-338.792
-377.546
-399.357
-404.46
-393.317
-366.597
-325.165
-270.067
-202.352
-122.153
-24.752
619.052
517.471
404.815
289.104
175.922
69.3252
-27.5822
-112.468
-183.665
-240.076
-281.092
-306.512
-316.485
-311.469
-292.213
-259.754
-215.403
-160.619
-96.2731
-19.4331
631.89
543.076
443.655
339.978
237.036
138.675
47.9735
-32.6525
-101.397
-157.006
-198.725
-226.243
-239.651
-239.409
-226.335
-201.596
-166.71
-123.447
-73.256
-14.7113
627.336
550.005
462.743
370.509
277.717
187.954
104.197
28.8489
-36.2331
-89.7186
-130.771
-159.015
-174.511
-177.731
-169.549
-151.234
-124.449
-91.1808
-53.3114
-10.6328
606.316
539.27
463.151
381.755
298.953
218.036
141.807
72.5891
12.2092
-37.9919
-77.1511
-104.869
-121.195
-126.62
-122.064
-108.869
-88.7941
-63.9579
-36.5191
-7.21
568.852
511.116
445.327
374.321
301.449
229.668
161.556
99.2805
44.5768
-1.26401
-37.3993
-63.4347
-79.4245
-85.872
-83.7292
-74.3885
-59.6588
-41.7119
-22.8537
-4.45167
514.05
465.003
409.089
348.349
285.618
223.482
164.228
109.807
61.7978
21.3883
-10.6388
-33.9163
-48.5049
-54.9043
-54.0685
-47.4
-36.7271
-24.2318
-12.2109
-2.34859
439.97
399.505
353.548
303.469
251.566
199.987
150.663
105.256
65.126
31.3043
4.4761
-15.036
-27.2896
-32.7467
-32.3024
-27.3035
-19.5434
-11.17
-4.41364
-0.927377
343.161
311.921
276.807
238.576
198.917
159.459
121.691
86.9064
56.173
30.3057
9.85067
-4.93132
-14.0821
-17.9754
-17.3513
-13.3666
-7.6436
-2.24208
0.7099
-0.181147
216.976
196.885
174.774
150.815
125.989
101.296
77.6679
55.9272
36.7527
20.6664
8.02002
-1.01312
-6.45246
-8.52865
-7.71238
-4.76621
-0.848277
2.40158
3.11093
0.0478699
45.4703
41.1099
36.4603
31.4756
26.3195
21.1926
16.2901
11.785
7.82034
4.50624
1.91753
0.0923433
-0.971171
-1.31743
-1.03847
-0.28178
0.723803
1.611
1.80937
0.469814
90.6547
576.64
916.031
1119.05
1168.99
1053.61
774.256
347.681
-196.525
-823.835
83.5775
529.535
850.645
1056.91
1134.42
1071.98
868.537
534.016
84.3365
-474.339
78.6923
492.381
798.124
1006.28
1104.82
1082.99
937.729
674.179
301.565
-174.257
73.7506
457.421
747.069
953.776
1067.34
1077.78
980.935
778.819
476.04
77.4174
68.5117
424.013
696.897
899.049
1021.99
1056.67
998.447
847.476
605.531
277.456
63.0806
392.372
648.406
843.813
971.722
1024.06
996.143
887.075
696.966
430.976
57.5888
362.671
602.219
789.487
919.047
983.803
979.281
904.031
757.302
544.556
52.1167
334.907
558.579
736.883
865.658
938.731
951.952
903.645
792.706
624.771
46.6881
308.924
517.405
686.282
812.484
890.677
917.084
889.99
808.243
677.496
41.2805
284.446
478.38
637.562
759.852
840.661
876.589
865.984
807.808
707.584
35.8344
261.112
441.012
590.295
707.617
789.04
831.519
833.519
794.182
718.776
30.2592
238.49
404.671
543.816
655.258
735.627
782.206
793.592
769.122
713.711
24.4357
216.079
368.607
497.256
601.932
679.764
728.345
746.405
733.453
693.985
18.2132
193.312
331.957
449.553
546.489
620.353
669.043
691.424
687.137
660.208
11.4076
169.558
293.748
399.444
487.456
555.841
602.819
627.394
629.297
612.044
3.82173
144.155
252.894
345.41
422.963
484.146
527.535
552.282
558.171
548.186
-4.59003
116.508
208.123
285.51
350.549
402.467
440.223
463.112
470.957
466.213
-12.9753
86.1302
157.622
216.908
266.674
306.802
336.588
355.462
363.29
362.063
-17.2366
51.9816
97.7637
134.506
165.292
190.4
209.378
221.799
227.583
228.255
-6.15559
9.97158
19.4783
26.7511
32.9331
38.1412
42.2421
45.0943
46.6649
47.3839
)
;

boundaryField
{
    left
    {
        type            symmetryPlane;
    }
    right
    {
        type            calculated;
        value           nonuniform List<scalar> 
30
(
-0.00614849
-0.0298666
-0.0520271
-0.0730383
-0.09306
-0.111739
-0.128648
-0.144763
-0.161656
-0.179442
-0.194341
-0.205546
-0.214273
-0.221284
-0.227415
-0.233421
-0.239829
-0.247014
-0.255127
-0.264268
-0.274403
-0.285882
-0.29943
-0.317241
-0.343564
-0.390315
-0.488524
-0.731414
-1.36189
-2.73455
)
;
    }
    down
    {
        type            symmetryPlane;
    }
    up
    {
        type            calculated;
        value           nonuniform List<scalar> 
30
(
0.00635644
0.0307718
0.0533901
0.0746715
0.0948746
0.113896
0.131354
0.14689
0.160638
0.173027
0.18287
0.191058
0.199095
0.206826
0.21416
0.221141
0.227955
0.234898
0.242367
0.250852
0.260924
0.273229
0.288694
0.308245
0.332896
0.36932
0.452866
0.695764
1.34521
2.73381
)
;
    }
    hole
    {
        type            calculated;
        value           nonuniform List<scalar> 
20
(
-5844.36
-7351.75
-8494.99
-9145.35
-9213.59
-8659.24
-7495.35
-5788.31
-3653.07
-1248.28
464.573
1341.48
1996.74
2310.15
2202.53
1640.35
639.823
-733.497
-2370.4
-4128.23
)
;
    }
    frontAndBack
    {
        type            empty;
    }
}


// ************************************************************************* //
