/*--------------------------------*- C++ -*----------------------------------*\
  =========                 |
  \\      /  F ield         | OpenFOAM: The Open Source CFD Toolbox
   \\    /   O peration     | Website:  https://openfoam.org
    \\  /    A nd           | Version:  9
     \\/     M anipulation  |
\*---------------------------------------------------------------------------*/
FoamFile
{
    format      ascii;
    class       volScalarField;
    location    "120";
    object      sigmayy;
}
// * * * * * * * * * * * * * * * * * * * * * * * * * * * * * * * * * * * * * //

dimensions      [1 -1 -2 0 0 0 0];

internalField   nonuniform List<scalar> 
1000
(
4576.8
1142.87
-718.277
-1737.33
-2284.65
-2556.38
-2663.17
-2671.65
-2625.32
-2546.38
5154.5
1843.03
22.897
-1008.58
-1593.16
-1912.85
-2071.06
-2130.4
-2128.51
-2067.94
5278.52
2374.67
754.489
-200.514
-773.269
-1115.29
-1313.47
-1420.8
-1469
-1455.43
5010.83
2746.45
1456.05
651.02
131.427
-210.63
-437.988
-589.798
-689.89
-732.233
4446.58
2978.79
2106.97
1503.4
1067.17
742.642
495.982
304.816
154.879
54.4383
3703.31
3100.32
2686.89
2310.06
1974.04
1678.69
1420.98
1196.42
1000.96
844.392
2907.78
3143.11
3176.23
3024.05
2791.15
2530.18
2267.56
2015.95
1781.18
1574.2
2181.63
3137.74
3557.57
3602.86
3462.86
3235.09
2971.28
2698.95
2432.59
2184.15
1627.9
3111.54
3820.24
4014.52
3944.89
3742.65
3478.69
3191.57
2902.14
2623.24
1334.94
3110.94
3961.47
4224.7
4185.04
3991.92
3725.55
3429.44
3126.74
2829.24
-11966.1
-7829.86
-5243.13
-3567.61
-2450.98
-1682.48
-1135.78
-733.303
-426.205
-183.347
-11542.2
-7553.25
-5183.51
-3642.82
-2601.38
-1873.32
-1347
-952.812
-646.099
-397.5
-10354.1
-7021.54
-5006.55
-3675.41
-2758.29
-2102.45
-1616.28
-1242.38
-943.878
-696.4
-8644.41
-6246.64
-4740.34
-3702.33
-2957.83
-2402.96
-1973.95
-1630.17
-1345.46
-1102.41
-6575.82
-5276.97
-4382.71
-3698.37
-3162.07
-2729.68
-2371.14
-2065.85
-1800.31
-1565.54
-4312.43
-4174.75
-3936.69
-3636.01
-3327.63
-3030.91
-2751.98
-2491.86
-2250.77
-2029.23
-2021.53
-3006.5
-3409.31
-3488.98
-3410.31
-3253.06
-3058.31
-2848.14
-2636.47
-2434.12
136.56
-1837.17
-2810.43
-3235.55
-3370.7
-3347.33
-3236.63
-3079.05
-2900.97
-2723.7
2021.49
-725.502
-2152.31
-2861.1
-3178.86
-3275.44
-3244.54
-3140.28
-2998.75
-2850.62
3524.46
279.747
-1449.42
-2360.09
-2817.63
-3014
-3055.95
-3004.97
-2901.66
-2790.12
10.6498
192.207
355.396
507.267
653.371
798.172
945.278
1097.71
1258.12
1429
1612.79
1812.04
2029.49
2268.19
2531.58
2823.55
3148.33
3509.67
3907.72
4337.86
-185.365
24.934
208.909
378.196
538.915
695.965
853.275
1014.12
1181.37
1357.68
1545.63
1747.86
1967.17
2206.62
2469.64
2760.06
3082.39
3442.38
3849.57
4336.33
-469.145
-223.665
-12.5077
181.292
363.521
539.103
712.146
886.158
1064.24
1249.25
1443.93
1651.05
1873.49
2114.35
2377.1
2665.69
2984.95
3341.22
3743.6
4217.45
-857.732
-569.582
-323.748
-97.9608
113.073
313.995
508.902
701.445
894.932
1092.43
1296.88
1511.18
1738.31
1981.44
2244.05
2530.12
2844.41
3192.76
3582.41
4035.49
-1304.5
-976.342
-694.672
-434.854
-192.108
37.5096
257.738
472.134
684.053
896.68
1113.07
1336.23
1569.2
1815.14
2077.48
2360.01
2667.1
3003.77
3375.88
3804.44
-1757.65
-1403.82
-1092.26
-802.279
-529.622
-271.678
-25.5769
211.745
443.41
672.507
902.068
1135.08
1374.55
1623.52
1885.23
2163.12
2461
2783.08
3134.14
3533.89
-2163.04
-1809.82
-1481.77
-1171.61
-875.722
-593.695
-324.23
-65.2936
185.585
431.096
674.011
917.123
1163.23
1415.15
1675.75
1948
2235.04
2540.23
2867.27
3233.47
-2469.64
-2153.73
-1829.32
-1514.44
-1206.54
-908.414
-621.111
-344.279
-76.5992
183.813
439.169
691.818
944.175
1198.64
1457.59
1723.37
1998.28
2284.7
2585.11
2913.3
-2630.7
-2392.1
-2095.72
-1795.55
-1491.13
-1188.99
-893.088
-605.298
-325.963
-54.4143
210.634
470.825
727.942
983.792
1240.08
1498.35
1759.91
2025.87
2297.19
2583.32
-2613.87
-2456.35
-2216.45
-1960.69
-1686.91
-1402.89
-1115.46
-829.41
-547.653
-271.573
-1.4964
262.949
522.505
778.046
1030.35
1279.95
1526.91
1770.75
2010.32
2248.62
-2550.12
-2336.86
-2167.42
-1955.55
-1716.2
-1459.3
-1192.83
-922.779
-653.239
-386.777
-124.81
131.991
383.401
629.337
869.632
1103.78
1330.72
1548.55
1754.07
1943.74
-2329.33
-2227.07
-2104.3
-1926.97
-1715.22
-1480.95
-1233.02
-978.147
-721.202
-465.566
-213.491
33.5481
274.527
508.583
734.741
951.657
1157.33
1348.74
1521.16
1667.65
-2023.09
-1990.29
-1925.98
-1797.75
-1626.63
-1426.62
-1207.79
-977.648
-741.86
-504.624
-269.038
-37.4346
188.314
406.503
615.323
812.569
995.333
1159.59
1299.53
1406.5
-1747.85
-1758.06
-1735.09
-1648.53
-1515.16
-1348.47
-1158.89
-954.419
-741.26
-524.216
-307.046
-92.7742
116.023
316.932
507.431
684.598
844.795
983.262
1093.53
1165.59
-1495.78
-1535.3
-1541.13
-1487.63
-1387.27
-1251.61
-1090.44
-911.76
-721.979
-526.273
-328.862
-133.287
57.3221
239.987
411.617
568.732
707.157
821.646
905.329
947.222
-1267.32
-1326.46
-1352.03
-1323.7
-1250.72
-1142.52
-1007.78
-853.964
-687.401
-513.372
-336.35
-160.212
11.5243
175.472
328.126
465.616
583.418
676.019
736.37
752.92
-1062.96
-1134.06
-1172.46
-1162.7
-1111.67
-1026.94
-915.893
-785.277
-641.031
-488.327
-331.686
-175.146
-22.4439
122.779
256.764
375.411
474.025
547.008
587.357
583.376
-882.562
-959.42
-1005.21
-1008.58
-974.63
-909.4
-819.067
-709.52
-586.172
-453.904
-317.116
-179.84
-45.881
81.0193
196.997
297.875
378.944
434.697
458.359
438.486
-725.198
-802.889
-851.752
-863.783
-842.726
-793.345
-720.734
-629.939
-525.762
-412.672
-294.817
-176.084
-60.2048
49.1117
148.033
232.44
297.75
338.688
348.881
317.461
-589.309
-664.036
-712.61
-729.703
-718.004
-681.237
-623.547
-549.184
-462.314
-366.927
-266.818
-165.62
-66.8784
25.8513
108.883
178.276
229.688
258.199
257.959
218.939
-472.921
-541.878
-587.64
-606.957
-601.71
-574.778
-529.489
-469.358
-397.925
-318.667
-234.961
-150.104
-67.3587
9.96502
78.4267
134.356
173.746
192.118
184.245
141.117
-373.86
-435.1
-476.254
-495.631
-494.517
-475.102
-440.014
-392.108
-334.324
-269.612
-200.896
-131.075
-63.0645
0.151531
55.4522
99.5097
128.719
139.105
126.111
81.8645
-289.946
-342.249
-377.618
-395.493
-396.723
-382.945
-356.194
-318.731
-272.937
-221.241
-166.093
-109.96
-55.3578
-4.88891
38.7011
72.4766
93.2723
97.6447
81.7321
38.8638
-219.134
-261.902
-290.843
-306.174
-308.436
-298.822
-278.861
-250.292
-214.977
-174.846
-131.874
-88.0751
-45.5329
-6.4303
26.9022
51.9509
65.9997
66.1425
49.1926
9.68735
-159.642
-192.812
-215.143
-227.348
-229.75
-223.183
-208.752
-187.738
-161.531
-131.595
-99.441
-66.6335
-34.8061
-5.69717
18.8056
36.6264
45.4974
42.9914
26.5425
-8.08254
-110.061
-134.05
-150.004
-158.906
-160.917
-156.584
-146.656
-132.02
-113.653
-92.591
-69.9146
-46.7522
-24.2935
-3.82491
13.229
25.2472
30.3977
26.65
11.931
-16.8508
-69.4851
-85.1633
-95.3627
-101.143
-102.538
-99.8594
-93.571
-84.2336
-72.4715
-58.9491
-44.3636
-29.4455
-14.9728
-1.79393
9.12738
16.6608
19.4203
15.713
3.66026
-18.966
-37.6748
-46.3886
-51.8538
-55.0157
-55.7986
-54.3447
-50.9039
-45.7825
-39.3229
-31.8865
-23.8547
-15.6252
-7.62587
-0.322547
5.74911
9.95262
11.4217
8.84779
0.259643
-16.7466
-15.3977
-19.0663
-21.2224
-22.5294
-22.8539
-22.245
-20.8103
-18.6811
-15.9981
-12.9102
-9.57066
-6.14195
-2.79527
0.277935
2.87287
4.75352
5.58041
4.5917
0.0208455
-12.1153
-11.2805
-10.021
-8.71862
-7.56156
-6.50165
-5.54652
-4.70405
-3.97434
-3.34834
-2.81212
-2.34608
-1.92906
-1.53753
-1.15153
-0.745889
-0.292093
0.228699
0.701546
0.430882
-3.08342
2553.34
2376.52
1986.74
1441.05
783.389
64.8029
-659.592
-1335.87
-1919.34
-2428.08
2297.25
2149.54
1815.3
1344.83
776.003
151.77
-481.841
-1079.86
-1605.52
-2100.85
2061.5
1940.3
1660.06
1261.61
775.122
234.544
-323.383
-861.74
-1347.72
-1804.42
1842.53
1742.53
1507.79
1171.42
757.41
292.739
-193.252
-670.522
-1111.33
-1527.05
1638.87
1556.29
1359.86
1076.61
725.483
327.91
-92.6522
-511.796
-906.458
-1278.94
1449.54
1381.46
1217.43
979.642
683.072
344.7
-16.7359
-381.491
-730.613
-1059.94
1273.58
1217.7
1081.12
882.259
632.931
346.578
38.1373
-276.479
-581.788
-869.376
1110.11
1064.52
951.282
785.767
577.304
336.513
75.2626
-193.665
-457.667
-705.832
958.299
921.449
828.098
691.184
518.068
317.106
97.6915
-129.956
-355.618
-567.188
817.431
788.024
711.664
599.323
456.803
290.638
108.206
-82.3724
-272.859
-450.89
686.957
663.9
602.071
510.873
394.861
259.094
109.302
-48.1301
-206.621
-354.196
566.516
548.869
499.456
426.456
333.428
224.219
103.199
-24.6896
-154.261
-274.372
455.973
442.896
404.044
346.691
273.591
187.575
91.875
-9.76719
-113.346
-208.833
355.459
346.151
316.185
272.247
216.403
150.597
77.105
-1.32868
-81.6873
-155.237
265.42
259.024
236.391
203.913
162.964
114.67
60.5118
2.42703
-57.3809
-111.557
186.677
182.127
165.396
142.689
114.5
81.1906
43.6127
3.08739
-38.824
-76.1517
120.45
116.283
104.297
89.9382
72.4679
51.6288
27.8653
2.04991
-24.7383
-47.8313
68.1883
62.6823
54.9265
47.5926
38.6401
27.5887
14.714
0.556764
-14.1818
-25.9547
30.7252
24.0792
20.655
18.5193
15.4304
11.1515
5.89791
-0.0715005
-6.41008
-10.5549
-13.8905
-20.3929
-19.9672
-18.9299
-18.0686
-17.2787
-16.4485
-15.5569
-14.5959
-12.7472
)
;

boundaryField
{
    left
    {
        type            symmetryPlane;
    }
    right
    {
        type            calculated;
        value           nonuniform List<scalar> 
30
(
4333.04
4329.16
4210.41
4028.82
3798.09
3527.84
3227.74
2907.93
2578.35
2244.46
1940.15
1664.6
1403.97
1163.54
945.603
751.693
582.492
437.899
317.12
218.797
141.128
81.9877
39.0594
9.92508
-7.82978
-16.5867
-18.6686
-16.3332
-11.6014
-3.34954
)
;
    }
    down
    {
        type            symmetryPlane;
    }
    up
    {
        type            calculated;
        value           nonuniform List<scalar> 
30
(
-0.0439573
-0.0443499
-0.0438732
-0.0430198
-0.0418688
-0.0404599
-0.0388353
-0.0370346
-0.0351628
-0.0335729
-0.0320086
-0.0305026
-0.0294326
-0.0286134
-0.0280558
-0.0277911
-0.0278596
-0.0283057
-0.0291823
-0.0305532
-0.0325088
-0.0351882
-0.0388204
-0.0438078
-0.050956
-0.0617163
-0.0774505
-0.0971405
-0.109082
-0.0465908
)
;
    }
    hole
    {
        type            calculated;
        value           nonuniform List<scalar> 
20
(
5402
5795.28
5675.89
5121.45
4247.42
3194.53
2113.94
1151.44
432.471
49.1551
-11824.5
-11335
-10039.3
-8192.2
-5971.21
-3559.11
-1143.32
1097.01
3006.17
4465.32
)
;
    }
    frontAndBack
    {
        type            empty;
    }
}


// ************************************************************************* //
