/*--------------------------------*- C++ -*----------------------------------*\
  =========                 |
  \\      /  F ield         | OpenFOAM: The Open Source CFD Toolbox
   \\    /   O peration     | Website:  https://openfoam.org
    \\  /    A nd           | Version:  9
     \\/     M anipulation  |
\*---------------------------------------------------------------------------*/
FoamFile
{
    format      ascii;
    class       volScalarField;
    location    "120";
    object      sigmayz;
}
// * * * * * * * * * * * * * * * * * * * * * * * * * * * * * * * * * * * * * //

dimensions      [1 -1 -2 0 0 0 0];

internalField   nonuniform List<scalar> 
1000
(
6.05457e-14
8.15285e-14
-2.36322e-14
-1.92126e-14
-1.8085e-14
7.07878e-15
-8.51179e-14
5.86582e-14
-3.05127e-14
0
1.80677e-14
0
6.68187e-14
-1.22552e-13
-5.58861e-14
5.50696e-14
4.44644e-14
1.00898e-13
0
0
0
0
6.69512e-14
1.19787e-14
1.06281e-16
-5.30178e-14
4.36402e-14
-3.9678e-14
-4.13182e-15
-1.51141e-14
6.89526e-15
-1.5721e-14
-3.19198e-14
7.37319e-15
5.71061e-14
-4.73821e-14
-4.25106e-14
-9.54651e-14
-1.23476e-14
1.76438e-14
5.85344e-16
1.74589e-16
-8.57473e-14
-1.6599e-15
1.70891e-15
4.34703e-14
-1.12895e-15
3.71541e-14
-1.77509e-15
-2.40655e-14
1.09613e-14
-7.69319e-17
2.43021e-17
2.58042e-16
-4.24164e-14
1.05396e-16
3.45228e-14
7.51268e-14
1.40515e-14
-2.16569e-14
-1.47409e-14
9.73346e-15
2.04024e-14
-2.15185e-15
3.12482e-14
-2.78734e-14
8.87339e-15
-2.53774e-14
-6.80106e-15
-1.8437e-14
-2.33121e-14
-2.92699e-14
4.15831e-16
6.99478e-15
4.63163e-14
-4.61438e-15
-2.16529e-16
-2.23176e-14
3.60176e-15
6.4652e-15
-2.09645e-14
-2.8502e-14
1.26093e-14
1.33176e-14
-7.08379e-15
8.37693e-15
5.90475e-15
2.27551e-14
5.21833e-15
-1.20249e-14
-2.93164e-14
-2.10599e-14
1.65356e-14
1.00121e-14
-3.34549e-16
-2.95097e-15
6.50173e-15
2.37621e-15
-8.15385e-15
-5.09598e-15
-6.71054e-14
5.22628e-15
-1.62596e-14
0
-1.76645e-15
-1.03675e-14
5.4833e-16
-7.17801e-15
3.21449e-15
8.92374e-15
-6.18497e-14
3.19654e-14
-2.07016e-14
-3.76769e-15
0
-1.18855e-14
1.63303e-15
1.9618e-18
3.85201e-16
4.56834e-15
-3.64827e-14
3.79486e-14
1.63042e-14
-6.05448e-15
0
-1.46466e-14
-1.84427e-14
1.11063e-14
-1.84523e-19
-8.08597e-15
4.24304e-14
-1.77907e-14
1.78823e-14
0
-1.12691e-14
9.99949e-15
-3.29115e-15
-1.679e-15
6.11281e-15
1.10428e-14
-3.83203e-15
1.38523e-14
-2.13865e-14
2.03673e-14
1.88351e-16
1.47426e-14
9.53595e-15
0
-7.03697e-15
6.4762e-15
-1.26641e-13
-4.55612e-14
-3.98727e-14
-1.08804e-14
3.15987e-14
-1.88796e-14
2.83797e-17
-2.19894e-14
-5.89566e-19
-2.11443e-14
-4.86086e-14
-1.00395e-15
-9.41781e-16
-5.63295e-14
1.56754e-14
-3.28287e-14
5.77146e-14
4.1904e-18
1.21407e-14
-1.72569e-14
-3.19045e-14
-4.87393e-14
1.83997e-14
-1.12305e-14
7.12222e-16
2.81266e-14
-4.45777e-15
9.10253e-16
-8.75527e-16
9.93314e-15
8.13624e-14
1.09495e-13
-9.22176e-16
4.22235e-14
4.82935e-14
4.20122e-14
4.48518e-15
-5.02638e-14
3.20992e-14
1.35371e-14
8.4249e-15
2.40799e-14
-3.4182e-14
8.55526e-14
-2.02732e-16
-4.65182e-14
-3.54881e-14
-1.83283e-14
3.55457e-15
6.71522e-15
3.1021e-15
5.65034e-15
2.44703e-15
-1.24921e-16
-8.09626e-15
0
0
2.51301e-16
2.30546e-15
6.90123e-16
5.797e-15
-1.69054e-15
4.18958e-15
-1.79932e-15
2.96445e-17
2.77139e-18
-8.75083e-16
9.69245e-16
-7.19279e-15
2.54803e-15
3.83082e-15
6.40588e-15
2.68471e-15
7.45219e-15
-2.86063e-15
-4.58522e-15
5.58828e-15
0
2.47102e-15
4.67305e-15
1.1667e-14
4.76686e-17
1.45831e-15
1.76877e-15
2.04503e-15
-2.27493e-15
-2.58256e-15
-5.80736e-15
-1.76782e-17
1.46324e-14
1.24771e-15
3.97695e-15
-2.87103e-15
-2.89404e-15
9.72039e-15
-6.40865e-15
-1.35122e-15
2.67083e-15
2.73707e-15
-3.64415e-15
3.78334e-15
6.66448e-15
8.07684e-17
-2.89144e-15
3.20726e-15
1.284e-17
-4.19944e-15
5.37536e-15
1.24212e-14
-1.93149e-17
0
4.90727e-15
1.79167e-15
2.07642e-15
0
2.40692e-15
-9.26155e-15
-3.91591e-15
-3.7296e-15
-1.25858e-15
-2.89523e-15
5.41688e-15
3.33292e-15
1.9812e-15
3.02543e-15
-4.98586e-15
-1.77855e-17
1.96275e-14
-8.39116e-15
-2.03591e-14
-4.14281e-15
-6.48667e-15
-1.19676e-14
7.58356e-15
2.09749e-14
-2.68098e-15
0
2.65837e-15
-1.19424e-14
-7.04884e-15
2.60417e-16
-4.98649e-15
3.89499e-15
1.21648e-14
2.01427e-15
-4.62741e-15
1.74585e-15
2.09046e-16
1.68359e-14
3.17882e-14
2.96176e-15
4.06379e-16
-1.1668e-14
-2.51621e-14
9.12093e-15
7.16478e-15
-3.37326e-15
-2.0354e-15
1.89391e-14
-1.12155e-14
-4.72681e-15
1.52091e-14
-1.18964e-14
-1.68313e-14
-3.78847e-15
-1.84707e-14
-2.60152e-16
2.79848e-14
1.05458e-14
-2.29768e-15
-4.57242e-15
6.64302e-15
9.46959e-15
-5.38991e-15
-1.52929e-14
7.13782e-15
1.84489e-14
-2.7953e-14
-1.79995e-14
2.61033e-14
-1.00808e-14
1.54994e-14
1.47035e-14
-1.47685e-14
3.51511e-15
6.41011e-16
-3.0513e-14
1.00118e-14
1.21109e-14
-5.48781e-16
9.0857e-16
-8.5186e-15
2.6194e-15
0
0
-2.02307e-14
1.43088e-14
3.44554e-14
-2.24587e-14
-2.3532e-14
1.07669e-14
-3.29065e-16
1.57539e-14
2.79303e-14
9.71791e-16
-7.27521e-15
0
-4.43332e-15
1.26106e-15
4.78701e-16
-1.20668e-15
1.35395e-14
-1.35818e-14
-1.2619e-14
3.08445e-14
2.28187e-14
-2.51829e-14
5.52261e-15
2.21994e-15
-3.43184e-15
-2.35028e-14
5.77639e-16
-1.35e-14
-9.33403e-16
9.61529e-15
-6.69642e-16
3.51134e-14
-2.71508e-15
-5.2972e-14
-2.97751e-14
-3.64243e-15
-1.80054e-14
1.34928e-14
-2.69459e-14
-2.89696e-14
1.06541e-14
8.39896e-15
2.02639e-14
-2.3073e-14
-8.09072e-16
1.54811e-15
-1.96689e-14
0
-1.27871e-14
8.13672e-17
-1.5917e-14
9.91731e-15
7.55946e-15
7.93199e-17
-3.56656e-15
1.88951e-14
-2.04485e-14
-7.52062e-15
1.74947e-14
-3.76283e-14
-2.39699e-14
-2.07724e-14
5.89963e-15
4.10612e-14
-1.09808e-15
2.03129e-14
-8.78297e-16
0
-7.18156e-15
6.4083e-15
-5.12894e-16
-4.75048e-15
2.74954e-16
1.1831e-16
-7.58498e-17
2.01097e-14
0
-1.16396e-14
2.26704e-28
7.96367e-29
2.36397e-28
1.95503e-28
-7.56789e-15
0
7.17285e-15
-3.91978e-29
-7.34996e-15
7.64161e-15
1.02695e-28
-8.64129e-15
-6.49639e-29
1.02628e-14
1.1359e-14
-7.28218e-29
-8.64562e-29
-1.34654e-15
-1.55661e-14
-2.73673e-14
0
-3.66179e-15
-1.67909e-14
-2.11526e-14
-3.14738e-14
8.09401e-15
-1.99972e-14
-9.25272e-15
-1.70642e-14
-1.56804e-14
-7.18002e-15
-1.31106e-14
-1.19421e-14
-1.0799e-14
-4.95791e-15
-4.55718e-15
-4.2595e-15
7.65001e-14
1.48842e-14
-3.9933e-14
5.40798e-28
8.11038e-15
0
1.22593e-14
-1.82674e-14
5.13926e-28
1.73708e-14
-9.40792e-15
-5.7289e-29
-3.70704e-28
7.45109e-15
-2.03005e-28
-2.09737e-14
1.90397e-28
1.90391e-14
-5.1093e-15
-4.90118e-15
2.83939e-14
2.7965e-14
2.80253e-14
3.38971e-29
3.7863e-14
1.93926e-15
1.86893e-15
2.29131e-14
9.53044e-15
1.9514e-14
1.8992e-14
-5.45858e-16
6.89632e-15
7.67618e-15
2.46649e-14
6.64985e-15
2.5967e-30
2.43108e-14
1.12261e-14
1.09656e-14
-1.70058e-14
-1.34762e-14
-1.31591e-14
0
1.18429e-14
2.36401e-14
-2.26501e-14
-1.04228e-14
1.0153e-14
1.01166e-14
1.63292e-28
8.94406e-15
0
-7.85673e-15
0
6.92996e-15
-1.20565e-14
8.72096e-29
4.17449e-29
-1.0267e-29
1.72446e-14
1.27934e-14
-1.32751e-14
3.50539e-28
2.76041e-31
1.19882e-14
1.15558e-14
-1.09558e-14
0
2.05878e-14
-3.18231e-28
-1.56986e-15
1.06981e-14
7.99562e-15
-1.13147e-14
7.17027e-15
1.23648e-14
1.30626e-14
-4.44815e-29
-1.47149e-28
1.19886e-14
1.21426e-14
1.21714e-14
0
1.18741e-14
0
1.12245e-14
0
0
0
9.43656e-15
0
0
8.09665e-15
0
0
0
6.90169e-15
6.80565e-15
6.83777e-15
-2.7349e-14
0
-1.15908e-14
0
-1.13943e-14
-1.11659e-14
0
0
0
-9.74832e-15
-9.33835e-15
-8.93047e-15
0
0
0
-7.53791e-15
0
-7.1548e-15
-7.09651e-15
-7.16011e-15
-4.42745e-14
-1.09627e-14
7.33805e-30
1.15466e-29
1.28519e-14
-2.33406e-14
-2.28607e-14
0
1.19738e-14
2.29681e-15
2.28452e-29
-2.07007e-14
-1.19285e-14
-8.20311e-15
1.23282e-14
-7.67058e-15
5.42901e-29
1.34419e-14
5.1321e-29
-4.8346e-29
1.32587e-14
5.34825e-29
-1.32789e-14
0
1.29694e-14
1.27751e-14
-1.25836e-14
-1.24121e-14
1.22743e-14
-2.95086e-28
-1.25613e-28
2.20238e-29
5.83154e-29
3.71734e-28
-3.17418e-29
6.16082e-29
-1.31404e-14
-5.18795e-29
-1.47376e-28
-5.25188e-29
-4.17284e-14
-1.4816e-28
-7.06376e-29
9.3527e-29
1.30513e-14
-1.29131e-14
-1.2768e-14
0
1.2521e-14
1.24438e-14
-6.04387e-29
-1.2423e-14
-1.2488e-14
8.6593e-29
1.27727e-14
-2.88376e-30
2.94051e-30
1.35326e-14
-1.48061e-28
-5.36053e-29
-9.61579e-16
-9.51536e-15
-1.31622e-14
0
1.31042e-14
2.2575e-14
-2.23645e-14
-3.14371e-14
1.27186e-14
8.96506e-15
1.17927e-28
8.57136e-15
-1.67552e-14
-8.19657e-15
-1.60734e-14
7.90705e-15
-1.33185e-14
0
-9.47422e-29
0
1.34031e-14
9.11278e-15
-1.30968e-14
2.40469e-29
3.19027e-29
9.20727e-15
3.51612e-14
-1.29382e-14
-2.57426e-14
2.15914e-14
-1.77767e-28
2.12776e-14
1.28628e-14
8.16927e-15
-1.30623e-14
-1.84679e-14
1.33719e-14
1.35486e-14
4.71545e-29
-4.77909e-29
-4.32549e-29
8.74658e-15
1.22565e-28
0
-1.21501e-28
-8.88161e-15
8.83775e-15
1.75401e-14
0
-8.58181e-15
-1.19403e-28
-8.35652e-15
1.64864e-14
8.13688e-15
1.60875e-14
-7.97048e-15
0
1.09811e-28
2.98031e-28
1.67018e-29
-1.24701e-14
4.39312e-29
-4.69585e-29
2.83551e-29
1.31333e-14
-1.31433e-14
-1.3125e-14
0
1.30595e-14
1.30354e-14
-1.9164e-28
-1.30432e-14
-1.30824e-14
0
1.32287e-14
6.14557e-30
-1.06313e-28
1.3529e-14
3.77015e-29
7.53996e-30
8.0128e-15
0
8.04308e-29
0
-2.43576e-29
-3.29117e-29
0
0
0
-1.01844e-28
9.79848e-30
-5.62451e-29
0
0
0
-5.5031e-29
0
2.88782e-28
5.5069e-29
5.54546e-29
-2.37559e-14
4.71531e-15
1.61911e-29
-2.61229e-29
1.3068e-14
-2.12362e-14
-2.12766e-14
0
1.31207e-14
4.9725e-15
-9.94884e-30
-2.12421e-14
-1.31816e-14
-8.04491e-15
1.33059e-14
-7.99966e-15
-3.62132e-29
1.35037e-14
-1.12893e-28
-1.78748e-30
4.60413e-15
-7.65453e-15
-4.97818e-15
0
2.09207e-14
1.3075e-14
-2.11093e-14
-1.31144e-14
1.31163e-14
-2.68012e-28
8.05402e-15
-2.92165e-30
-5.52013e-29
-8.02284e-15
-5.50309e-29
6.46967e-29
-1.34541e-14
7.99447e-15
8.0051e-15
8.03746e-15
-6.1897e-15
-4.12484e-15
-4.21171e-15
0
4.31512e-15
4.34077e-15
-4.35521e-15
-4.36274e-15
4.36708e-15
-5.05262e-29
3.01349e-29
8.20288e-30
1.83471e-29
4.87745e-29
1.83233e-29
4.90634e-29
-4.4874e-15
0
0
0
1.34379e-14
9.94769e-15
-6.78139e-15
2.21928e-15
-1.29701e-14
-3.56037e-15
4.2772e-14
-1.2549e-14
-1.76318e-14
0
6.28192e-15
2.93404e-14
3.02594e-14
4.1799e-14
-1.39154e-14
-2.60175e-14
-4.89414e-14
5.14968e-14
-1.94628e-14
1.90161e-14
-1.34725e-14
-2.2345e-14
-2.06573e-14
2.65781e-14
3.27257e-14
2.64146e-14
-5.59322e-15
-1.05905e-14
-1.91456e-15
1.93062e-14
-1.36721e-48
-4.21641e-15
-2.69934e-14
-3.88879e-14
2.25464e-14
-2.60669e-14
2.11062e-14
3.28442e-14
-2.86674e-15
3.90851e-14
8.08796e-16
1.91324e-14
0
-1.80077e-14
-9.1956e-15
1.31119e-14
-2.8702e-14
-3.02379e-14
-1.73868e-14
-6.45617e-14
-1.5323e-15
1.20484e-14
2.37708e-14
-7.25713e-15
-1.99954e-14
2.49281e-14
1.30731e-14
-7.31363e-16
4.39462e-14
-1.72312e-14
-1.1198e-48
-2.60978e-14
1.4246e-14
6.42462e-15
-2.63555e-14
-8.26168e-15
2.26918e-14
-1.6086e-14
2.99576e-14
6.16506e-14
-8.00663e-15
-9.20605e-15
3.03046e-16
9.72362e-15
-2.94915e-14
-1.32841e-14
-9.67247e-16
-3.95484e-14
-6.21411e-14
1.74086e-14
1.7922e-14
2.4903e-14
-4.11984e-15
1.85564e-14
1.97574e-14
-3.82781e-14
4.67605e-14
1.64185e-15
-6.41783e-14
-8.13398e-14
2.77345e-14
3.31689e-14
2.36866e-15
-1.21727e-14
5.46085e-14
2.01466e-14
2.418e-14
6.91839e-14
3.48733e-14
-1.85585e-14
-4.70242e-14
-2.14512e-14
-2.54839e-15
-6.39271e-15
-3.45024e-14
5.01718e-14
1.92979e-14
3.36007e-14
3.35369e-14
2.86081e-16
-2.041e-14
-3.32135e-14
-3.84748e-15
-5.08437e-15
-4.50029e-14
-1.59141e-14
9.45323e-15
1.07643e-14
2.85417e-14
1.56903e-15
2.95995e-14
1.17348e-14
6.17161e-15
2.83887e-16
-2.39871e-14
-1.92882e-14
-4.28404e-15
-5.16941e-17
-5.3995e-17
1.62584e-14
-5.88005e-49
9.7876e-15
9.89755e-15
4.9929e-15
9.76879e-15
3.54815e-16
9.62282e-15
-1.00141e-14
-1.96948e-14
2.28713e-14
-5.14514e-49
0
-2.94466e-14
0
-3.2304e-14
2.08134e-14
3.58796e-14
2.06058e-14
-1.32048e-14
-4.58882e-14
-9.62729e-15
5.8225e-15
1.89124e-14
5.88699e-16
-1.28586e-14
-3.98443e-14
4.44984e-14
9.00142e-15
2.8471e-14
1.18478e-14
-4.66812e-16
-5.51662e-15
2.91261e-14
-2.01784e-14
2.894e-14
-3.33514e-14
7.74428e-16
2.76279e-14
-9.01339e-15
-8.66528e-15
3.36116e-17
1.86386e-14
-3.76166e-14
-9.872e-15
-1.62361e-14
0
-1.84756e-14
9.27534e-15
2.04892e-14
-1.31225e-14
1.68017e-14
-5.38863e-15
8.518e-15
1.49219e-14
-1.43622e-14
-9.0658e-15
0
-8.80795e-15
8.55102e-15
-6.52741e-17
9.10186e-15
-7.65501e-15
7.82929e-15
4.29255e-15
-1.23982e-15
-5.0539e-15
6.43558e-17
-2.93845e-15
3.29545e-15
-2.36838e-15
)
;

boundaryField
{
    left
    {
        type            symmetryPlane;
    }
    right
    {
        type            calculated;
        value           nonuniform List<scalar> 
30
(
2.54803e-15
1.46324e-14
-1.93149e-17
-2.03591e-14
3.17882e-14
-2.29768e-15
-5.48781e-16
4.78701e-16
-2.97751e-14
-3.56656e-15
-7.58498e-17
-8.64562e-29
-4.2595e-15
-4.90118e-15
1.09656e-14
-1.0267e-29
-1.47149e-28
6.83777e-15
-7.16011e-15
-4.8346e-29
-5.25188e-29
-5.36053e-29
0
-4.77909e-29
1.67018e-29
7.53996e-30
5.54546e-29
-1.78748e-30
8.03746e-15
0
)
;
    }
    down
    {
        type            symmetryPlane;
    }
    up
    {
        type            calculated;
        value           nonuniform List<scalar> 
30
(
-1.42067e-18
1.79835e-18
-1.70822e-18
-7.56371e-20
9.12447e-19
-2.20802e-19
1.74976e-20
3.09701e-19
9.97556e-19
1.50387e-18
-9.12378e-19
-1.32573e-18
-1.3815e-18
0
1.48604e-18
1.53447e-18
-1.58176e-18
-1.62993e-18
1.68176e-18
-2.4599e-32
1.24626e-32
-1.35984e-33
-2.04228e-33
1.24623e-32
-2.52611e-33
1.48452e-32
-3.14239e-18
0
0
0
)
;
    }
    hole
    {
        type            calculated;
        value           nonuniform List<scalar> 
20
(
6.37716e-14
6.41245e-14
0
2.72645e-14
1.68937e-14
3.88024e-14
-4.55991e-14
-5.79264e-14
-2.07754e-14
-7.47938e-15
-6.72593e-14
-6.05729e-14
-3.42205e-14
3.42633e-14
7.69418e-15
-9.72358e-14
-4.97118e-14
-7.85299e-14
2.81289e-14
8.69042e-15
)
;
    }
    frontAndBack
    {
        type            empty;
    }
}


// ************************************************************************* //
