/*--------------------------------*- C++ -*----------------------------------*\
  =========                 |
  \\      /  F ield         | OpenFOAM: The Open Source CFD Toolbox
   \\    /   O peration     | Website:  https://openfoam.org
    \\  /    A nd           | Version:  9
     \\/     M anipulation  |
\*---------------------------------------------------------------------------*/
FoamFile
{
    format      ascii;
    class       volScalarField;
    location    "120";
    object      sigmaEq;
}
// * * * * * * * * * * * * * * * * * * * * * * * * * * * * * * * * * * * * * //

dimensions      [1 -1 -2 0 0 0 0];

internalField   nonuniform List<scalar> 
1000
(
10600.8
11712.6
13296.2
14293.8
14801.4
14986.1
14969.2
14830.6
14630.7
14362.9
13566.7
13301
14112.3
14730.3
15038
15109.9
15026.1
14847.9
14622.7
14335.8
16432.3
14882.9
14861
15029.8
15093
15028.1
14867.5
14647.3
14400.4
14113.2
19122.5
16398.5
15534.4
15209.5
14992.8
14769.6
14521.2
14254.7
13985
13696.6
21569.3
17795.5
16125
15290.9
14771.4
14372.9
14026.1
13707.6
13413.2
13123.6
23711.2
19029
16626.5
15299
14471
13887.6
13434.8
13059.8
12739.1
12447.9
25493.8
20061.4
17034.1
15261
14139.6
13373.7
12813.4
12380.3
12032.5
11738.9
26869.4
20862.9
17344.4
15202.9
13827.3
12897
12237.4
11749.7
11376.5
11079.7
27793
21410.1
17552.1
15144.8
13579.4
12522.9
11785.4
11254.5
10861.6
10562.7
28251.2
21688.6
17633.1
15076.1
13406.1
12280.5
11500.7
10946.9
10545.3
10250.4
10522.2
6740.51
4676.11
3711.66
3394.66
3449
3697.62
4034.73
4402.41
4770.78
10209.4
6609.31
5049.26
4523.66
4449.63
4572.15
4786.06
5042.81
5315.43
5589.85
9289.91
6436.58
5727.43
5763.67
5954.21
6155.97
6346.91
6527.79
6700.06
6870.16
7915.46
6259.42
6585.2
7139.33
7549.44
7820.78
8001.21
8127.05
8220.18
8302.98
6158.23
6180.31
7538.49
8515.82
9096.93
9422.5
9595.18
9677.98
9707.79
9718.57
4121.72
6329.17
8534.04
9820.67
10523.7
10885.1
11047.1
11092.6
11069.3
11019.1
2169.45
6809.43
9538.87
11011.7
11785.2
12160.8
12305.8
12315.8
12246.2
12143.1
2331.69
7649.49
10531.3
12064.2
12854.1
13220.1
13339.2
13313.1
13201.6
13051.1
4749.76
8803.01
11496.1
12964.6
13715.5
14046.9
14130.4
14067.1
13917.8
13725.7
7621.32
10186.7
12421.1
13707.5
14363.9
14635.3
14674.3
14574.1
14395
14192
5111.83
5419.32
5698.4
5949.79
6173.43
6369.58
6538.69
6681.29
6797.82
6888.53
6953.41
6992.1
7003.89
6987.67
6941.93
6864.79
6754.31
6609.39
6432.67
6254.33
5802.86
5975.12
6150.14
6319.98
6478.81
6623
6750.18
6858.7
6947.37
7015.19
7061.17
7084.24
7083.14
7056.39
7002.3
6919.07
6804.84
6657.52
6472.62
6261.81
6930.23
6925.68
6948.79
6990.52
7042.01
7096.7
7149.41
7195.95
7232.97
7257.65
7267.54
7260.38
7234.02
7186.26
7114.88
7017.52
6891.58
6733.69
6538.82
6323.41
8226.42
8057.79
7929.1
7835.43
7767.65
7718.53
7681.69
7651.45
7622.89
7591.66
7553.98
7506.4
7445.77
7369.06
7273.32
7155.54
7012.53
6840.85
6636.92
6419.53
9529.63
9227.63
8966.67
8750.03
8569.37
8418.15
8290.15
8179.38
8080.22
7987.48
7896.44
7802.79
7702.56
7591.99
7467.55
7325.76
7163.31
6977.2
6765.05
6545.9
10743.5
10344.9
9978.63
9659.88
9381.77
9139.13
8926.78
8739.27
8571.09
8416.87
8271.48
8130.15
7988.39
7842.03
7687.16
7520.19
7337.92
7137.92
6918.77
6699.32
11807.1
11351.2
10909.9
10513.7
10157.8
9839.1
9553.96
9298.15
9066.9
8855.18
8658
8470.5
8288.06
8106.39
7921.52
7729.98
7528.94
7316.62
7092.67
6875.86
12680.8
12207.5
11722.8
11275.6
10863.7
10486.6
10142.9
9830.06
9544.46
9281.93
9038
8808.14
8587.93
8373.24
8160.35
7946.17
7728.47
7506.35
7280.77
7070.56
13337.8
12882.4
12384.4
11912.2
11467.2
11051.6
10666.1
10310.1
9981.56
9677.44
9394.2
9127.96
8874.83
8631.11
8393.6
8159.81
7928.44
7699.81
7476.64
7277.69
13786.1
13350.5
12858.1
12384.9
11931.4
11499.7
11092
10709.5
10352
10018
9705.27
9410.86
9131.74
8864.96
8608.05
8359.4
8118.81
7888.17
7672.66
7492.85
14087.4
13569.3
13091.7
12631.8
12186.1
11757.1
11347.3
10958.4
10591.1
10245
9918.84
9610.65
9318.34
9039.9
8773.83
8519.58
8278.16
8052.96
7851.34
7694.29
13758.3
13444.1
13051.8
12647.6
12242
11842.1
11452.7
11077.1
10717.5
10374.7
10048.7
9738.74
9443.94
9163.47
8896.96
8645.04
8409.94
8196.37
8013.19
7880.37
13417.7
13201.1
12894.2
12553.2
12195.4
11832.4
11471.5
11117.7
10774.2
10443.1
10125.4
9821.49
9531.61
9255.98
8995.35
8751.46
8527.67
8329.81
8167.74
8059.41
13064.4
12911.3
12670.9
12389
12080.4
11757.6
11429.5
11102.3
10780.2
10466.2
10162.4
9870.07
9590.38
9324.55
9074.31
8842.37
8633.02
8452.92
8312.36
8227.14
12700.2
12595.3
12407.3
12176.5
11914.4
11632.1
11338.7
11041
10743.9
10451.1
10165.4
9888.89
9623.61
9371.58
9135.33
8918.39
8725.72
8564.46
8445.01
8381.12
12331.7
12264.9
12119.9
11932.7
11712.5
11468.9
11210.3
10943.3
10673.3
10404.3
10139.8
9882.45
9634.84
9399.69
9180.19
8980.43
8805.83
8663.75
8564.38
8519.6
11965.5
11928.8
11819.4
11669.4
11486.6
11278.9
11053.9
10817.8
10575.8
10332.4
10091.1
9855.19
9627.61
9411.59
9210.76
9029.59
8873.74
8750.53
8669.77
8641.51
11606.6
11593.4
11513.6
11395.6
11245.8
11071.1
10877.8
10671.9
10458.2
10241.1
10024.3
9811.29
9605.33
9409.9
9228.95
9067.1
8930.06
8824.94
8760.95
8746.46
11258.8
11263.5
11208.3
11117.8
10997.2
10852.4
10688.9
10512
10326.2
10135.6
9943.87
9754.58
9571.12
9397.12
9236.6
9094.24
8975.6
8887.4
8838.14
8834.66
10923.9
10942.3
10907.6
10840.7
10746
10628.5
10492.8
10343.5
10184.8
10020.3
9853.78
9688.47
9527.85
9375.53
9235.5
9112.32
9011.26
8938.59
8901.94
8906.81
10602.9
10631.8
10614.2
10567.9
10496.4
10403.7
10294
10170.9
10038.2
9899.34
9757.54
9616.04
9478.11
9347.26
9227.33
9122.64
9038.11
8979.39
8953.27
8964.03
10295.7
10332.9
10330.1
10302
10251.4
10181.7
10096.1
9997.89
9890.17
9775.99
9658.29
9540.02
9424.26
9314.3
9213.72
9126.54
9057.24
9010.86
8993.27
9007.73
10001.8
10046.2
10056.6
10045.1
10013.9
9965.46
9902.56
9827.82
9743.89
9653.36
9558.82
9462.94
9368.48
9278.48
9196.21
9125.34
9069.85
9034.16
9023.26
9039.55
9720.58
9771.9
9794.85
9799.01
9786.01
9757.75
9716.29
9663.78
9602.38
9534.3
9461.76
9387.1
9312.8
9241.54
9176.29
9120.3
9077.11
9050.51
9044.64
9061.19
9451.44
9510.48
9546.15
9565.77
9570.44
9561.46
9540.37
9508.85
9468.65
9421.6
9369.62
9314.73
9259.1
9205.12
9155.36
9112.68
9080.18
9061.09
9058.81
9074.42
9194.48
9262.94
9312.35
9347.9
9370.15
9379.89
9378.21
9366.38
9345.83
9318.11
9284.88
9247.93
9209.17
9170.68
9134.67
9103.59
9080.09
9066.98
9067.06
9080.95
8950.76
9031.34
9096.35
9148.93
9189.08
9217.16
9233.88
9240.24
9237.44
9226.88
9210.08
9188.72
9164.56
9139.42
9115.21
9093.94
9077.75
9069.08
9070.48
9082.44
8722.94
8819.44
8902.79
8974.01
9032.62
9078.62
9112.5
9135.11
9147.58
9151.32
9147.89
9139.02
9126.47
9112.02
9097.37
9084.13
9073.85
9068.34
9070.01
9080.45
8516.4
8633.86
8739.02
8830.8
8908.38
8971.6
9020.85
9057.02
9081.36
9095.49
9101.24
9100.62
9095.65
9088.34
9080.47
9073.49
9068.43
9066.02
9067.66
9076.69
8344.89
8488.5
8618.12
8731.41
8827.48
8906.11
8967.77
9013.52
9045
9064.22
9073.56
9075.55
9072.8
9067.84
9062.97
9060.09
9060.38
9063.97
9069.39
9072.25
10023.2
10307.8
10791.7
11414.4
12090
12742.3
13307.8
13737.9
13998.6
14069.2
9829.63
10075.8
10506.7
11071.4
11697.3
12319.2
12881.9
13342.1
13667.6
13794.2
9666.06
9878.99
10257.7
10761.4
11328.7
11903.8
12439.3
12897
13246.7
13415.5
9526.47
9711.24
10043.2
10490.3
11001.1
11528.3
12030.7
12474.8
12831.4
13031.5
9403.71
9564.16
9854.25
10249.1
10706
11184.8
11650
12072
12423.8
12643.7
9291.71
9431.1
9684.06
10031.4
10437.8
10869.3
11295.3
11690
12028.6
12257.5
9185.6
9306.8
9527.19
9832.03
10192.1
10578.5
10965.3
11329.8
11649.7
11878.8
9081.48
9187.06
9379.08
9646.31
9964.39
10309.1
10657.9
10991.2
11289.3
11512.3
8976.12
9068.34
9235.83
9470.08
9750.75
10057.3
10370.5
10673.1
10947.9
11160.5
8866.71
8947.56
9093.97
9299.56
9547.23
9819.54
10099.9
10373.4
10624.8
10824.5
8750.63
8821.91
8950.34
9131.23
9350.12
9592.1
9842.84
10089.3
10318.2
10504.1
8625.33
8688.63
8801.89
8961.75
9155.87
9371.42
9595.97
9818.12
10026.3
10198.5
8488.12
8544.92
8645.6
8787.84
8960.97
9153.95
9355.94
9556.85
9746.54
9906.3
8336.05
8387.79
8478.34
8606.14
8761.95
8936.21
9119.41
9302.56
9476.69
9625.88
8165.79
8213.98
8296.73
8413.11
8555.16
8714.65
8883.13
9052.44
9214.53
9355.93
7973.53
8019.84
8097
8204.8
8336.73
8485.66
8643.93
8803.94
8958.26
9095.54
7754.96
7801.25
7874.6
7976.61
8102.38
8245.54
8398.81
8554.89
8706.71
8844.68
7506.08
7552.97
7623.47
7722.9
7847.4
7990.55
8145.04
8303.72
8459.66
8604.69
7226.06
7265.97
7334.63
7436.72
7566.58
7716.95
7880.37
8049.74
8218.28
8378.99
6935
6932.68
7006.82
7120.31
7263.46
7429.23
7610.59
7800.32
7991.45
8179.38
)
;

boundaryField
{
    left
    {
        type            symmetryPlane;
    }
    right
    {
        type            calculated;
        value           nonuniform List<scalar> 
30
(
6243.18
6245.18
6306.92
6403.7
6530.58
6684.47
6861.56
7056.96
7264.94
7481.93
7684.75
7872.24
8052.7
8221.69
8376.82
8516.34
8639.16
8744.89
8833.72
8906.38
8963.99
9007.98
9039.97
9061.72
9074.99
9081.55
9083.12
9081.39
9077.86
9071.64
)
;
    }
    down
    {
        type            symmetryPlane;
    }
    up
    {
        type            calculated;
        value           nonuniform List<scalar> 
30
(
6928.41
6922.99
6997.26
7111.18
7254.67
7420.74
7602.44
7792.56
7984.12
8172.93
8339.18
8483.45
8613.76
8727.66
8824.29
8903.42
8965.5
9011.62
9043.41
9062.9
9072.46
9074.65
9072.08
9067.31
9062.64
9059.98
9060.53
9064.35
9069.65
9070.81
)
;
    }
    hole
    {
        type            calculated;
        value           nonuniform List<scalar> 
20
(
10633.5
13713.9
16678.3
19455.4
21978.1
24184.7
26020.3
27435.7
28384
28856.9
10740.2
10423.8
9464.84
8020.32
6152.09
3913.4
1361.59
1439.69
4421.42
7510.93
)
;
    }
    frontAndBack
    {
        type            empty;
    }
}


// ************************************************************************* //
