/*--------------------------------*- C++ -*----------------------------------*\
  =========                 |
  \\      /  F ield         | OpenFOAM: The Open Source CFD Toolbox
   \\    /   O peration     | Website:  https://openfoam.org
    \\  /    A nd           | Version:  9
     \\/     M anipulation  |
\*---------------------------------------------------------------------------*/
FoamFile
{
    format      ascii;
    class       volScalarField;
    location    "120";
    object      sigmazz;
}
// * * * * * * * * * * * * * * * * * * * * * * * * * * * * * * * * * * * * * //

dimensions      [1 -1 -2 0 0 0 0];

internalField   nonuniform List<scalar> 
1000
(
2847.04
2792.04
2737.59
2693.84
2658.11
2628.4
2603.12
2580.74
2561.58
2540.36
3672.81
3470.12
3310.53
3182.49
3078.18
2991.89
2919.46
2857.77
2806.67
2764.06
4467.46
4122.63
3861.88
3652.75
3482.48
3341.82
3224.06
3124.33
3040.84
2972.16
5211.9
4733.7
4378.13
4093.01
3860.93
3669.25
3508.81
3372.91
3257.94
3161.87
5888.12
5288.39
4846.59
4492.43
4204.17
3966.06
3766.68
3597.6
3453.57
3331.59
6479.64
5772.99
5255.71
4841.19
4503.81
4225.07
3991.53
3793.27
3623.61
3478.48
6971.57
6175.2
5595.26
5130.73
4752.61
4440.1
4178.1
3955.49
3764.42
3599.75
7350.4
6484.34
5856.8
5354.11
4944.73
4606.18
4322.16
4080.68
3873
3693.07
7602.95
6692.1
6034.35
5506.54
5076.11
4719.84
4420.77
4166.35
3947.24
3756.81
7730.57
6804.77
6120.79
5573.13
5128.14
4760.95
4453.46
4192.34
3967.69
3772.3
-2872.41
-1921.56
-1234.62
-683.723
-236.095
133.326
442.876
706.03
932.825
1130.72
-2795.71
-1820.58
-1155.66
-623.412
-189.652
169.401
470.954
727.733
949.21
1141.97
-2540.97
-1613.73
-978.248
-470.724
-58.0382
283.057
569.23
812.697
1022.37
1203.68
-2153.73
-1301.72
-715.249
-246.554
134.373
448.953
712.629
936.721
1129.29
1293.98
-1652.59
-894.813
-373.03
44.4147
383.744
663.848
898.424
1097.53
1268.07
1411.45
-1052.33
-405.027
39.2541
394.961
684.163
922.803
1122.47
1291.67
1435.89
1553.94
-368.288
154.564
510.839
796.209
1028.24
1219.62
1379.56
1514.81
1629.2
1718.71
382.58
769.737
1029.76
1238.08
1407.45
1547.09
1663.67
1762
1844.08
1902.86
1181.83
1425.2
1583.05
1709.52
1812.35
1897.12
1967.93
2027.73
2076.77
2104.79
2010
2104.83
2157.03
2198.81
2232.75
2260.74
2284.3
2304.95
2322.8
2327.31
1300.51
1456.14
1596.14
1723.93
1841.92
1952.08
2056.07
2155.25
2250.81
2343.8
2435.14
2525.69
2616.26
2707.61
2800.48
2895.59
2993.6
3094.99
3199.53
3312.46
1306.49
1460.26
1597.04
1722.54
1838.77
1947.54
2050.36
2148.53
2243.19
2335.32
2425.83
2515.55
2605.27
2695.75
2787.73
2881.98
2979.35
3080.84
3187.86
3313.91
1355.29
1500.68
1627.09
1744.5
1854.28
1957.79
2056.25
2150.74
2242.2
2331.52
2419.48
2506.86
2594.35
2682.69
2772.59
2864.81
2960.19
3059.67
3164.39
3286.38
1427.63
1560.15
1671.92
1777.64
1877.99
1973.78
2065.83
2154.87
2241.64
2326.8
2411
2494.88
2579.07
2664.18
2750.86
2839.8
2931.72
3027.45
3127.78
3244.1
1523.25
1637.49
1730.86
1821.61
1909.83
1995.68
2079.43
2161.45
2242.13
2321.91
2401.25
2480.61
2560.48
2641.37
2723.8
2808.36
2895.65
2986.32
3080.98
3190.53
1641.28
1731.18
1803.06
1875.97
1949.7
2023.63
2097.43
2171.01
2244.39
2317.73
2391.23
2465.17
2539.87
2615.68
2693
2772.25
2853.91
2938.48
3026.39
3127.87
1780.19
1839.25
1887.32
1940.03
1997.28
2057.62
2120.07
2184.01
2249.08
2315.07
2381.94
2449.73
2518.55
2588.59
2660.07
2733.27
2808.49
2886.08
2966.29
3058.3
1937.64
1959.38
1982.01
2012.76
2051.98
2097.4
2147.36
2200.72
2256.65
2314.6
2374.21
2435.28
2497.69
2561.43
2626.54
2693.12
2761.28
2831.17
2902.9
2984.14
2112.26
2091.67
2087.75
2095.28
2115.18
2144.46
2180.84
2222.63
2268.58
2317.76
2369.48
2423.27
2478.78
2535.76
2594.05
2653.53
2714.11
2775.74
2838.31
2907.67
2307.42
2249.49
2214.39
2193.89
2189.82
2199.18
2219.18
2247.46
2282.15
2321.76
2365.17
2411.49
2460.03
2510.28
2561.79
2614.2
2667.14
2720.28
2773.26
2829.81
2455.01
2400.4
2336.03
2297.17
2276.74
2271.11
2277.35
2293.03
2316.21
2345.28
2378.94
2416.15
2456.05
2497.9
2541.09
2585.03
2629.19
2672.99
2715.82
2759.02
2486.5
2439.26
2378.78
2339.72
2317.1
2307.88
2309.56
2320.02
2337.5
2360.54
2387.93
2418.64
2451.82
2486.7
2522.62
2558.91
2594.93
2630
2663.33
2694.9
2544.9
2496.32
2435.69
2393.39
2365.97
2351.02
2346.39
2350.26
2361.01
2377.28
2397.88
2421.78
2448.09
2476
2504.75
2533.61
2561.83
2588.61
2613.05
2634.21
2579.34
2532.03
2474.11
2431.53
2401.95
2383.54
2374.6
2373.56
2379.03
2389.74
2404.6
2422.61
2442.88
2464.56
2486.88
2509.03
2530.23
2549.59
2566.18
2578.26
2596.21
2551.52
2497.74
2456.68
2426.75
2406.6
2394.9
2390.37
2391.79
2398.07
2408.18
2421.19
2436.24
2452.49
2469.16
2485.42
2500.45
2513.36
2523.18
2527.53
2598.95
2557.8
2509.04
2470.71
2441.75
2421.21
2408.04
2401.21
2399.7
2402.55
2408.85
2417.74
2428.39
2440.02
2451.84
2463.04
2472.8
2480.24
2484.37
2482.39
2590.4
2553.39
2510.15
2475.36
2448.35
2428.44
2414.85
2406.73
2403.25
2403.59
2406.94
2412.52
2419.57
2427.36
2435.12
2442.1
2447.48
2450.41
2449.95
2443
2572.93
2540.45
2502.96
2472.22
2447.85
2429.36
2416.17
2407.61
2402.99
2401.61
2402.79
2405.82
2410.03
2414.72
2419.2
2422.75
2424.61
2423.97
2419.95
2409.34
2548.44
2520.74
2489.07
2462.71
2441.46
2425
2412.86
2404.54
2399.48
2397.09
2396.78
2397.95
2399.99
2402.29
2404.21
2405.09
2404.25
2400.92
2394.31
2381.22
2518.51
2495.75
2469.87
2448.07
2430.3
2416.3
2405.74
2398.22
2393.3
2390.49
2389.29
2389.21
2389.7
2390.24
2390.26
2389.17
2386.36
2381.15
2372.83
2358.33
2484.4
2466.71
2446.54
2429.42
2415.35
2404.15
2395.58
2389.31
2385.01
2382.27
2380.7
2379.88
2379.37
2378.7
2377.41
2374.97
2370.86
2364.49
2355.24
2340.26
2447.17
2434.62
2420.1
2407.72
2397.53
2389.39
2383.11
2378.45
2375.14
2372.88
2371.36
2370.25
2369.18
2367.8
2365.7
2362.45
2357.62
2350.7
2341.19
2326.5
2407.66
2400.37
2391.42
2383.84
2377.66
2372.76
2369.01
2366.23
2364.22
2362.76
2361.62
2360.57
2359.32
2357.61
2355.13
2351.53
2346.46
2339.51
2330.28
2316.52
2366.6
2364.68
2361.3
2358.56
2356.49
2354.99
2353.95
2353.25
2352.75
2352.31
2351.81
2351.07
2349.93
2348.2
2345.67
2342.08
2337.16
2330.61
2322.11
2309.75
2324.6
2328.22
2330.43
2332.61
2334.76
2336.76
2338.56
2340.06
2341.21
2341.94
2342.22
2341.97
2341.13
2339.6
2337.26
2333.96
2329.5
2323.67
2316.22
2305.64
2282.24
2291.61
2299.51
2306.71
2313.15
2318.75
2323.45
2327.22
2330.07
2332.04
2333.15
2333.47
2333.01
2331.8
2329.82
2327
2323.22
2318.34
2312.19
2303.61
2240.05
2255.46
2269.21
2281.56
2292.4
2301.65
2309.27
2315.31
2319.83
2322.98
2324.89
2325.73
2325.65
2324.79
2323.22
2320.99
2318.05
2314.29
2309.58
2303.1
2198.59
2220.42
2240.25
2257.91
2273.24
2286.16
2296.68
2304.9
2310.98
2315.15
2317.7
2318.91
2319.07
2318.46
2317.29
2315.7
2313.71
2311.22
2308.03
2303.53
2158.46
2187.2
2213.43
2236.59
2256.5
2273.08
2286.4
2296.62
2304.02
2308.96
2311.84
2313.13
2313.27
2312.7
2311.79
2310.81
2309.87
2308.84
2307.33
2304.53
2118.57
2155.66
2189.21
2218.54
2243.45
2263.87
2279.92
2291.87
2300.15
2305.27
2307.84
2308.52
2307.99
2306.89
2305.82
2305.28
2305.57
2306.68
2307.95
2307.2
3602.79
3592.15
3539.86
3462.55
3360.91
3236.2
3090.31
2925.74
2744.35
2525.46
3449.64
3442.35
3400.4
3338.82
3259.01
3162.71
3052.07
2929.4
2795.57
2608.82
3312.12
3308.09
3275.86
3228.08
3165.65
3089.72
3001.77
2903.63
2796.25
2645.21
3187.29
3185.65
3161.15
3124.56
3076.49
3017.68
2949.17
2872.26
2787.33
2667.08
3072.76
3072.91
3054.54
3026.92
2990.37
2945.36
2892.55
2832.89
2766.3
2672.33
2966.61
2968.14
2954.73
2934.36
2907.17
2873.39
2833.39
2787.81
2736.31
2664.03
2867.26
2869.88
2860.53
2846.13
2826.65
2802.1
2772.65
2738.68
2699.66
2645.07
2773.37
2776.9
2770.93
2761.51
2748.47
2731.63
2710.99
2686.67
2658.08
2617.89
2683.81
2688.13
2685.03
2679.85
2672.27
2661.98
2648.78
2632.63
2612.85
2584.44
2597.61
2602.62
2602.03
2600.52
2597.67
2593.05
2586.28
2577.14
2564.92
2546.25
2513.9
2519.57
2521.19
2522.93
2524.29
2524.68
2523.58
2520.61
2515.01
2504.54
2431.91
2438.21
2441.83
2446.54
2451.72
2456.66
2460.7
2463.29
2463.63
2460.23
2350.91
2357.85
2363.33
2370.81
2379.56
2388.75
2397.58
2405.34
2411.17
2414.06
2270.24
2277.83
2285.08
2295.2
2307.38
2320.68
2334.11
2346.84
2357.91
2366.61
2189.25
2197.5
2206.45
2219.17
2234.77
2252.14
2270.16
2287.82
2304.07
2318.35
2107.33
2116.22
2126.81
2142.18
2161.27
2182.81
2205.53
2228.26
2249.83
2269.7
2023.93
2033.3
2045.49
2063.62
2086.38
2112.34
2140.03
2168.12
2195.32
2221.05
1938.64
1947.89
1961.7
1982.84
2009.62
2040.35
2073.44
2107.35
2140.69
2172.77
1851.63
1858.86
1874.54
1899.19
1930.48
1966.53
2005.57
2045.95
2086.09
2125.27
1758.81
1755.48
1774.51
1803.8
1840.57
1883.07
1929.55
1978.2
2027.23
2075.83
)
;

boundaryField
{
    left
    {
        type            symmetryPlane;
    }
    right
    {
        type            calculated;
        value           nonuniform List<scalar> 
30
(
3307.64
3306.74
3279.34
3237.43
3184.18
3121.82
3052.56
2978.76
2902.71
2825.65
2755.43
2691.84
2631.69
2576.21
2525.91
2481.17
2442.12
2408.75
2380.88
2358.19
2340.27
2326.62
2316.71
2309.99
2305.9
2303.88
2303.4
2303.95
2305.04
2306.93
)
;
    }
    down
    {
        type            symmetryPlane;
    }
    up
    {
        type            calculated;
        value           nonuniform List<scalar> 
30
(
1762.96
1761.58
1780.48
1809.47
1845.98
1888.24
1934.47
1982.85
2031.6
2079.64
2121.95
2158.66
2191.82
2220.8
2245.39
2265.52
2281.32
2293.06
2301.14
2306.1
2308.53
2309.09
2308.44
2307.22
2306.03
2305.35
2305.48
2306.44
2307.79
2308.11
)
;
    }
    hole
    {
        type            calculated;
        value           nonuniform List<scalar> 
20
(
2705.76
3489.6
4243.92
4950.57
5592.49
6154.01
6621.09
6981.25
7222.54
7342.89
-2732.97
-2652.44
-2408.43
-2040.86
-1565.47
-995.818
-346.488
366.321
1125.05
1911.2
)
;
    }
    frontAndBack
    {
        type            empty;
    }
}


// ************************************************************************* //
