/*--------------------------------*- C++ -*----------------------------------*\
  =========                 |
  \\      /  F ield         | OpenFOAM: The Open Source CFD Toolbox
   \\    /   O peration     | Website:  https://openfoam.org
    \\  /    A nd           | Version:  9
     \\/     M anipulation  |
\*---------------------------------------------------------------------------*/
FoamFile
{
    format      ascii;
    class       volScalarField;
    location    "120";
    object      sigmaxz;
}
// * * * * * * * * * * * * * * * * * * * * * * * * * * * * * * * * * * * * * //

dimensions      [1 -1 -2 0 0 0 0];

internalField   nonuniform List<scalar> 
1000
(
-7.19698e-14
-1.1354e-13
1.41158e-13
2.26784e-14
-1.31775e-13
-1.02572e-15
-1.53782e-13
9.22611e-14
-9.27349e-14
0
-1.17664e-13
0
1.32854e-13
-2.28922e-13
-9.89284e-14
8.51097e-14
7.78338e-14
1.62737e-13
0
0
0
0
1.29096e-13
-2.53452e-14
-1.89371e-16
-8.20262e-14
7.17925e-14
-6.84232e-14
1.56588e-14
-1.1064e-14
-7.25372e-14
6.10591e-14
-6.26502e-14
-2.37544e-14
8.15995e-14
-8.27954e-14
-7.34367e-14
-1.64695e-13
-4.34903e-14
4.55954e-14
-4.41707e-14
-1.59956e-15
-1.91402e-13
1.11598e-14
-1.28268e-14
7.52102e-14
1.11099e-15
5.96618e-14
-5.7814e-14
-4.41389e-14
-1.38914e-13
-1.41629e-15
8.61331e-16
9.93638e-15
-8.75428e-14
2.27978e-16
6.75128e-14
1.54068e-13
2.72779e-14
-5.60623e-14
1.70399e-13
3.82014e-14
6.089e-14
-9.09262e-15
7.45171e-14
-6.96197e-14
-1.50587e-15
-5.80363e-14
7.14445e-15
-2.74274e-14
2.98124e-13
-1.50592e-13
8.17081e-16
1.30249e-14
1.56694e-13
-2.75153e-15
1.64118e-17
-5.41484e-14
-2.50381e-15
2.3079e-15
1.7551e-13
-1.60591e-13
1.1932e-14
1.19375e-14
-4.79372e-15
6.71685e-14
-1.88452e-16
1.08522e-13
2.45398e-14
1.88624e-14
1.89445e-13
-5.77412e-15
6.24479e-14
2.7731e-15
-7.08891e-17
6.71422e-14
-4.14162e-17
5.32748e-14
1.04654e-15
-3.6666e-16
6.5622e-15
8.23227e-15
-6.85094e-15
0
-1.32075e-14
-4.33182e-15
2.27788e-14
1.04343e-14
1.94758e-14
5.94114e-15
-3.61971e-15
1.82858e-14
-1.70215e-14
-3.98837e-15
0
-2.03469e-14
2.31702e-14
1.01005e-16
-7.04066e-14
9.05149e-15
-4.56738e-15
2.6536e-14
2.37566e-14
-2.99367e-15
0
-3.52987e-14
-4.7774e-14
4.187e-14
2.04257e-17
-4.24791e-14
1.92993e-14
1.80649e-15
3.26142e-14
0
-4.45493e-14
2.21497e-14
-1.98187e-14
-3.91427e-14
1.71412e-14
3.2528e-14
-3.942e-14
-5.43034e-14
-4.03977e-14
-2.19396e-16
8.7934e-17
4.63137e-14
2.52685e-14
0
-5.36448e-14
1.74391e-14
-1.89701e-14
1.78848e-14
-4.16871e-14
2.03162e-15
7.63119e-14
-5.82274e-14
1.08229e-16
-6.66662e-14
1.77457e-17
-5.5242e-14
2.6463e-14
5.39851e-16
4.68335e-16
-9.11317e-14
4.94597e-17
-7.61735e-14
1.36838e-13
7.56074e-17
1.4411e-14
-4.16224e-14
1.22266e-13
3.39357e-14
-1.20558e-14
5.83118e-15
-1.38413e-16
7.63532e-14
-1.26038e-14
1.8348e-14
1.30647e-14
4.25329e-14
4.53675e-14
3.2969e-15
7.69421e-16
1.17428e-13
9.63241e-14
8.57316e-14
1.14617e-14
-1.03867e-13
3.94743e-14
2.81551e-14
-8.32057e-15
-2.65339e-14
-6.2216e-14
2.53054e-13
1.24041e-16
-8.80104e-14
-6.52827e-14
-3.65843e-14
-3.21069e-14
6.64398e-14
4.87647e-14
3.75908e-15
-7.83762e-14
-2.80574e-14
-4.67505e-15
0
0
3.18198e-14
1.39124e-15
6.5938e-14
3.77056e-15
-1.42722e-15
3.35427e-15
-1.0305e-13
3.34279e-14
1.22978e-16
-3.4169e-14
3.37464e-14
-6.49172e-14
-3.33949e-14
7.90172e-14
1.12317e-14
-2.23213e-14
9.67841e-14
-2.40542e-15
-9.67159e-14
9.39574e-15
0
3.46829e-15
7.96619e-15
5.0379e-14
7.15926e-16
-2.8971e-14
3.4128e-14
3.4699e-14
-3.41066e-14
-3.406e-14
-6.7314e-14
-6.03441e-16
1.99061e-14
2.68691e-14
1.08061e-14
-8.66838e-14
1.8087e-14
1.07318e-13
-1.00727e-13
-3.40087e-14
6.48419e-14
-5.15572e-14
-6.81146e-14
6.54214e-14
1.00645e-13
7.37372e-16
-3.40697e-14
3.34862e-14
1.17762e-16
-3.38227e-14
2.92617e-14
1.41598e-14
2.50303e-17
0
1.35203e-14
3.08573e-14
3.51217e-14
0
-2.05468e-14
-5.20463e-14
-6.54075e-14
-1.20247e-14
5.01534e-14
1.76579e-14
1.75028e-14
-1.09198e-14
2.62164e-14
2.7265e-14
-3.35141e-14
-1.04879e-16
9.37042e-14
-2.6616e-14
-3.57857e-14
3.69073e-14
-1.88026e-14
-8.38128e-14
4.4621e-14
1.13485e-13
-3.46171e-14
0
3.31096e-14
-3.37635e-14
-4.52506e-14
-4.39958e-14
-5.90228e-14
6.7708e-14
9.12161e-14
9.05159e-15
-2.44582e-14
1.59789e-14
7.61558e-15
7.76036e-14
2.98603e-14
3.25391e-14
1.9845e-15
-5.46954e-14
-1.40966e-13
4.74116e-14
7.02666e-14
-3.38646e-14
1.72262e-14
7.95069e-14
-9.79328e-14
-3.60007e-14
1.40682e-13
-2.37463e-14
-9.81246e-14
-2.22983e-14
-8.62626e-14
-1.28077e-15
1.04532e-13
2.33556e-14
5.16116e-15
-3.50126e-14
3.59521e-14
2.53289e-14
-3.64945e-14
-4.05581e-14
1.92369e-14
7.44484e-14
-1.22565e-13
-7.55584e-14
1.16399e-13
-2.99033e-14
9.68239e-14
6.20524e-14
-8.1883e-14
2.37129e-14
2.68785e-15
-1.15985e-13
3.10763e-14
4.09552e-14
3.11273e-15
2.96396e-15
-3.7273e-14
-1.34628e-14
0
0
-9.44715e-14
9.69808e-14
1.95214e-13
-1.53662e-13
-1.22104e-13
6.41668e-14
1.33657e-14
4.87606e-14
1.09131e-13
3.66303e-15
-2.27626e-14
0
-2.50836e-14
1.1156e-14
1.05791e-14
-3.46553e-15
2.94185e-14
-3.15091e-14
-3.0239e-14
9.41719e-14
5.88335e-14
-8.19065e-14
-2.30129e-14
1.94447e-14
2.4695e-14
-6.58454e-14
2.09246e-15
-7.27506e-14
-3.25695e-15
3.10678e-14
-2.31829e-15
1.01563e-13
-1.27769e-14
-1.2873e-13
-2.33676e-14
-4.93019e-15
-3.29385e-14
4.05027e-14
-1.12734e-13
-1.08994e-13
7.06875e-14
7.51284e-14
9.61741e-14
-8.20478e-14
1.71151e-17
-1.94519e-15
-8.79738e-14
0
-2.83035e-14
-1.13936e-16
-5.12544e-14
2.83633e-14
3.07052e-14
1.1134e-15
-8.04988e-15
5.10958e-14
-3.47935e-14
-2.28964e-14
3.16337e-14
-4.82565e-14
-3.45443e-14
-5.75567e-14
-4.04184e-15
1.02093e-13
-5.5811e-15
4.86718e-14
-4.15886e-15
0
-1.87729e-14
1.78495e-14
-1.52769e-15
-9.64885e-15
2.97549e-16
-2.96209e-16
-2.91527e-16
4.29971e-14
0
-3.4811e-14
6.37982e-28
7.69253e-29
4.81971e-28
5.58872e-28
-3.02242e-14
0
2.89145e-14
-2.26247e-28
-2.78548e-14
2.74024e-14
2.9718e-28
-2.66245e-14
-1.82365e-28
2.59947e-14
2.57362e-14
-1.19657e-28
-3.97981e-29
1.8367e-14
-1.84266e-14
-5.34466e-14
0
1.45051e-14
-4.49724e-15
-4.9411e-14
-6.62181e-14
2.98785e-14
-3.45461e-14
-1.70069e-14
-3.35113e-14
-3.30455e-14
-1.63092e-14
-3.22277e-14
-3.18677e-14
-2.61738e-14
-1.55978e-14
-1.5426e-14
-5.08023e-15
1.60546e-13
1.66213e-14
-8.62705e-14
1.31976e-27
4.87201e-14
0
1.73141e-14
-6.15223e-14
1.47716e-27
5.89114e-14
-1.67633e-14
-1.89152e-28
-1.14788e-27
1.62816e-14
-5.56441e-28
-5.32827e-14
4.59632e-28
3.6452e-14
-1.55407e-14
-5.12376e-15
2.87606e-14
4.98693e-14
3.11277e-14
1.68817e-28
6.53535e-14
-1.57573e-14
-1.49632e-14
3.3109e-14
3.01655e-14
4.60614e-14
3.287e-14
-1.21116e-14
4.53904e-15
1.61565e-14
5.92282e-14
1.59396e-14
5.87616e-30
5.76097e-14
3.11175e-14
1.02714e-14
-1.58144e-14
-1.36716e-14
-3.37074e-14
0
3.25777e-14
4.74783e-14
-4.70805e-14
-3.07323e-14
3.0137e-14
1.60367e-14
3.17525e-28
1.60413e-14
0
-1.59573e-14
0
1.58136e-14
-2.65734e-14
1.97968e-28
1.06676e-28
5.37456e-30
3.60007e-14
1.25209e-14
-3.30973e-14
7.07817e-28
-1.84074e-28
1.46818e-14
1.49981e-14
-3.05579e-14
0
4.5047e-14
-8.05615e-28
-1.28154e-14
2.80598e-14
1.57058e-14
-2.72709e-14
1.56283e-14
2.66601e-14
2.64407e-14
-1.05828e-28
-9.50739e-29
1.07616e-14
1.1568e-14
1.22894e-14
0
1.34728e-14
0
1.43231e-14
0
0
0
1.52249e-14
0
0
1.54216e-14
0
0
0
1.52903e-14
1.5206e-14
5.03659e-15
-4.34985e-14
0
-1.15333e-14
0
-1.27801e-14
-1.32884e-14
0
0
0
-1.46292e-14
-1.4818e-14
-1.49597e-14
0
0
0
-1.5151e-14
0
-1.50756e-14
-1.50076e-14
-4.97626e-15
-9.58735e-14
-1.01937e-14
6.47346e-29
1.25756e-28
3.0597e-14
-4.30476e-14
-4.31905e-14
0
2.92821e-14
1.47043e-14
1.27759e-30
-4.28133e-14
-2.78685e-14
-1.48217e-14
2.72651e-14
-1.48901e-14
1.08173e-28
2.66418e-14
1.03468e-28
-2.92665e-29
3.03725e-14
-7.15746e-29
-3.03326e-14
0
3.00207e-14
2.97978e-14
-2.95415e-14
-2.92604e-14
2.89628e-14
-5.81565e-28
-1.97139e-28
9.18043e-29
9.9123e-29
7.7352e-28
-8.70877e-29
1.35593e-28
-2.68157e-14
-1.00593e-28
-2.83043e-28
-3.33298e-29
-8.99634e-14
-1.9934e-28
-7.31274e-29
2.10068e-28
2.94427e-14
-2.92812e-14
-2.90868e-14
0
2.8628e-14
2.83774e-14
-9.3379e-29
-2.78663e-14
-2.7618e-14
1.88111e-28
2.71665e-14
-5.9899e-30
5.95498e-30
2.67028e-14
-2.81845e-28
-3.28706e-29
-3.10552e-16
-9.26645e-15
-2.89665e-14
0
2.88736e-14
4.04792e-14
-4.08195e-14
-5.36834e-14
2.82887e-14
1.32793e-14
1.80163e-28
1.3745e-14
-2.78153e-14
-1.40285e-14
-2.82229e-14
1.4161e-14
-2.68127e-14
0
-1.83186e-28
0
2.81725e-14
9.22619e-15
-2.8317e-14
1.16673e-28
9.83772e-29
1.15707e-14
6.84105e-14
-2.80833e-14
-5.59099e-14
4.08979e-14
-2.7506e-28
4.10381e-14
2.73345e-14
1.38246e-14
-2.70339e-14
-3.98489e-14
2.67999e-14
2.67236e-14
9.16558e-29
-3.05446e-29
-9.42435e-29
9.31576e-15
1.37942e-28
0
-1.50901e-28
-1.1532e-14
1.19629e-14
2.46868e-14
0
-1.29571e-14
-2.86084e-28
-1.33878e-14
2.70821e-14
1.36572e-14
2.74795e-14
-1.3793e-14
0
1.91939e-28
5.58647e-28
2.81292e-30
-2.67755e-14
9.28125e-29
-1.83484e-29
1.08134e-28
2.73095e-14
-2.73592e-14
-2.73791e-14
0
2.73412e-14
2.72908e-14
-3.70729e-28
-2.71483e-14
-2.70652e-14
0
2.68981e-14
-4.28159e-30
-1.82075e-28
2.67187e-14
8.76001e-29
3.58354e-31
9.30602e-15
0
1.19805e-28
0
-4.8665e-29
-1.04347e-28
0
0
0
-1.81583e-28
-5.89989e-30
-9.09346e-29
0
0
0
-9.3261e-29
0
5.55306e-28
9.36044e-29
3.12213e-29
-4.89494e-14
1.54242e-14
3.35467e-29
-3.59545e-29
2.64832e-14
-3.8637e-14
-3.90247e-14
0
2.68625e-14
1.39798e-14
3.95309e-30
-4.00487e-14
-2.68461e-14
-1.33621e-14
2.67791e-14
-1.34726e-14
-8.81843e-29
2.66982e-14
-1.90731e-28
-1.00236e-30
1.4375e-14
-1.11165e-14
-1.41531e-14
0
3.83137e-14
2.6365e-14
-3.90796e-14
-2.66248e-14
2.67011e-14
-5.464e-28
1.30764e-14
-5.94463e-30
-9.09825e-29
-1.33143e-14
-9.18826e-29
1.37728e-28
-2.66939e-14
1.34797e-14
1.34843e-14
4.50007e-15
-3.44219e-14
-2.49646e-14
-2.53481e-14
0
2.59676e-14
2.62005e-14
-2.63832e-14
-2.65189e-14
2.66124e-14
-3.1927e-28
1.83772e-28
3.92745e-29
9.07631e-29
2.74838e-28
9.16085e-29
2.75558e-28
-2.66627e-14
0
0
0
4.5846e-14
-3.9567e-15
-4.22115e-14
7.03287e-15
-1.22115e-14
2.81365e-14
5.20358e-14
-1.76565e-14
-3.15555e-14
0
1.19192e-15
5.30695e-14
5.5223e-14
4.95822e-14
-1.2551e-14
-6.40299e-14
-4.72865e-14
7.76011e-14
-2.14081e-14
3.87024e-14
-2.10455e-15
-4.77038e-14
-4.73207e-14
6.77922e-14
5.54223e-14
6.59841e-14
-6.75084e-15
-4.8947e-14
-2.42892e-15
8.02455e-15
-5.4143e-47
1.74155e-14
-1.49848e-14
-4.20266e-14
3.23895e-14
-5.13636e-14
-2.43397e-14
5.85257e-14
-3.8521e-15
8.52467e-14
1.95308e-14
2.49128e-14
0
-2.78535e-14
-2.20678e-14
9.8344e-15
-2.30853e-14
-1.08e-14
-1.64269e-14
-7.65322e-14
-3.85105e-14
2.26302e-14
6.36784e-14
-2.12521e-14
-2.89385e-14
1.76857e-14
2.57316e-14
1.44102e-14
3.79848e-14
-3.49702e-14
-5.10827e-47
-6.95562e-15
2.38587e-14
2.02864e-14
-6.62925e-14
-2.02529e-14
6.3662e-14
-4.53882e-14
1.09325e-14
1.04701e-13
1.80058e-14
-2.48867e-15
4.2798e-16
4.46665e-15
-3.36851e-14
7.75065e-15
-1.34256e-15
-7.82915e-14
-4.84165e-14
4.67449e-14
1.45794e-15
-1.23287e-14
-1.90226e-14
6.08797e-14
9.7964e-15
-7.24048e-14
4.90756e-14
4.97973e-14
-5.23603e-14
-1.19129e-13
2.18156e-15
4.36987e-14
5.31543e-14
-4.05876e-14
3.24448e-14
1.10284e-14
5.15646e-14
1.29658e-13
2.73343e-14
-5.34975e-14
-3.63835e-15
4.85415e-14
3.30309e-14
-5.36669e-14
-5.17405e-14
6.47451e-14
4.45439e-14
2.50737e-14
2.64109e-14
2.35502e-16
-3.69755e-14
-4.22595e-14
-1.86018e-14
-1.88124e-14
-5.85771e-14
-4.13629e-14
3.86353e-14
3.86816e-14
7.15876e-14
1.22509e-14
1.97396e-14
1.97913e-14
-1.46488e-14
5.3706e-16
-4.67725e-14
-1.11775e-14
4.1674e-14
-4.05064e-17
-4.46027e-17
-3.37993e-15
-4.44693e-47
2.33198e-15
3.77937e-15
1.86851e-14
5.505e-15
7.84481e-16
6.7471e-15
-2.25081e-14
-1.69958e-14
3.70569e-14
-4.33579e-47
0
-1.1796e-14
0
-5.12384e-14
1.63006e-14
7.11266e-14
5.99294e-14
-2.76351e-14
-8.46707e-14
-8.69785e-16
5.0131e-14
7.31692e-15
1.32462e-15
-3.92876e-14
-7.12963e-14
7.83838e-14
7.83347e-15
2.85155e-14
2.46492e-14
-1.60004e-14
-4.86513e-14
1.38856e-14
1.61923e-14
2.16526e-14
-5.49785e-14
1.59633e-15
5.13381e-14
-9.62287e-15
-9.62668e-15
3.54551e-18
5.83744e-15
2.48466e-14
-7.49753e-15
-5.15573e-14
0
-1.92865e-14
2.11319e-14
4.43165e-14
-2.79607e-14
-4.29602e-14
2.76679e-14
4.57293e-14
-2.70308e-14
-2.50909e-14
-9.68867e-15
0
-1.10848e-14
1.12978e-14
-8.92929e-17
4.57262e-14
1.85151e-14
2.39492e-15
2.31126e-14
6.44578e-15
-2.76827e-14
4.55034e-16
-1.27578e-14
2.11482e-14
-6.27561e-15
)
;

boundaryField
{
    left
    {
        type            symmetryPlane;
    }
    right
    {
        type            calculated;
        value           nonuniform List<scalar> 
30
(
1.40306e-18
-1.40233e-18
2.33853e-21
5.65835e-19
-1.68627e-18
1.17903e-18
7.17716e-19
2.49506e-18
-4.38876e-19
-2.05306e-18
-1.05658e-19
6.85902e-33
-1.48682e-18
-1.53547e-18
3.15601e-18
1.18807e-32
-9.98081e-33
1.71401e-18
-1.7703e-18
1.20449e-33
-1.31063e-32
-1.36546e-32
0
1.08169e-33
3.55127e-32
1.96779e-32
2.33334e-32
-1.12692e-33
9.45003e-18
0
)
;
    }
    down
    {
        type            symmetryPlane;
    }
    up
    {
        type            calculated;
        value           nonuniform List<scalar> 
30
(
4.57262e-14
1.85151e-14
2.39492e-15
2.31126e-14
6.44578e-15
-2.76827e-14
4.55034e-16
-1.27578e-14
2.11482e-14
-6.27561e-15
-3.44219e-14
-2.49646e-14
-2.53481e-14
0
2.59676e-14
2.62005e-14
-2.63832e-14
-2.65189e-14
2.66124e-14
-3.1927e-28
1.83772e-28
3.92745e-29
9.07631e-29
2.74838e-28
9.16085e-29
2.75558e-28
-2.66627e-14
0
0
0
)
;
    }
    hole
    {
        type            calculated;
        value           nonuniform List<scalar> 
20
(
-6.89878e-14
-8.13555e-14
0
-6.26817e-14
-3.66524e-14
-1.29744e-13
1.61696e-13
2.91239e-13
1.75533e-13
1.90303e-13
2.644e-15
7.16802e-15
6.80516e-15
-9.65886e-15
-5.14773e-15
4.48147e-14
2.72914e-14
5.2486e-14
-2.21587e-14
-8.03334e-15
)
;
    }
    frontAndBack
    {
        type            empty;
    }
}


// ************************************************************************* //
