/*--------------------------------*- C++ -*----------------------------------*\
  =========                 |
  \\      /  F ield         | OpenFOAM: The Open Source CFD Toolbox
   \\    /   O peration     | Website:  https://openfoam.org
    \\  /    A nd           | Version:  9
     \\/     M anipulation  |
\*---------------------------------------------------------------------------*/
FoamFile
{
    format      ascii;
    class       volSymmTensorField;
    location    "120";
    object      sigma;
}
// * * * * * * * * * * * * * * * * * * * * * * * * * * * * * * * * * * * * * //

dimensions      [1 -1 -2 0 0 0 0];

internalField   nonuniform List<symmTensor> 
1000
(
(7760.38 -5589.98 -7.19698e-14 4576.8 6.05457e-14 2847.04)
(10956 -4256.41 -1.1354e-13 1142.87 8.15285e-14 2792.04)
(12581.2 -3363.13 1.41158e-13 -718.277 -2.36322e-14 2737.59)
(13410.6 -2728.76 2.26784e-14 -1737.33 -1.92126e-14 2693.84)
(13803.1 -2262.02 -1.31775e-13 -2284.65 -1.8085e-14 2658.11)
(13946.1 -1908.75 -1.02572e-15 -2556.38 7.07878e-15 2628.4)
(13943.4 -1635.05 -1.53782e-13 -2663.17 -8.51179e-14 2603.12)
(13854.8 -1418.6 9.22611e-14 -2671.65 5.86582e-14 2580.74)
(13725.5 -1240.39 -9.27349e-14 -2625.32 -3.05127e-14 2561.58)
(13554.6 -1012.7 0 -2546.38 0 2540.36)
(10761 -6882.8 -1.17664e-13 5154.5 1.80677e-14 3672.81)
(13194.2 -4614.86 0 1843.03 0 3470.12)
(14322.7 -3208.08 1.32854e-13 22.897 6.68187e-14 3310.53)
(14799.4 -2293.38 -2.28922e-13 -1008.58 -1.22552e-13 3182.49)
(14931.9 -1676.92 -9.89284e-14 -1593.16 -5.58861e-14 3078.18)
(14877.7 -1249.23 8.51097e-14 -1912.85 5.50696e-14 2991.89)
(14722 -944.75 7.78338e-14 -2071.06 4.44644e-14 2919.46)
(14514.1 -721.873 1.62737e-13 -2130.4 1.00898e-13 2857.77)
(14290.8 -550.021 0 -2128.51 0 2806.67)
(14045.5 -356.942 0 -2067.94 0 2764.06)
(14080.5 -7847.48 0 5278.52 0 4467.46)
(15490 -4808.28 0 2374.67 0 4122.63)
(15980.3 -2982.17 1.29096e-13 754.489 6.69512e-14 3861.88)
(16029.1 -1842.55 -2.53452e-14 -200.514 1.19787e-14 3652.75)
(15864 -1109.32 -1.89371e-16 -773.269 1.06281e-16 3482.48)
(15596.5 -626.713 -8.20262e-14 -1115.29 -5.30178e-14 3341.82)
(15284.4 -303.189 7.17925e-14 -1313.47 4.36402e-14 3224.06)
(14959.6 -82.5918 -6.84232e-14 -1420.8 -3.9678e-14 3124.33)
(14646 72.634 1.56588e-14 -1469 -4.13182e-15 3040.84)
(14334.8 230.127 -1.1064e-14 -1455.43 -1.51141e-14 2972.16)
(17574.1 -8373.03 -7.25372e-14 5010.83 6.89526e-15 5211.9)
(17766.2 -4803.28 6.10591e-14 2746.45 -1.5721e-14 4733.7)
(17515.8 -2695.05 -6.26502e-14 1456.05 -3.19198e-14 4378.13)
(17085.4 -1409.76 -2.37544e-14 651.02 7.37319e-15 4093.01)
(16599.3 -605.828 8.15995e-14 131.427 5.71061e-14 3860.93)
(16110.7 -94.935 -8.27954e-14 -210.63 -4.73821e-14 3669.25)
(15642.8 232.37 -7.34367e-14 -437.988 -4.25106e-14 3508.81)
(15205.7 442.283 -1.64695e-13 -589.798 -9.54651e-14 3372.91)
(14807.6 578.241 -4.34903e-14 -689.89 -1.23476e-14 3257.94)
(14433.7 703.734 4.55954e-14 -732.233 1.76438e-14 3161.87)
(21068.6 -8383.05 -4.41707e-14 4446.58 5.85344e-16 5888.12)
(19937.6 -4579.39 -1.59956e-15 2978.79 1.74589e-16 5288.39)
(18894.9 -2357.1 -1.91402e-13 2106.97 -8.57473e-14 4846.59)
(17963.8 -1022.17 1.11598e-14 1503.4 -1.6599e-15 4492.43)
(17150.9 -202.526 -1.28268e-14 1067.17 1.70891e-15 4204.17)
(16443.6 305.791 7.52102e-14 742.642 4.34703e-14 3966.06)
(15826.3 620.575 1.11099e-15 495.982 -1.12895e-15 3766.68)
(15284.8 812.761 5.96618e-14 304.816 3.71541e-14 3597.6)
(14810.6 928.538 -5.7814e-14 154.879 -1.77509e-15 3453.57)
(14382.5 1024.93 -4.41389e-14 54.4383 -2.40655e-14 3331.59)
(24375.1 -7843.91 -1.38914e-13 3703.31 1.09613e-14 6479.64)
(21916 -4131.93 -1.41629e-15 3100.32 -7.69319e-17 5772.99)
(20087.8 -1979.02 8.61331e-16 2686.89 2.43021e-17 5255.71)
(18668.4 -698.367 9.93638e-15 2310.06 2.58042e-16 4841.19)
(17542.5 78.2424 -8.75428e-14 1974.04 -4.24164e-14 4503.81)
(16630 551.717 2.27978e-16 1678.69 1.05396e-16 4225.07)
(15875.6 837.712 6.75128e-14 1420.98 3.45228e-14 3991.53)
(15241.1 1005.78 1.54068e-13 1196.42 7.51268e-14 3793.27)
(14701.4 1100.89 2.72779e-14 1000.96 1.40515e-14 3623.61)
(14229 1171.83 -5.60623e-14 844.392 -2.16569e-14 3478.48)
(27302.4 -6769.01 1.70399e-13 2907.78 -1.47409e-14 6971.57)
(23616.1 -3473.62 3.82014e-14 3143.11 9.73346e-15 6175.2)
(21069.9 -1571.71 6.089e-14 3176.23 2.04024e-14 5595.26)
(19209.1 -447.336 -9.09262e-15 3024.05 -2.15185e-15 5130.73)
(17803.5 229.003 7.45171e-14 2791.15 3.12482e-14 4752.61)
(16710.3 636.527 -6.96197e-14 2530.18 -2.78734e-14 4440.1)
(15837.5 878.34 -1.50587e-15 2267.56 8.87339e-15 4178.1)
(15124.5 1016.46 -5.80363e-14 2015.95 -2.53774e-14 3955.49)
(14531.3 1090.78 7.14445e-15 1781.18 -6.80106e-15 3764.42)
(14024.7 1140.51 -2.74274e-14 1574.2 -1.8437e-14 3599.75)
(29670.1 -5219.06 2.98124e-13 2181.63 -2.33121e-14 7350.4)
(24961.1 -2635.53 -1.50592e-13 3137.74 -2.92699e-14 6484.34)
(21821.9 -1147.51 8.17081e-16 3557.57 4.15831e-16 5856.8)
(19598.3 -270.328 1.30249e-14 3602.86 6.99478e-15 5354.11)
(17964.3 254.769 1.56694e-13 3462.86 4.63163e-14 4944.73)
(16725 568.711 -2.75153e-15 3235.09 -4.61438e-15 4606.18)
(15758.1 752.808 1.64118e-17 2971.28 -2.16529e-16 4322.16)
(14984 856.042 -5.41484e-14 2698.95 -2.23176e-14 4080.68)
(14350.4 909.792 -2.50381e-15 2432.59 3.60176e-15 3873)
(13819.1 942.78 2.3079e-15 2184.15 6.4652e-15 3693.07)
(31318.2 -3298.13 1.7551e-13 1627.9 -2.09645e-14 7602.95)
(25887.6 -1670.98 -1.60591e-13 3111.54 -2.8502e-14 6692.1)
(22328.6 -728.675 1.1932e-14 3820.24 1.26093e-14 6034.35)
(19847.2 -172.041 1.19375e-14 4014.52 1.33176e-14 5506.54)
(18051.6 160.891 -4.79372e-15 3944.89 -7.08379e-15 5076.11)
(16710 359.537 6.71685e-14 3742.65 8.37693e-15 4719.84)
(15678 475.808 -1.88452e-16 3478.69 5.90475e-15 4420.77)
(14862.6 541.015 1.08522e-13 3191.57 2.27551e-14 4166.35)
(14202.6 575.205 2.45398e-14 2902.14 5.21833e-15 3947.24)
(13656.3 595.974 1.88624e-14 2623.24 -1.20249e-14 3756.81)
(32164.2 -1148.11 1.89445e-13 1334.94 -2.93164e-14 7730.57)
(26376.4 -684.898 -5.77412e-15 3110.94 -2.10599e-14 6804.77)
(22561.9 -388.111 6.24479e-14 3961.47 1.65356e-14 6120.79)
(19925.5 -204.072 2.7731e-15 4224.7 1.00121e-14 5573.13)
(18036.9 -89.507 -7.08891e-17 4185.04 -3.34549e-16 5128.14)
(16638.9 -17.4525 6.71422e-14 3991.92 -2.95097e-15 4760.95)
(15572.8 28.1146 -4.14162e-17 3725.55 6.50173e-15 4453.46)
(14737.4 56.9608 5.32748e-14 3429.44 2.37621e-15 4192.34)
(14066.6 75.5096 1.04654e-15 3126.74 -8.15385e-15 3967.69)
(13517.4 89.1285 -3.6666e-16 2829.24 -5.09598e-15 3772.3)
(-481.038 431.034 6.5622e-15 -11966.1 -6.71054e-14 -2872.41)
(-496.915 162.889 8.23227e-15 -7829.86 5.22628e-15 -1921.56)
(-106.896 -43.0812 -6.85094e-15 -5243.13 -1.62596e-14 -1234.62)
(604.807 -166.648 0 -3567.61 0 -683.723)
(1427.91 -233.466 -1.32075e-14 -2450.98 -1.76645e-15 -236.095)
(2260.22 -266.29 -4.33182e-15 -1682.48 -1.03675e-14 133.326)
(3054.91 -279.277 2.27788e-14 -1135.78 5.4833e-16 442.876)
(3792.77 -280.808 1.04343e-14 -733.303 -7.17801e-15 706.03)
(4468.45 -276.058 1.94758e-14 -426.205 3.21449e-15 932.825)
(5083.12 -269.812 5.94114e-15 -183.347 8.92374e-15 1130.72)
(-572.571 1055.74 -3.61971e-15 -11542.2 -6.18497e-14 -2795.71)
(-335.926 -186.367 1.82858e-14 -7553.25 3.19654e-14 -1820.58)
(175.658 -843.931 -1.70215e-14 -5183.51 -2.07016e-14 -1155.66)
(941.372 -1179.46 -3.98837e-15 -3642.82 -3.76769e-15 -623.412)
(1779.55 -1336.15 0 -2601.38 0 -189.652)
(2607.39 -1391.4 -2.03469e-14 -1873.32 -1.18855e-14 169.401)
(3387.8 -1389.32 2.31702e-14 -1347 1.63303e-15 470.954)
(4106.32 -1355.61 1.01005e-16 -952.812 1.9618e-18 727.733)
(4759.34 -1305.54 -7.04066e-14 -646.099 3.85201e-16 949.21)
(5346.04 -1255.69 9.05149e-15 -397.5 4.56834e-15 1141.97)
(-656.801 1526.08 -4.56738e-15 -10354.1 -3.64827e-14 -2540.97)
(28.6951 -449.289 2.6536e-14 -7021.54 3.79486e-14 -1613.73)
(767.476 -1471.55 2.37566e-14 -5006.55 1.63042e-14 -978.248)
(1635.6 -1980.17 -2.99367e-15 -3675.41 -6.05448e-15 -470.724)
(2506.79 -2210.38 0 -2758.29 0 -58.0382)
(3329.03 -2284.83 -3.52987e-14 -2102.45 -1.46466e-14 283.057)
(4082.94 -2271.67 -4.7774e-14 -1616.28 -1.84427e-14 569.23)
(4764.07 -2210.19 4.187e-14 -1242.38 1.11063e-14 812.697)
(5374.16 -2123.67 2.04257e-17 -943.878 -1.84523e-19 1022.37)
(5912.34 -2038.83 -4.24791e-14 -696.4 -8.08597e-15 1203.68)
(-688.401 1719.24 1.92993e-14 -8644.41 4.24304e-14 -2153.73)
(605.837 -743.106 1.80649e-15 -6246.64 -1.77907e-14 -1301.72)
(1640.93 -2010.64 3.26142e-14 -4740.34 1.78823e-14 -715.249)
(2633.93 -2631.62 0 -3702.33 0 -246.554)
(3540.11 -2904.13 -4.45493e-14 -2957.83 -1.12691e-14 134.373)
(4348.43 -2983.53 2.21497e-14 -2402.96 9.99949e-15 448.953)
(5062.01 -2955.19 -1.98187e-14 -1973.95 -3.29115e-15 712.629)
(5689.3 -2867.85 -3.91427e-14 -1630.17 -1.679e-15 936.721)
(6239.03 -2750.28 1.71412e-14 -1345.46 6.11281e-15 1129.29)
(6709.65 -2638.76 3.2528e-14 -1102.41 1.10428e-14 1293.98)
(-585.406 1559.13 -3.942e-14 -6575.82 -3.83203e-15 -1652.59)
(1399.45 -1106.86 -5.43034e-14 -5276.97 1.38523e-14 -894.813)
(2766.24 -2470.41 -4.03977e-14 -4382.71 -2.13865e-14 -373.03)
(3890.84 -3126.21 -2.19396e-16 -3698.37 2.03673e-14 44.4147)
(4824.96 -3401.43 8.7934e-17 -3162.07 1.88351e-16 383.744)
(5606.36 -3467.3 4.63137e-14 -2729.68 1.47426e-14 663.848)
(6264.31 -3417.63 2.52685e-14 -2371.14 9.53595e-15 898.424)
(6821.81 -3305.59 0 -2065.85 0 1097.53)
(7295.3 -3162.53 -5.36448e-14 -1800.31 -7.03697e-15 1268.07)
(7681.83 -3033.34 1.74391e-14 -1565.54 6.4762e-15 1411.45)
(-247.678 1014.83 -1.89701e-14 -4312.43 -1.26641e-13 -1052.33)
(2419.63 -1551.42 1.78848e-14 -4174.75 -4.55612e-14 -405.027)
(4106.79 -2846.32 -4.16871e-14 -3936.69 -3.98727e-14 39.2541)
(5347.51 -3449.91 2.03162e-15 -3636.01 -1.08804e-14 394.961)
(6292.34 -3683.48 7.63119e-14 -3327.63 3.15987e-14 684.163)
(7029.72 -3715.44 -5.82274e-14 -3030.91 -1.88796e-14 922.803)
(7616 -3637.91 1.08229e-16 -2751.98 2.83797e-17 1122.47)
(8089.08 -3502.73 -6.66662e-14 -2491.86 -2.19894e-14 1291.67)
(8472.97 -3340.41 1.77457e-17 -2250.77 -5.89566e-19 1435.89)
(8762.97 -3203.19 -5.5242e-14 -2029.23 -2.11443e-14 1553.94)
(425.62 100.772 2.6463e-14 -2021.53 -4.86086e-14 -368.288)
(3676.28 -2068.91 5.39851e-16 -3006.5 -1.00395e-15 154.564)
(5622.95 -3133.08 4.68335e-16 -3409.31 -9.41781e-16 510.839)
(6939.22 -3597.88 -9.11317e-14 -3488.98 -5.63295e-14 796.209)
(7866 -3745.47 4.94597e-17 -3410.31 1.56754e-14 1028.24)
(8538.08 -3723.28 -7.61735e-14 -3253.06 -3.28287e-14 1219.62)
(9036.42 -3611.62 1.36838e-13 -3058.31 5.77146e-14 1379.56)
(9412.3 -3455.27 7.56074e-17 -2848.14 4.1904e-18 1514.81)
(9696.35 -3280.44 1.4411e-14 -2636.47 1.21407e-14 1629.2)
(9881.86 -3144.96 -4.16224e-14 -2434.12 -1.72569e-14 1718.71)
(1521.28 -1125.39 1.22266e-13 136.56 -3.19045e-14 382.58)
(5172.7 -2636.57 3.39357e-14 -1837.17 -4.87393e-14 769.737)
(7272.71 -3327.34 -1.20558e-14 -2810.43 1.83997e-14 1029.76)
(8600.55 -3577.14 5.83118e-15 -3235.55 -1.12305e-14 1238.08)
(9469.64 -3599.76 -1.38413e-16 -3370.7 7.12222e-16 1407.45)
(10051.4 -3505.72 7.63532e-14 -3347.33 2.81266e-14 1547.09)
(10445.9 -3354.58 -1.26038e-14 -3236.63 -4.45777e-15 1663.67)
(10714.4 -3179.06 1.8348e-14 -3079.05 9.10253e-16 1762)
(10892 -2998.35 1.30647e-14 -2900.97 -8.75527e-16 1844.08)
(10969.4 -2873.9 4.25329e-14 -2723.7 9.93314e-15 1902.86)
(3099.78 -2568.21 4.53675e-14 2021.49 8.13624e-14 1181.83)
(6901.36 -3219.81 3.2969e-15 -725.502 1.09495e-13 1425.2)
(9012.19 -3428.52 7.69421e-16 -2152.31 -9.22176e-16 1583.05)
(10269 -3405.97 1.17428e-13 -2861.1 4.22235e-14 1709.52)
(11032.4 -3274.86 9.63241e-14 -3178.86 4.82935e-14 1812.35)
(11496.3 -3096.43 8.57316e-14 -3275.44 4.20122e-14 1897.12)
(11772.3 -2902.28 1.14617e-14 -3244.54 4.48518e-15 1967.93)
(11927.1 -2708.98 -1.03867e-13 -3140.28 -5.02638e-14 2027.73)
(11998.1 -2526.99 3.94743e-14 -2998.75 3.20992e-14 2076.77)
(11971.4 -2421.95 2.81551e-14 -2850.62 1.35371e-14 2104.79)
(5185.54 -4103.5 -8.32057e-15 3524.46 8.4249e-15 2010)
(8841.19 -3775.59 -2.65339e-14 279.747 2.40799e-14 2104.83)
(10796.6 -3438.88 -6.2216e-14 -1449.42 -3.4182e-14 2157.03)
(11888.3 -3111.9 2.53054e-13 -2360.09 8.55526e-14 2198.81)
(12492.9 -2812.32 1.24041e-16 -2817.63 -2.02732e-16 2232.75)
(12810.5 -2544.59 -8.80104e-14 -3014 -4.65182e-14 2260.74)
(12954.6 -2307.91 -6.52827e-14 -3055.95 -3.54881e-14 2284.3)
(12993.1 -2099.2 -3.65843e-14 -3004.97 -1.83283e-14 2304.95)
(12967.1 -1915.52 -3.21069e-14 -2901.66 3.55457e-15 2322.8)
(12875.1 -1824.79 6.64398e-14 -2790.12 6.71522e-15 2327.31)
(5624.88 -251.042 4.87647e-14 10.6498 3.1021e-15 1300.51)
(6117.75 -222.777 3.75908e-15 192.207 5.65034e-15 1456.14)
(6561.23 -199.887 -7.83762e-14 355.396 2.44703e-15 1596.14)
(6963.09 -179.49 -2.80574e-14 507.267 -1.24921e-16 1723.93)
(7328.26 -161.081 -4.67505e-15 653.371 -8.09626e-15 1841.92)
(7660.86 -144.362 0 798.172 0 1952.08)
(7964.35 -129.1 0 945.278 0 2056.07)
(8241.7 -115.071 3.18198e-14 1097.71 2.51301e-16 2155.25)
(8495.39 -102.053 1.39124e-15 1258.12 2.30546e-15 2250.81)
(8727.45 -89.8195 6.5938e-14 1429 6.90123e-16 2343.8)
(8939.48 -78.1398 3.77056e-15 1612.79 5.797e-15 2435.14)
(9132.63 -66.7773 -1.42722e-15 1812.04 -1.69054e-15 2525.69)
(9307.65 -55.4835 3.35427e-15 2029.49 4.18958e-15 2616.26)
(9464.79 -43.9904 -1.0305e-13 2268.19 -1.79932e-15 2707.61)
(9603.83 -32.0032 3.34279e-14 2531.58 2.96445e-17 2800.48)
(9723.99 -19.2224 1.22978e-16 2823.55 2.77139e-18 2895.59)
(9823.94 -5.54224 -3.4169e-14 3148.33 -8.75083e-16 2993.6)
(9901.95 8.04424 3.37464e-14 3509.67 9.69245e-16 3094.99)
(9956.93 16.6011 -6.49172e-14 3907.72 -7.19279e-15 3199.53)
(10016.1 6.64568 -3.33949e-14 4337.86 2.54803e-15 3312.46)
(5846.83 -1163.23 7.90172e-14 -185.365 3.83082e-15 1306.49)
(6302.88 -1039.26 1.12317e-14 24.934 6.40588e-15 1460.26)
(6711.6 -937.902 -2.23213e-14 208.909 2.68471e-15 1597.04)
(7086.13 -847.784 9.67841e-14 378.196 7.45219e-15 1722.54)
(7429.1 -767.444 -2.40542e-15 538.915 -2.86063e-15 1838.77)
(7743.38 -695.709 -9.67159e-14 695.965 -4.58522e-15 1947.54)
(8031.62 -631.47 9.39574e-15 853.275 5.58828e-15 2050.36)
(8296.19 -573.647 0 1014.12 0 2148.53)
(8539.1 -521.203 3.46829e-15 1181.37 2.47102e-15 2243.19)
(8762.02 -473.137 7.96619e-15 1357.68 4.67305e-15 2335.32)
(8966.3 -428.48 5.0379e-14 1545.63 1.1667e-14 2425.83)
(9152.87 -386.28 7.15926e-16 1747.86 4.76686e-17 2515.55)
(9322.35 -345.583 -2.8971e-14 1967.17 1.45831e-15 2605.27)
(9474.95 -305.413 3.4128e-14 2206.62 1.76877e-15 2695.75)
(9610.52 -264.766 3.4699e-14 2469.64 2.04503e-15 2787.73)
(9728.53 -222.638 -3.41066e-14 2760.06 -2.27493e-15 2881.98)
(9828.13 -178.129 -3.406e-14 3082.39 -2.58256e-15 2979.35)
(9907.93 -130.47 -6.7314e-14 3442.38 -5.80736e-15 3080.84)
(9964.5 -78.0824 -6.03441e-16 3849.57 -1.76782e-17 3187.86)
(10024 -15.0273 1.99061e-14 4336.33 1.46324e-14 3313.91)
(6342.07 -1891.52 2.68691e-14 -469.145 1.24771e-15 1355.29)
(6726.61 -1700 1.08061e-14 -223.665 3.97695e-15 1500.68)
(7063.24 -1541.93 -8.66838e-14 -12.5077 -2.87103e-15 1627.09)
(7378.23 -1399.79 1.8087e-14 181.292 -2.89404e-15 1744.5)
(7671.69 -1271.86 1.07318e-13 363.521 9.72039e-15 1854.28)
(7944.66 -1156.78 -1.00727e-13 539.103 -6.40865e-15 1957.79)
(8198.28 -1053.14 -3.40087e-14 712.146 -1.35122e-15 2056.25)
(8433.7 -959.446 6.48419e-14 886.158 2.67083e-15 2150.74)
(8651.97 -874.196 -5.15572e-14 1064.24 2.73707e-15 2242.2)
(8854 -795.882 -6.81146e-14 1249.25 -3.64415e-15 2331.52)
(9040.51 -723.01 6.54214e-14 1443.93 3.78334e-15 2419.48)
(9212 -654.096 1.00645e-13 1651.05 6.66448e-15 2506.86)
(9368.72 -587.64 7.37372e-16 1873.49 8.07684e-17 2594.35)
(9510.65 -522.107 -3.40697e-14 2114.35 -2.89144e-15 2682.69)
(9637.47 -455.91 3.34862e-14 2377.1 3.20726e-15 2772.59)
(9748.5 -387.384 1.17762e-16 2665.69 1.284e-17 2864.81)
(9842.53 -314.682 -3.38227e-14 2984.95 -4.19944e-15 2960.19)
(9917.37 -235.275 2.92617e-14 3341.22 5.37536e-15 3059.67)
(9968.76 -144.179 1.41598e-14 3743.6 1.24212e-14 3164.39)
(10023.5 -28.6581 2.50303e-17 4217.45 -1.93149e-17 3286.38)
(7044.14 -2454.27 0 -857.732 0 1427.63)
(7330.23 -2221.84 1.35203e-14 -569.582 4.90727e-15 1560.15)
(7568.74 -2028.74 3.08573e-14 -323.748 1.79167e-15 1671.92)
(7801.07 -1852.65 3.51217e-14 -97.9608 2.07642e-15 1777.64)
(8024.87 -1692 0 113.073 0 1877.99)
(8239.07 -1545.75 -2.05468e-14 313.995 2.40692e-15 1973.78)
(8443.02 -1412.67 -5.20463e-14 508.902 -9.26155e-15 2065.83)
(8636.34 -1291.32 -6.54075e-14 701.445 -3.91591e-15 2154.87)
(8818.83 -1180.09 -1.20247e-14 894.932 -3.7296e-15 2241.64)
(8990.35 -1077.27 5.01534e-14 1092.43 -1.25858e-15 2326.8)
(9150.79 -981.082 1.76579e-14 1296.88 -2.89523e-15 2411)
(9299.98 -889.712 1.75028e-14 1511.18 5.41688e-15 2494.88)
(9437.64 -801.266 -1.09198e-14 1738.31 3.33292e-15 2579.07)
(9563.32 -713.76 2.62164e-14 1981.44 1.9812e-15 2664.18)
(9676.34 -625.076 2.7265e-14 2244.05 3.02543e-15 2750.86)
(9775.65 -532.872 -3.35141e-14 2530.12 -4.98586e-15 2839.8)
(9859.72 -434.342 -1.04879e-16 2844.41 -1.77855e-17 2931.72)
(9926.17 -325.553 9.37042e-14 3192.76 1.96275e-14 3027.45)
(9971.32 -199.469 -2.6616e-14 3582.41 -8.39116e-15 3127.78)
(10022.3 -39.5974 -3.57857e-14 4035.49 -2.03591e-14 3244.1)
(7905.22 -2830.87 3.69073e-14 -1304.5 -4.14281e-15 1523.25)
(8072.14 -2588 -1.88026e-14 -976.342 -6.48667e-15 1637.49)
(8195.07 -2384.18 -8.38128e-14 -694.672 -1.19676e-14 1730.86)
(8328.49 -2194.64 4.4621e-14 -434.854 7.58356e-15 1821.61)
(8468.05 -2018.32 1.13485e-13 -192.108 2.09749e-14 1909.83)
(8610.44 -1855 -3.46171e-14 37.5096 -2.68098e-15 1995.68)
(8753.14 -1704.14 0 257.738 0 2079.43)
(8894.13 -1564.8 3.31096e-14 472.134 2.65837e-15 2161.45)
(9031.83 -1435.66 -3.37635e-14 684.053 -1.19424e-14 2242.13)
(9164.93 -1315.13 -4.52506e-14 896.68 -7.04884e-15 2321.91)
(9292.33 -1201.44 -4.39958e-14 1113.07 2.60417e-16 2401.25)
(9413.07 -1092.65 -5.90228e-14 1336.23 -4.98649e-15 2480.61)
(9526.21 -986.636 6.7708e-14 1569.2 3.89499e-15 2560.48)
(9630.78 -881.102 9.12161e-14 1815.14 1.21648e-14 2641.37)
(9725.68 -773.483 9.05159e-15 2077.48 2.01427e-15 2723.8)
(9809.55 -660.839 -2.44582e-14 2360.01 -4.62741e-15 2808.36)
(9880.7 -539.571 1.59789e-14 2667.1 1.74585e-15 2895.65)
(9936.93 -404.719 7.61558e-15 3003.77 2.09046e-16 2986.32)
(9975.02 -247.809 7.76036e-14 3375.88 1.68359e-14 3080.98)
(10021.2 -49.2674 2.98603e-14 3804.44 3.17882e-14 3190.53)
(8869.86 -3002.67 3.25391e-14 -1757.65 2.96176e-15 1641.28)
(8905.59 -2782.37 1.9845e-15 -1403.82 4.06379e-16 1731.18)
(8905.53 -2593.66 -5.46954e-14 -1092.26 -1.1668e-14 1803.06)
(8931.48 -2412.72 -1.40966e-13 -802.279 -2.51621e-14 1875.97)
(8978.33 -2239.26 4.74116e-14 -529.622 9.12093e-15 1949.7)
(9040.73 -2074.38 7.02666e-14 -271.678 7.16478e-15 2023.63)
(9114.45 -1918.73 -3.38646e-14 -25.5769 -3.37326e-15 2097.43)
(9195.95 -1772.25 1.72262e-14 211.745 -2.0354e-15 2171.01)
(9282.29 -1634.31 7.95069e-14 443.41 1.89391e-14 2244.39)
(9370.99 -1503.8 -9.79328e-14 672.507 -1.12155e-14 2317.73)
(9459.94 -1379.21 -3.60007e-14 902.068 -4.72681e-15 2391.23)
(9547.34 -1258.72 1.40682e-13 1135.08 1.52091e-14 2465.17)
(9631.57 -1140.19 -2.37463e-14 1374.55 -1.18964e-14 2539.87)
(9711.11 -1021.14 -9.81246e-14 1623.52 -1.68313e-14 2615.68)
(9784.44 -898.728 -2.22983e-14 1885.23 -3.78847e-15 2693)
(9849.98 -769.556 -8.62626e-14 2163.12 -1.84707e-14 2772.25)
(9905.95 -629.441 -1.28077e-15 2461 -2.60152e-16 2853.91)
(9950.32 -472.659 1.04532e-13 2783.08 2.79848e-14 2938.48)
(9980.2 -289.577 2.33556e-14 3134.14 1.05458e-14 3026.39)
(10020.2 -57.8237 5.16116e-15 3533.89 -2.29768e-15 3127.87)
(9877.2 -2964.65 -3.50126e-14 -2163.04 -4.57242e-15 1780.19)
(9779.91 -2799.02 3.59521e-14 -1809.82 6.64302e-15 1839.25)
(9660.14 -2650.18 2.53289e-14 -1481.77 9.46959e-15 1887.32)
(9578.39 -2499.56 -3.64945e-14 -1171.61 -5.38991e-15 1940.03)
(9530.61 -2347.58 -4.05581e-14 -875.722 -1.52929e-14 1997.28)
(9510.03 -2197.06 1.92369e-14 -593.695 7.13782e-15 2057.62)
(9511.18 -2050.11 7.44484e-14 -324.23 1.84489e-14 2120.07)
(9529.34 -1907.92 -1.22565e-13 -65.2936 -2.7953e-14 2184.01)
(9560.41 -1770.89 -7.55584e-14 185.585 -1.79995e-14 2249.08)
(9600.89 -1638.65 1.16399e-13 431.096 2.61033e-14 2315.07)
(9647.74 -1510.26 -2.99033e-14 674.011 -1.00808e-14 2381.94)
(9698.36 -1384.25 9.68239e-14 917.123 1.54994e-14 2449.73)
(9750.48 -1258.66 6.20524e-14 1163.23 1.47035e-14 2518.55)
(9802.06 -1131.04 -8.1883e-14 1415.15 -1.47685e-14 2588.59)
(9851.23 -998.406 2.37129e-14 1675.75 3.51511e-15 2660.07)
(9896.17 -857.112 2.68785e-15 1948 6.41011e-16 2733.27)
(9935.1 -702.561 -1.15985e-13 2235.04 -3.0513e-14 2808.49)
(9966.12 -528.452 3.10763e-14 2540.23 1.00118e-14 2886.08)
(9986.66 -324.198 4.09552e-14 2867.27 1.21109e-14 2966.29)
(10019.1 -65.1011 3.11273e-15 3233.47 -5.48781e-16 3058.3)
(10866.1 -2727.1 2.96396e-15 -2469.64 9.0857e-16 1937.64)
(10644.4 -2642.87 -3.7273e-14 -2153.73 -8.5186e-15 1959.38)
(10418 -2554.7 -1.34628e-14 -1829.32 2.6194e-15 1982.01)
(10236.4 -2453.74 0 -1514.44 0 2012.76)
(10098.5 -2340.63 0 -1206.54 0 2051.98)
(9997.13 -2219.78 -9.44715e-14 -908.414 -2.02307e-14 2097.4)
(9926.35 -2094.86 9.69808e-14 -621.111 1.43088e-14 2147.36)
(9880.73 -1968.48 1.95214e-13 -344.279 3.44554e-14 2200.72)
(9855.42 -1842.24 -1.53662e-13 -76.5992 -2.24587e-14 2256.65)
(9846.12 -1716.79 -1.22104e-13 183.813 -2.3532e-14 2314.6)
(9849.09 -1591.96 6.41668e-14 439.169 1.07669e-14 2374.21)
(9861.05 -1466.86 1.33657e-14 691.818 -3.29065e-16 2435.28)
(9879.14 -1339.91 4.87606e-14 944.175 1.57539e-14 2497.69)
(9900.89 -1208.89 1.09131e-13 1198.64 2.79303e-14 2561.43)
(9924.09 -1070.87 3.66303e-15 1457.59 9.71791e-16 2626.54)
(9946.81 -922.12 -2.27626e-14 1723.37 -7.27521e-15 2693.12)
(9967.25 -757.813 0 1998.28 0 2761.28)
(9983.72 -571.234 -2.50836e-14 2284.7 -4.43332e-15 2831.17)
(9994.11 -351.068 1.1156e-14 2585.11 1.26106e-15 2902.9)
(10017.9 -70.9115 1.05791e-14 2913.3 4.78701e-16 2984.14)
(11783.8 -2308.76 -3.46553e-15 -2630.7 -1.20668e-15 2112.26)
(11456 -2321.78 2.94185e-14 -2392.1 1.35395e-14 2091.67)
(11142.6 -2309.49 -3.15091e-14 -2095.72 -1.35818e-14 2087.75)
(10875.1 -2274.17 -3.0239e-14 -1795.55 -1.2619e-14 2095.28)
(10656.9 -2215.54 9.41719e-14 -1491.13 3.08445e-14 2115.18)
(10481.6 -2138.96 5.88335e-14 -1188.99 2.28187e-14 2144.46)
(10343.4 -2049.28 -8.19065e-14 -893.088 -2.51829e-14 2180.84)
(10236.7 -1950.44 -2.30129e-14 -605.298 5.52261e-15 2222.63)
(10156.5 -1845.29 1.94447e-14 -325.963 2.21994e-15 2268.58)
(10098 -1735.6 2.4695e-14 -54.4143 -3.43184e-15 2317.76)
(10057.1 -1622.15 -6.58454e-14 210.634 -2.35028e-14 2369.48)
(10030 -1504.79 2.09246e-15 470.825 5.77639e-16 2423.27)
(10013.4 -1382.53 -7.27506e-14 727.942 -1.35e-14 2478.78)
(10004.5 -1253.54 -3.25695e-15 983.792 -9.33403e-16 2535.76)
(10000.8 -1115.17 3.10678e-14 1240.08 9.61529e-15 2594.05)
(10000.3 -963.791 -2.31829e-15 1498.35 -6.69642e-16 2653.53)
(10001.2 -794.565 1.01563e-13 1759.91 3.51134e-14 2714.11)
(10002.3 -600.557 -1.27769e-14 2025.87 -2.71508e-15 2775.74)
(10002.1 -369.942 -1.2873e-13 2297.19 -5.2972e-14 2838.31)
(10016.6 -75.1946 -2.33676e-14 2583.32 -2.97751e-14 2907.67)
(12612.7 -1724.79 -4.93019e-15 -2613.87 -3.64243e-15 2307.42)
(12204.2 -1839.49 -3.29385e-14 -2456.35 -1.80054e-14 2249.49)
(11812.2 -1919.75 4.05027e-14 -2216.45 1.34928e-14 2214.39)
(11467.5 -1966.19 -1.12734e-13 -1960.69 -2.69459e-14 2193.89)
(11176.1 -1978.16 -1.08994e-13 -1686.91 -2.89696e-14 2189.82)
(10932.7 -1960.91 7.06875e-14 -1402.89 1.06541e-14 2199.18)
(10731.9 -1920.05 7.51284e-14 -1115.46 8.39896e-15 2219.18)
(10568.4 -1860.66 9.61741e-14 -829.41 2.02639e-14 2247.46)
(10437 -1786.89 -8.20478e-14 -547.653 -2.3073e-14 2282.15)
(10332.6 -1701.78 1.71151e-17 -271.573 -8.09072e-16 2321.76)
(10250.6 -1607.23 -1.94519e-15 -1.4964 1.54811e-15 2365.17)
(10186.8 -1504.05 -8.79738e-14 262.949 -1.96689e-14 2411.49)
(10137.6 -1392.04 0 522.505 0 2460.03)
(10099.8 -1269.97 -2.83035e-14 778.046 -1.27871e-14 2510.28)
(10070.8 -1135.66 -1.13936e-16 1030.35 8.13672e-17 2561.79)
(10048.2 -985.833 -5.12544e-14 1279.95 -1.5917e-14 2614.2)
(10030.7 -815.87 2.83633e-14 1526.91 9.91731e-15 2667.14)
(10017.1 -618.909 3.07052e-14 1770.75 7.55946e-15 2720.28)
(10007.1 -382.75 1.1134e-15 2010.32 7.93199e-17 2773.26)
(10013.9 -78.4989 -8.04988e-15 2248.62 -3.56656e-15 2829.81)
(13188.5 -1221 5.10958e-14 -2550.12 1.88951e-14 2455.01)
(12738.6 -1394.27 -3.47935e-14 -2336.86 -2.04485e-14 2400.4)
(12290.2 -1548.96 -2.28964e-14 -2167.42 -7.52062e-15 2336.03)
(11909.9 -1652.27 3.16337e-14 -1955.55 1.74947e-14 2297.17)
(11582.1 -1714.03 -4.82565e-14 -1716.2 -3.76283e-14 2276.74)
(11300.8 -1741.16 -3.45443e-14 -1459.3 -2.39699e-14 2271.11)
(11061.3 -1739.53 -5.75567e-14 -1192.83 -2.07724e-14 2277.35)
(10859.3 -1714.31 -4.04184e-15 -922.779 5.89963e-15 2293.03)
(10690.2 -1669.8 1.02093e-13 -653.239 4.10612e-14 2316.21)
(10549.6 -1609.34 -5.5811e-15 -386.777 -1.09808e-15 2345.28)
(10433.6 -1535.23 4.86718e-14 -124.81 2.03129e-14 2378.94)
(10338 -1448.73 -4.15886e-15 131.991 -8.78297e-16 2416.15)
(10259.5 -1350.09 0 383.401 0 2456.05)
(10194.9 -1238.54 -1.87729e-14 629.337 -7.18156e-15 2497.9)
(10141.8 -1112.36 1.78495e-14 869.632 6.4083e-15 2541.09)
(10098 -968.721 -1.52769e-15 1103.78 -5.12894e-16 2585.03)
(10062.4 -803.518 -9.64885e-15 1330.72 -4.75048e-15 2629.19)
(10034.4 -610.454 2.97549e-16 1548.55 2.74954e-16 2672.99)
(10014.5 -377.994 -2.96209e-16 1754.07 1.1831e-16 2715.82)
(10012 -78.1384 -2.91527e-16 1943.74 -7.58498e-17 2759.02)
(13104.2 -862.553 4.29971e-14 -2329.33 2.01097e-14 2486.5)
(12797.2 -1056.4 0 -2227.07 0 2439.26)
(12412.4 -1238.03 -3.4811e-14 -2104.3 -1.16396e-14 2378.78)
(12065.8 -1373.85 6.37982e-28 -1926.97 2.26704e-28 2339.72)
(11756 -1466.85 7.69253e-29 -1715.22 7.96367e-29 2317.1)
(11481.8 -1523.41 4.81971e-28 -1480.95 2.36397e-28 2307.88)
(11241.1 -1549.31 5.58872e-28 -1233.02 1.95503e-28 2309.56)
(11031.6 -1549.43 -3.02242e-14 -978.147 -7.56789e-15 2320.02)
(10850.4 -1527.79 0 -721.202 0 2337.5)
(10694.6 -1487.6 2.89145e-14 -465.566 7.17285e-15 2360.54)
(10561.2 -1431.13 -2.26247e-28 -213.491 -3.91978e-29 2387.93)
(10447.2 -1359.77 -2.78548e-14 33.5481 -7.34996e-15 2418.64)
(10350 -1273.99 2.74024e-14 274.527 7.64161e-15 2451.82)
(10267.1 -1173.38 2.9718e-28 508.583 1.02695e-28 2486.7)
(10196.6 -1056.62 -2.66245e-14 734.741 -8.64129e-15 2522.62)
(10136.9 -921.412 -1.82365e-28 951.657 -6.49639e-29 2558.91)
(10087.4 -764.296 2.59947e-14 1157.33 1.02628e-14 2594.93)
(10047.9 -579.847 2.57362e-14 1348.74 1.1359e-14 2630)
(10019.9 -357.97 -1.19657e-28 1521.16 -7.28218e-29 2663.33)
(10010.2 -73.6971 -3.97981e-29 1667.65 -8.64562e-29 2694.9)
(13051 -516.141 1.8367e-14 -2023.09 -1.34654e-15 2544.9)
(12807.7 -719.065 -1.84266e-14 -1990.29 -1.55661e-14 2496.32)
(12480.6 -916.785 -5.34466e-14 -1925.98 -2.73673e-14 2435.69)
(12169.1 -1077.06 0 -1797.75 0 2393.39)
(11879.2 -1197.61 1.45051e-14 -1626.63 -3.66179e-15 2365.97)
(11614.4 -1282.08 -4.49724e-15 -1426.62 -1.67909e-14 2351.02)
(11375.5 -1335.01 -4.9411e-14 -1207.79 -2.11526e-14 2346.39)
(11162.1 -1360.61 -6.62181e-14 -977.648 -3.14738e-14 2350.26)
(10972.9 -1362.48 2.98785e-14 -741.86 8.09401e-15 2361.01)
(10806.2 -1343.53 -3.45461e-14 -504.624 -1.99972e-14 2377.28)
(10659.8 -1305.97 -1.70069e-14 -269.038 -9.25272e-15 2397.88)
(10531.8 -1251.24 -3.35113e-14 -37.4346 -1.70642e-14 2421.78)
(10420.1 -1180 -3.30455e-14 188.314 -1.56804e-14 2448.09)
(10322.8 -1092.16 -1.63092e-14 406.503 -7.18002e-15 2476)
(10238.6 -986.798 -3.22277e-14 615.323 -1.31106e-14 2504.75)
(10166.4 -862.184 -3.18677e-14 812.569 -1.19421e-14 2533.61)
(10105.9 -715.547 -2.61738e-14 995.333 -1.0799e-14 2561.83)
(10057.7 -542.44 -1.55978e-14 1159.59 -4.95791e-15 2588.61)
(10023.7 -334.263 -1.5426e-14 1299.53 -4.55718e-15 2613.05)
(10008.4 -68.6656 -5.08023e-15 1406.5 -4.2595e-15 2634.21)
(12925 -227.254 1.60546e-13 -1747.85 7.65001e-14 2579.34)
(12730.2 -425.214 1.66213e-14 -1758.06 1.48842e-14 2532.03)
(12456.2 -625.589 -8.62705e-14 -1735.09 -3.9933e-14 2474.11)
(12185.2 -798.037 1.31976e-27 -1648.53 5.40798e-28 2431.53)
(11923.6 -936.658 4.87201e-14 -1515.16 8.11038e-15 2401.95)
(11677.2 -1042.08 0 -1348.47 0 2383.54)
(11448.8 -1116.95 1.73141e-14 -1158.89 1.22593e-14 2374.6)
(11239.9 -1164.3 -6.15223e-14 -954.419 -1.82674e-14 2373.56)
(11050.4 -1187.02 1.47716e-27 -741.26 5.13926e-28 2379.03)
(10879.8 -1187.56 5.89114e-14 -524.216 1.73708e-14 2389.74)
(10727 -1167.88 -1.67633e-14 -307.046 -9.40792e-15 2404.6)
(10590.8 -1129.36 -1.89152e-28 -92.7742 -5.7289e-29 2422.61)
(10469.8 -1072.78 -1.14788e-27 116.023 -3.70704e-28 2442.88)
(10362.8 -998.25 1.62816e-14 316.932 7.45109e-15 2464.56)
(10269 -905.259 -5.56441e-28 507.431 -2.03005e-28 2486.88)
(10187.9 -792.588 -5.32827e-14 684.598 -2.09737e-14 2509.03)
(10119.5 -658.188 4.59632e-28 844.795 1.90397e-28 2530.23)
(10065 -498.611 3.6452e-14 983.262 1.90391e-14 2549.59)
(10026.6 -306.753 -1.55407e-14 1093.53 -5.1093e-15 2566.18)
(10006.9 -62.9287 -5.12376e-15 1165.59 -4.90118e-15 2578.26)
(12746 8.33949 2.87606e-14 -1495.78 2.83939e-14 2596.21)
(12591.9 -179.971 4.98693e-14 -1535.3 2.7965e-14 2551.52)
(12364.7 -374.764 3.11277e-14 -1541.13 2.80253e-14 2497.74)
(12133.3 -549.78 1.68817e-28 -1487.63 3.38971e-29 2456.68)
(11903.2 -697.501 6.53535e-14 -1387.27 3.7863e-14 2426.75)
(11680.2 -816.306 -1.57573e-14 -1251.61 1.93926e-15 2406.6)
(11468.3 -906.974 -1.49632e-14 -1090.44 1.86893e-15 2394.9)
(11270 -971.212 3.3109e-14 -911.76 2.29131e-14 2390.37)
(11086.4 -1010.98 3.01655e-14 -721.979 9.53044e-15 2391.79)
(10917.9 -1028.13 4.60614e-14 -526.273 1.9514e-14 2398.07)
(10764.3 -1024.26 3.287e-14 -328.862 1.8992e-14 2408.18)
(10625.1 -1000.59 -1.21116e-14 -133.287 -5.45858e-16 2421.19)
(10499.7 -957.887 4.53904e-15 57.3221 6.89632e-15 2436.24)
(10387.5 -896.444 1.61565e-14 239.987 7.67618e-15 2452.49)
(10288.1 -816.061 5.92282e-14 411.617 2.46649e-14 2469.16)
(10201.4 -716.011 1.59396e-14 568.732 6.64985e-15 2485.42)
(10128.1 -594.929 5.87616e-30 707.157 2.5967e-30 2500.45)
(10069.6 -450.328 5.76097e-14 821.646 2.43108e-14 2513.36)
(10028.4 -276.561 3.11175e-14 905.329 1.12261e-14 2523.18)
(10005.4 -56.662 1.02714e-14 947.222 1.09656e-14 2527.53)
(12529.4 196.306 -1.58144e-14 -1267.32 -1.70058e-14 2598.95)