/*--------------------------------*- C++ -*----------------------------------*\
  =========                 |
  \\      /  F ield         | OpenFOAM: The Open Source CFD Toolbox
   \\    /   O peration     | Website:  https://openfoam.org
    \\  /    A nd           | Version:  9
     \\/     M anipulation  |
\*---------------------------------------------------------------------------*/
FoamFile
{
    format      ascii;
    class       volVectorField;
    location    "23";
    object      ddt0(hU);
}
// * * * * * * * * * * * * * * * * * * * * * * * * * * * * * * * * * * * * * //

dimensions      [0 2 -2 0 0 0 0];

internalField   nonuniform List<vector> 
400
(
(-1.75708e-07 -3.87925e-08 0)
(-3.93977e-08 -4.02114e-08 0)
(2.03734e-08 1.68949e-08 0)
(-2.11241e-07 3.86079e-08 0)
(-3.84426e-07 5.27179e-10 0)
(-3.97407e-07 -4.19201e-08 0)
(-3.16256e-07 -4.50466e-08 0)
(-2.36027e-07 -6.13934e-09 0)
(-2.28244e-07 3.52917e-08 0)
(-2.52615e-07 4.86602e-08 0)
(-2.30858e-07 3.72229e-08 0)
(-7.32004e-08 -2.33712e-09 0)
(1.31665e-07 -3.39436e-08 0)
(3.14006e-07 -3.2176e-08 0)
(3.52191e-07 -1.69264e-08 0)
(2.0445e-07 -1.47296e-08 0)
(-5.45123e-08 -3.46007e-08 0)
(-2.09217e-07 -5.20186e-08 0)
(-2.24139e-07 -4.40561e-08 0)
(-3.74808e-07 -1.36778e-08 0)
(-1.68236e-07 -1.09546e-07 0)
(-4.19532e-08 -1.3158e-07 0)
(-9.85877e-09 -1.06736e-08 0)
(-2.30152e-07 6.37726e-08 0)
(-3.80017e-07 -2.52176e-09 0)
(-3.79617e-07 -1.08389e-07 0)
(-2.98348e-07 -1.21939e-07 0)
(-2.20864e-07 -2.90881e-08 0)
(-2.1549e-07 7.56265e-08 0)
(-2.45949e-07 1.1584e-07 0)
(-2.22696e-07 9.26454e-08 0)
(-8.62617e-08 -9.45002e-10 0)
(1.21039e-07 -9.19301e-08 0)
(2.89945e-07 -7.71951e-08 0)
(3.2463e-07 -3.47913e-08 0)
(1.95879e-07 -2.12347e-08 0)
(-1.76474e-08 -1.01684e-07 0)
(-1.84619e-07 -2.51612e-07 0)
(-2.5813e-07 -1.46223e-07 0)
(-3.8078e-07 2.32948e-08 0)
(-1.48089e-07 -1.71928e-07 0)
(-8.00933e-08 -2.10539e-07 0)
(-5.79727e-08 -3.60944e-08 0)
(-2.29304e-07 7.82217e-08 0)
(-3.46532e-07 -1.54649e-08 0)
(-3.43621e-07 -1.83158e-07 0)
(-2.74929e-07 -2.09269e-07 0)
(-2.03481e-07 -7.12937e-08 0)
(-1.95901e-07 8.90859e-08 0)
(-2.1351e-07 1.70272e-07 0)
(-1.76094e-07 1.30728e-07 0)
(-8.52768e-08 1.32612e-08 0)
(9.78629e-08 -1.13996e-07 0)
(2.41412e-07 -1.04886e-07 0)
(2.67958e-07 -3.66879e-08 0)
(1.58517e-07 -2.37608e-08 0)
(-4.36577e-08 -1.51185e-07 0)
(-1.33082e-07 -3.5364e-07 0)
(-1.55897e-07 -2.31621e-07 0)
(-3.08805e-07 1.17501e-08 0)
(-1.26259e-07 -2.28793e-07 0)
(-1.09102e-07 -2.68662e-07 0)
(-1.22682e-07 -4.0355e-08 0)
(-2.60114e-07 9.56817e-08 0)
(-3.27493e-07 -4.28093e-08 0)
(-3.06142e-07 -2.70532e-07 0)
(-2.35023e-07 -3.09046e-07 0)
(-1.69803e-07 -1.24719e-07 0)
(-1.54696e-07 8.71296e-08 0)
(-1.82887e-07 2.03007e-07 0)
(-1.30401e-07 1.69253e-07 0)
(-5.95537e-08 2.28787e-09 0)
(4.40526e-08 -1.17357e-07 0)
(1.56538e-07 -1.09852e-07 0)
(1.79891e-07 -1.49211e-08 0)
(1.18108e-07 2.56668e-09 0)
(1.99948e-08 -1.76511e-07 0)
(-1.12448e-07 -4.37676e-07 0)
(-2.11692e-07 -2.79902e-07 0)
(-2.91935e-07 3.35389e-08 0)
(-9.98847e-08 -2.69988e-07 0)
(-1.59196e-07 -3.15545e-07 0)
(-2.04164e-07 -7.14386e-08 0)
(-2.81691e-07 7.49525e-08 0)
(-2.96622e-07 -8.51392e-08 0)
(-2.63471e-07 -3.46214e-07 0)
(-1.94342e-07 -3.87994e-07 0)
(-1.3428e-07 -1.91782e-07 0)
(-1.16334e-07 5.61372e-08 0)
(-1.06384e-07 1.86314e-07 0)
(-1.19176e-07 1.99542e-07 0)
(-4.34924e-08 4.56738e-08 0)
(4.09792e-08 -9.61414e-08 0)
(8.83891e-08 -9.33961e-08 0)
(9.70476e-08 -4.30714e-09 0)
(4.78502e-08 1.90861e-08 0)
(-3.26662e-08 -1.63244e-07 0)
(-5.50763e-08 -4.77734e-07 0)
(-7.03406e-08 -3.1059e-07 0)
(-1.81967e-07 4.31493e-08 0)
(-7.53267e-08 -2.875e-07 0)
(-2.08997e-07 -3.33446e-07 0)
(-2.89258e-07 -8.73632e-08 0)
(-3.11104e-07 4.66623e-08 0)
(-2.74798e-07 -1.2666e-07 0)
(-2.21391e-07 -3.9596e-07 0)
(-1.52296e-07 -4.43847e-07 0)
(-8.86069e-08 -2.48629e-07 0)
(-7.55388e-08 -1.10806e-08 0)
(-4.70386e-08 1.76392e-07 0)
(3.02513e-09 1.4998e-07 0)
(-3.55169e-08 5.48961e-08 0)
(-3.86149e-08 -1.02351e-07 0)
(-4.29608e-08 -9.18426e-08 0)
(-3.12059e-08 1.62211e-08 0)
(7.36374e-09 4.25164e-08 0)
(1.6502e-08 -1.30119e-07 0)
(-4.01162e-08 -3.9834e-07 0)
(-1.37746e-07 -2.79878e-07 0)
(-1.47893e-07 3.7828e-08 0)
(-5.13343e-08 -2.83385e-07 0)
(-2.72144e-07 -3.19874e-07 0)
(-3.75581e-07 -9.61211e-08 0)
(-3.41672e-07 1.55502e-08 0)
(-2.58125e-07 -1.49864e-07 0)
(-1.91644e-07 -4.01016e-07 0)
(-1.20897e-07 -4.49623e-07 0)
(-6.44965e-08 -2.78861e-07 0)
(2.62292e-10 -4.98866e-08 0)
(-2.22084e-08 1.15142e-07 0)
(5.61891e-08 1.64459e-08 0)
(1.70687e-08 4.07654e-08 0)
(-1.02175e-07 -4.09544e-08 0)
(-1.0661e-07 -4.81273e-08 0)
(-9.53145e-08 4.95939e-08 0)
(-5.30237e-08 8.96044e-08 0)
(2.75677e-09 -8.20654e-08 0)
(-1.80703e-08 -3.78496e-07 0)
(-9.32433e-08 -2.298e-07 0)
(-9.73861e-08 7.0779e-08 0)
(-2.32014e-08 -2.51536e-07 0)
(-3.09711e-07 -2.73584e-07 0)
(-4.4425e-07 -9.93247e-08 0)
(-3.7429e-07 -1.50105e-08 0)
(-2.55721e-07 -1.48965e-07 0)
(-1.67271e-07 -3.54073e-07 0)
(-9.63498e-08 -4.03213e-07 0)
(-2.93752e-08 -2.7243e-07 0)
(1.13514e-08 -7.19491e-08 0)
(-2.77147e-09 3.31191e-08 0)
(4.29647e-07 2.12288e-07 0)
(2.05098e-07 3.20385e-08 0)
(-1.09394e-07 -3.83297e-08 0)
(-2.41631e-07 -1.78212e-08 0)
(-1.9982e-07 3.68508e-08 0)
(-1.06023e-07 7.22223e-08 0)
(-1.81272e-08 -4.48859e-08 0)
(-2.39299e-08 -2.79807e-07 0)
(-9.63555e-08 -1.69746e-07 0)
(-8.10833e-08 4.60985e-08 0)
(4.17862e-09 -1.67737e-07 0)
(-3.38231e-07 -1.84939e-07 0)
(-4.98212e-07 -7.85238e-08 0)
(-3.94746e-07 -3.09274e-08 0)
(-2.53046e-07 -1.17016e-07 0)
(-1.62692e-07 -2.42465e-07 0)
(-8.31625e-08 -2.73593e-07 0)
(-9.85326e-09 -1.84466e-07 0)
(5.93993e-08 -6.40408e-08 0)
(1.71097e-07 3.02478e-09 0)
(-2.35023e-07 2.082e-07 0)
(-1.14724e-07 2.70632e-08 0)
(-1.44973e-07 -3.8191e-08 0)
(-2.61248e-07 -2.38568e-08 0)
(-2.61916e-07 1.2025e-08 0)
(-1.43995e-07 3.51406e-08 0)
(-1.51207e-08 -3.41162e-08 0)
(-6.03068e-09 -1.61989e-07 0)
(-1.07327e-07 -7.63072e-08 0)
(-7.20176e-08 6.97988e-08 0)
(4.0014e-09 -5.31496e-08 0)
(-3.58185e-07 -6.84701e-08 0)
(-5.32649e-07 -3.83143e-08 0)
(-4.16808e-07 -2.86423e-08 0)
(-2.53042e-07 -5.83617e-08 0)
(-1.48075e-07 -8.63149e-08 0)
(-8.3571e-08 -8.00462e-08 0)
(-1.65839e-08 -3.62376e-08 0)
(7.39709e-08 -1.40907e-09 0)
(1.63737e-07 1.47174e-09 0)
(9.43001e-08 -4.57384e-08 0)
(-7.17785e-09 2.29157e-08 0)
(-1.30685e-07 1.50837e-10 0)
(-3.15593e-07 -3.33467e-08 0)
(-3.19797e-07 -1.17496e-08 0)
(-1.73284e-07 2.83833e-09 0)
(-6.43345e-09 -1.10924e-08 0)
(1.31e-09 -5.6448e-08 0)
(-1.19573e-07 5.88556e-09 0)
(-7.13965e-08 7.06586e-08 0)
(4.57048e-10 5.84441e-08 0)
(-3.57975e-07 5.01944e-08 0)
(-5.32027e-07 -4.99663e-09 0)
(-4.1779e-07 -2.29926e-08 0)
(-2.51832e-07 1.0507e-08 0)
(-1.44752e-07 7.28604e-08 0)
(-8.1389e-08 1.03342e-07 0)
(-1.65574e-08 8.332e-08 0)
(7.91473e-08 3.66733e-08 0)
(1.50667e-07 2.4e-08 0)
(7.44141e-08 -3.55366e-08 0)
(1.46565e-08 -5.57878e-08 0)
(-1.3916e-07 -7.48524e-08 0)
(-3.08345e-07 -4.47028e-08 0)
(-3.07056e-07 -5.12748e-08 0)
(-1.6236e-07 -5.13094e-08 0)
(3.30833e-09 1.35961e-08 0)
(-6.92706e-10 6.83464e-08 0)
(-1.27097e-07 7.07417e-08 0)
(-7.95396e-08 3.70767e-08 0)
(-7.6995e-09 1.69124e-07 0)
(-3.38549e-07 1.66539e-07 0)
(-4.96161e-07 3.67658e-08 0)
(-4.01677e-07 -1.82608e-08 0)
(-2.59947e-07 7.44858e-08 0)
(-1.68517e-07 2.24184e-07 0)
(-8.92297e-08 2.87954e-07 0)
(-1.38002e-08 2.18e-07 0)
(6.70417e-08 1.07101e-07 0)
(1.08968e-07 1.75502e-08 0)
(7.40073e-07 -1.15478e-07 0)
(-3.05922e-08 -7.88018e-08 0)
(-1.57271e-07 -3.41043e-08 0)
(-2.64949e-07 -4.48633e-08 0)
(-2.52032e-07 -7.49399e-08 0)
(-1.20174e-07 -1.00864e-07 0)
(-5.45869e-09 8.41069e-10 0)
(-6.27506e-09 1.50778e-07 0)
(-1.12776e-07 1.37897e-07 0)
(-8.85137e-08 2.76855e-08 0)
(-3.36187e-08 2.47002e-07 0)
(-3.07973e-07 2.51649e-07 0)
(-4.40941e-07 5.61508e-08 0)
(-3.84776e-07 -3.69018e-08 0)
(-2.67585e-07 1.09883e-07 0)
(-1.70325e-07 3.38743e-07 0)
(-9.59944e-08 4.17647e-07 0)
(-3.3383e-08 3.10896e-07 0)
(1.67621e-08 1.20516e-07 0)
(9.92502e-08 -1.73252e-08 0)
(-5.00101e-07 -1.62145e-07 0)
(1.04896e-07 -8.85239e-08 0)
(-8.7903e-08 -2.40013e-08 0)
(-2.24305e-07 -4.88654e-08 0)
(-1.97496e-07 -9.9653e-08 0)
(-1.12631e-07 -1.32489e-07 0)
(-1.13754e-08 2.86641e-08 0)
(5.73169e-10 2.64258e-07 0)
(-9.75038e-08 2.13664e-07 0)
(-9.32345e-08 2.11946e-08 0)
(-5.81054e-08 2.74891e-07 0)
(-2.70905e-07 2.92739e-07 0)
(-3.73913e-07 5.17234e-08 0)
(-3.52262e-07 -7.13727e-08 0)
(-2.73366e-07 1.10193e-07 0)
(-1.99974e-07 3.87204e-07 0)
(-1.25019e-07 4.66455e-07 0)
(-6.5029e-08 3.19169e-07 0)
(-7.93825e-09 8.48159e-08 0)
(-1.5185e-08 -8.69509e-08 0)
(7.78321e-08 -1.30801e-07 0)
(4.30581e-08 -8.66558e-08 0)
(-7.67199e-08 -2.66155e-08 0)
(-1.0579e-07 -3.79565e-08 0)
(-9.76241e-08 -1.27261e-07 0)
(-4.43529e-08 -1.39008e-07 0)
(9.86963e-09 7.39754e-08 0)
(-2.56216e-08 3.58319e-07 0)
(-1.21975e-07 2.72916e-07 0)
(-1.14814e-07 1.64779e-08 0)
(-8.06583e-08 2.74795e-07 0)
(-2.07648e-07 2.98899e-07 0)
(-2.9084e-07 4.40925e-08 0)
(-3.24521e-07 -9.55529e-08 0)
(-2.89573e-07 8.60878e-08 0)
(-2.31389e-07 3.8133e-07 0)
(-1.57346e-07 4.69732e-07 0)
(-9.79853e-08 3.00543e-07 0)
(-6.36292e-08 6.12677e-08 0)
(-4.2862e-08 -1.25855e-07 0)
(-3.51207e-09 -1.48016e-07 0)
(-5.29027e-09 -6.35137e-08 0)
(-1.97143e-08 4.57189e-08 0)
(-2.59693e-08 4.26688e-09 0)
(-1.26756e-09 -9.13398e-08 0)
(2.63147e-08 -1.06316e-07 0)
(1.60649e-08 9.6691e-08 0)
(-4.27604e-08 3.95362e-07 0)
(-1.23175e-07 3.07159e-07 0)
(-1.4301e-07 2.0229e-08 0)
(-1.03289e-07 2.49726e-07 0)
(-1.56499e-07 2.72383e-07 0)
(-1.99006e-07 2.12553e-08 0)
(-2.94952e-07 -1.17094e-07 0)
(-3.14692e-07 5.25234e-08 0)
(-2.67991e-07 3.34337e-07 0)
(-1.96937e-07 4.0771e-07 0)
(-1.31511e-07 2.41385e-07 0)
(-1.09007e-07 1.47153e-08 0)
(-1.09862e-07 -1.48003e-07 0)
(-6.96109e-08 -1.65611e-07 0)
(5.06235e-09 -5.67099e-08 0)
(2.31291e-08 6.37727e-08 0)
(7.98644e-08 5.96461e-08 0)
(1.19111e-07 -2.7604e-08 0)
(7.56306e-08 -6.27355e-08 0)
(-8.73535e-09 1.38834e-07 0)
(-7.21337e-08 4.36631e-07 0)
(-1.33928e-07 3.20981e-07 0)
(-1.88364e-07 1.61805e-08 0)
(-1.26796e-07 2.03037e-07 0)
(-1.08536e-07 2.25334e-07 0)
(-1.15964e-07 2.9272e-09 0)
(-2.6163e-07 -1.23221e-07 0)
(-3.37087e-07 2.08797e-08 0)
(-3.13987e-07 2.57017e-07 0)
(-2.35452e-07 3.1101e-07 0)
(-1.6618e-07 1.54449e-07 0)
(-1.46684e-07 -3.83443e-08 0)
(-1.5267e-07 -1.60461e-07 0)
(-1.15857e-07 -1.28154e-07 0)
(-3.32828e-08 -2.61626e-08 0)
(1.05417e-07 9.74605e-08 0)
(2.01233e-07 8.8002e-08 0)
(2.0233e-07 -6.68359e-09 0)
(1.19373e-07 -3.6405e-08 0)
(-9.31905e-09 1.57625e-07 0)
(-1.13981e-07 4.21813e-07 0)
(-1.74579e-07 2.9733e-07 0)
(-2.42983e-07 9.71306e-09 0)
(-1.51878e-07 1.48808e-07 0)
(-6.68134e-08 1.6614e-07 0)
(-4.29247e-08 -2.45142e-08 0)
(-2.44246e-07 -1.31309e-07 0)
(-3.68973e-07 -4.29317e-09 0)
(-3.59204e-07 1.84568e-07 0)
(-2.7785e-07 2.18533e-07 0)
(-1.93403e-07 7.84681e-08 0)
(-1.79451e-07 -8.82925e-08 0)
(-1.83921e-07 -1.7012e-07 0)
(-1.71167e-07 -1.35297e-07 0)
(-5.05612e-08 -8.39764e-09 0)
(1.19644e-07 9.76561e-08 0)
(2.45782e-07 8.69549e-08 0)
(2.73729e-07 1.74366e-08 0)
(1.65539e-07 -1.73835e-09 0)
(-2.82593e-08 1.33893e-07 0)
(-1.573e-07 3.31877e-07 0)
(-1.99784e-07 2.42545e-07 0)
(-2.83589e-07 1.32159e-08 0)
(-1.62549e-07 8.6421e-08 0)
(-4.31421e-08 1.05867e-07 0)
(-1.46906e-08 -4.56602e-09 0)
(-2.20103e-07 -8.31415e-08 0)
(-3.72842e-07 -1.08779e-08 0)
(-3.84187e-07 1.1065e-07 0)
(-3.09285e-07 1.24238e-07 0)
(-2.2768e-07 3.11861e-08 0)
(-2.10356e-07 -8.32521e-08 0)
(-2.20131e-07 -1.32587e-07 0)
(-1.83568e-07 -1.1559e-07 0)
(-5.75873e-08 -1.95633e-08 0)
(1.50986e-07 5.32929e-08 0)
(3.10643e-07 6.02929e-08 0)
(3.22473e-07 1.98323e-08 0)
(1.73235e-07 1.25891e-09 0)
(-5.60494e-08 8.96659e-08 0)
(-1.79125e-07 2.28318e-07 0)
(-2.02179e-07 1.71347e-07 0)
(-3.11508e-07 1.37106e-08 0)
(-1.70044e-07 2.56788e-08 0)
(-1.48754e-08 3.90561e-08 0)
(2.2077e-08 1.94446e-08 0)
(-2.23982e-07 -1.09083e-08 0)
(-3.96303e-07 -3.38492e-09 0)
(-4.08214e-07 3.21154e-08 0)
(-3.29778e-07 3.45628e-08 0)
(-2.43118e-07 3.93662e-09 0)
(-2.20574e-07 -2.80981e-08 0)
(-2.40037e-07 -4.24081e-08 0)
(-1.93965e-07 -3.50674e-08 0)
(-6.45507e-08 -1.24583e-09 0)
(1.51647e-07 2.16754e-08 0)
(3.26369e-07 1.58769e-08 0)
(3.45032e-07 -2.48402e-10 0)
(1.9134e-07 -4.13263e-09 0)
(-4.69882e-08 3.34006e-08 0)
(-1.84184e-07 8.74391e-08 0)
(-2.16384e-07 6.43243e-08 0)
(-3.41495e-07 4.50597e-09 0)
)
;

boundaryField
{
    sides
    {
        type            calculated;
        value           nonuniform List<vector> 
40
(
(-1.70044e-07 0 0)
(-1.48754e-08 0 0)
(2.2077e-08 0 0)
(-2.23982e-07 0 0)
(-3.96303e-07 0 0)
(-4.08214e-07 0 0)
(-3.29778e-07 0 0)
(-2.43118e-07 0 0)
(-2.20574e-07 0 0)
(-2.40037e-07 0 0)
(-1.93965e-07 0 0)
(-6.45507e-08 0 0)
(1.51647e-07 0 0)
(3.26369e-07 0 0)
(3.45032e-07 0 0)
(1.9134e-07 0 0)
(-4.69882e-08 0 0)
(-1.84184e-07 0 0)
(-2.16384e-07 0 0)
(-3.41495e-07 0 0)
(-1.75708e-07 0 0)
(-3.93977e-08 0 0)
(2.03734e-08 0 0)
(-2.11241e-07 0 0)
(-3.84426e-07 0 0)
(-3.97407e-07 0 0)
(-3.16256e-07 0 0)
(-2.36027e-07 0 0)
(-2.28244e-07 0 0)
(-2.52615e-07 0 0)
(-2.30858e-07 0 0)
(-7.32004e-08 0 0)
(1.31665e-07 0 0)
(3.14006e-07 0 0)
(3.52191e-07 0 0)
(2.0445e-07 0 0)
(-5.45123e-08 0 0)
(-2.09217e-07 0 0)
(-2.24139e-07 0 0)
(-3.74808e-07 0 0)
)
;
    }
    inlet
    {
        type            calculated;
        value           uniform (0 0 0);
    }
    outlet
    {
        type            calculated;
        value           nonuniform List<vector> 
20
(
(-3.74808e-07 -1.36778e-08 0)
(-3.8078e-07 2.32948e-08 0)
(-3.08805e-07 1.17501e-08 0)
(-2.91935e-07 3.35389e-08 0)
(-1.81967e-07 4.31493e-08 0)
(-1.47893e-07 3.7828e-08 0)
(-9.73861e-08 7.0779e-08 0)
(-8.10833e-08 4.60985e-08 0)
(-7.20176e-08 6.97988e-08 0)
(-7.13965e-08 7.06586e-08 0)
(-7.95396e-08 3.70767e-08 0)
(-8.85137e-08 2.76855e-08 0)
(-9.32345e-08 2.11946e-08 0)
(-1.14814e-07 1.64779e-08 0)
(-1.4301e-07 2.0229e-08 0)
(-1.88364e-07 1.61805e-08 0)
(-2.42983e-07 9.71306e-09 0)
(-2.83589e-07 1.32159e-08 0)
(-3.11508e-07 1.37106e-08 0)
(-3.41495e-07 4.50597e-09 0)
)
;
    }
    frontAndBack
    {
        type            empty;
    }
}


// ************************************************************************* //
