/*--------------------------------*- C++ -*----------------------------------*\
  =========                 |
  \\      /  F ield         | OpenFOAM: The Open Source CFD Toolbox
   \\    /   O peration     | Website:  https://openfoam.org
    \\  /    A nd           | Version:  9
     \\/     M anipulation  |
\*---------------------------------------------------------------------------*/
FoamFile
{
    format      ascii;
    class       volScalarField;
    location    "23";
    object      hTotal;
}
// * * * * * * * * * * * * * * * * * * * * * * * * * * * * * * * * * * * * * //

dimensions      [0 1 0 0 0 0 0];

internalField   nonuniform List<scalar> 
400
(
0.00999921
0.00999888
0.00999866
0.00999862
0.00999866
0.0099987
0.00999873
0.00999875
0.00999877
0.00999884
0.00999891
0.00999898
0.00999899
0.00999898
0.00999899
0.00999908
0.00999926
0.00999951
0.00999975
0.00999994
0.00999914
0.00999883
0.00999861
0.00999858
0.00999861
0.00999863
0.00999862
0.0099986
0.00999859
0.00999861
0.00999867
0.00999875
0.00999881
0.00999886
0.00999893
0.00999905
0.00999922
0.00999942
0.00999965
0.00999988
0.00999916
0.00999889
0.00999871
0.00999868
0.00999868
0.00999867
0.00999861
0.00999852
0.00999844
0.00999841
0.00999843
0.0099985
0.00999862
0.00999877
0.00999898
0.00999921
0.00999944
0.00999967
0.00999982
0.00999994
0.00999921
0.00999899
0.00999886
0.00999884
0.00999883
0.00999877
0.00999863
0.00999842
0.0099982
0.009998
0.00999793
0.00999801
0.00999827
0.00999868
0.0099991
0.00999942
0.00999959
0.00999965
0.00999974
0.00999988
0.0099993
0.00999916
0.00999909
0.0099991
0.00999909
0.00999898
0.00999872
0.00999834
0.00999791
0.00999748
0.00999718
0.00999725
0.00999774
0.00999855
0.0099994
0.00999996
0.0100001
0.01
0.00999992
0.00999993
0.00999943
0.00999939
0.0099994
0.00999947
0.00999949
0.00999934
0.00999894
0.00999832
0.00999754
0.00999677
0.00999624
0.00999623
0.00999704
0.0099984
0.00999967
0.0100003
0.0100003
0.01
0.00999982
0.00999987
0.00999959
0.00999964
0.00999977
0.00999994
0.01
0.00999992
0.00999945
0.00999851
0.00999703
0.00999523
0.00999406
0.00999441
0.00999659
0.00999944
0.0100013
0.0100015
0.0100007
0.00999995
0.00999966
0.00999984
0.00999976
0.00999991
0.0100002
0.0100005
0.0100007
0.0100007
0.0100003
0.00999927
0.00999733
0.00999418
0.00999028
0.00999
0.00999429
0.0100001
0.0100033
0.0100031
0.0100012
0.0099998
0.00999944
0.0099998
0.00999989
0.0100001
0.0100005
0.0100011
0.0100017
0.010002
0.0100015
0.00999962
0.00999556
0.0099896
0.0099865
0.00998937
0.00999775
0.0100035
0.0100044
0.0100025
0.0100003
0.00999932
0.0099994
0.00999985
0.0099999
0.0100002
0.0100007
0.0100015
0.0100026
0.0100042
0.0100061
0.010008
0.010005
0.00997836
0.00995205
0.00997543
0.0100085
0.0100176
0.0100104
0.0100024
0.00999888
0.00999888
0.00999973
0.0100001
0.00999983
0.0100001
0.0100006
0.0100014
0.0100025
0.0100041
0.010006
0.010008
0.0100049
0.00997834
0.00995208
0.00997541
0.0100084
0.0100176
0.0100104
0.0100023
0.00999888
0.00999886
0.0099997
0.0100001
0.00999968
0.00999992
0.0100003
0.0100009
0.0100015
0.0100018
0.0100014
0.00999945
0.0099954
0.00998944
0.00998655
0.00998925
0.00999765
0.0100035
0.0100043
0.0100023
0.0100002
0.00999928
0.0099994
0.00999986
0.00999941
0.00999957
0.00999983
0.0100002
0.0100004
0.0100004
0.01
0.00999902
0.00999709
0.00999397
0.00998987
0.00998977
0.00999406
0.00999986
0.0100031
0.0100029
0.0100011
0.00999972
0.0099994
0.00999979
0.00999911
0.00999917
0.0099993
0.00999949
0.00999961
0.0099995
0.00999905
0.00999812
0.00999665
0.00999488
0.00999368
0.00999407
0.00999628
0.00999916
0.0100011
0.0100013
0.0100006
0.00999981
0.00999955
0.0099998
0.00999881
0.00999878
0.00999881
0.0099989
0.00999893
0.00999879
0.00999842
0.00999782
0.00999707
0.00999634
0.00999584
0.00999585
0.00999668
0.00999808
0.00999938
0.0100001
0.0100001
0.00999985
0.00999971
0.00999984
0.00999855
0.00999842
0.00999837
0.0099984
0.00999841
0.0099983
0.00999806
0.00999771
0.00999729
0.00999688
0.00999661
0.00999673
0.00999725
0.00999811
0.00999899
0.00999959
0.0099998
0.00999978
0.00999976
0.00999988
0.00999833
0.00999813
0.00999801
0.009998
0.00999802
0.00999796
0.00999783
0.00999763
0.00999744
0.00999731
0.0099973
0.00999742
0.00999772
0.00999817
0.00999865
0.00999905
0.00999931
0.00999948
0.00999964
0.00999985
0.00999814
0.00999789
0.00999772
0.0099977
0.00999772
0.00999772
0.00999767
0.00999759
0.00999752
0.00999751
0.00999755
0.0099977
0.00999789
0.00999811
0.00999838
0.00999867
0.00999897
0.00999926
0.00999955
0.00999984
0.00999802
0.00999773
0.00999753
0.0099975
0.00999753
0.00999758
0.00999759
0.00999759
0.00999762
0.00999769
0.00999779
0.0099979
0.009998
0.0099981
0.00999826
0.00999849
0.00999879
0.00999914
0.0099995
0.00999983
0.00999788
0.00999756
0.00999734
0.00999731
0.00999735
0.00999742
0.00999747
0.0099975
0.00999756
0.00999764
0.00999777
0.00999788
0.00999796
0.009998
0.00999809
0.00999827
0.00999857
0.00999895
0.00999937
0.00999977
)
;

boundaryField
{
    sides
    {
        type            calculated;
        value           nonuniform List<scalar> 
40
(
0.00999788
0.00999756
0.00999734
0.00999731
0.00999735
0.00999742
0.00999747
0.0099975
0.00999756
0.00999764
0.00999777
0.00999788
0.00999796
0.009998
0.00999809
0.00999827
0.00999857
0.00999895
0.00999937
0.00999977
0.00999921
0.00999888
0.00999866
0.00999862
0.00999866
0.0099987
0.00999873
0.00999875
0.00999877
0.00999884
0.00999891
0.00999898
0.00999899
0.00999898
0.00999899
0.00999908
0.00999926
0.00999951
0.00999975
0.00999994
)
;
    }
    inlet
    {
        type            calculated;
        value           nonuniform List<scalar> 
20
(
0.00999921
0.00999914
0.00999916
0.00999921
0.0099993
0.00999943
0.00999959
0.00999976
0.00999989
0.0099999
0.00999983
0.00999968
0.00999941
0.00999911
0.00999881
0.00999855
0.00999833
0.00999814
0.00999802
0.00999788
)
;
    }
    outlet
    {
        type            calculated;
        value           uniform 0.01;
    }
    frontAndBack
    {
        type            empty;
    }
}


// ************************************************************************* //
