/*--------------------------------*- C++ -*----------------------------------*\
  =========                 |
  \\      /  F ield         | OpenFOAM: The Open Source CFD Toolbox
   \\    /   O peration     | Website:  https://openfoam.org
    \\  /    A nd           | Version:  9
     \\/     M anipulation  |
\*---------------------------------------------------------------------------*/
FoamFile
{
    format      ascii;
    class       volVectorField;
    location    "23";
    object      hU_0;
}
// * * * * * * * * * * * * * * * * * * * * * * * * * * * * * * * * * * * * * //

dimensions      [0 2 -1 0 0 0 0];

internalField   nonuniform List<vector> 
400
(
(0.000999992 -1.07056e-08 0)
(0.00100021 -1.94882e-08 0)
(0.00100031 -5.06934e-08 0)
(0.00100041 -1.20405e-07 0)
(0.00100059 -1.87095e-07 0)
(0.00100079 -2.19417e-07 0)
(0.00100098 -2.23566e-07 0)
(0.00100113 -2.21146e-07 0)
(0.00100125 -2.18079e-07 0)
(0.00100135 -2.10948e-07 0)
(0.00100142 -1.83634e-07 0)
(0.00100143 -1.40097e-07 0)
(0.00100134 -9.44594e-08 0)
(0.00100116 -7.25159e-08 0)
(0.00100091 -7.92774e-08 0)
(0.00100069 -1.34009e-07 0)
(0.00100052 -1.73755e-07 0)
(0.00100047 -2.17697e-07 0)
(0.00100035 -1.90839e-07 0)
(0.00100037 -2.60394e-07 0)
(0.00099999 1.15664e-08 0)
(0.00100021 5.63923e-08 0)
(0.00100032 2.74027e-08 0)
(0.00100042 -8.99134e-08 0)
(0.00100061 -2.11663e-07 0)
(0.00100082 -2.53483e-07 0)
(0.00100103 -2.2174e-07 0)
(0.00100121 -1.69708e-07 0)
(0.00100136 -1.16511e-07 0)
(0.00100149 -4.81973e-08 0)
(0.00100158 6.1088e-08 0)
(0.00100158 2.18231e-07 0)
(0.00100146 4.10077e-07 0)
(0.00100124 5.43157e-07 0)
(0.00100097 5.65506e-07 0)
(0.00100072 4.59904e-07 0)
(0.00100056 3.25239e-07 0)
(0.00100048 2.35211e-07 0)
(0.00100042 2.71964e-07 0)
(0.00100034 1.09622e-07 0)
(0.000999986 6.41967e-09 0)
(0.00100019 4.74233e-08 0)
(0.0010003 -3.23687e-08 0)
(0.00100043 -2.44419e-07 0)
(0.0010006 -4.65925e-07 0)
(0.00100083 -5.71331e-07 0)
(0.00100107 -5.65507e-07 0)
(0.00100129 -5.22154e-07 0)
(0.0010015 -4.6587e-07 0)
(0.00100168 -3.61096e-07 0)
(0.00100179 -1.68099e-07 0)
(0.00100179 1.10354e-07 0)
(0.00100164 4.27644e-07 0)
(0.00100135 6.19859e-07 0)
(0.001001 5.91995e-07 0)
(0.00100068 3.66156e-07 0)
(0.00100046 1.25547e-07 0)
(0.0010004 5.13826e-09 0)
(0.0010003 7.76601e-08 0)
(0.00100034 -6.73233e-08 0)
(0.000999982 3.00689e-09 0)
(0.00100016 4.49714e-08 0)
(0.00100029 -6.76485e-08 0)
(0.00100042 -3.58406e-07 0)
(0.00100061 -6.61859e-07 0)
(0.00100085 -8.20867e-07 0)
(0.00100114 -8.35372e-07 0)
(0.00100145 -7.90513e-07 0)
(0.00100177 -6.95231e-07 0)
(0.00100207 -5.00638e-07 0)
(0.00100225 -1.27066e-07 0)
(0.00100222 4.08137e-07 0)
(0.00100196 9.55969e-07 0)
(0.00100151 1.25701e-06 0)
(0.00100103 1.16803e-06 0)
(0.00100066 7.56418e-07 0)
(0.00100049 3.21868e-07 0)
(0.00100045 1.20367e-07 0)
(0.0010005 2.08743e-07 0)
(0.00100045 5.72413e-08 0)
(0.000999977 -2.61588e-09 0)
(0.00100012 2.3347e-08 0)
(0.00100026 -1.33443e-07 0)
(0.0010004 -4.9596e-07 0)
(0.00100058 -8.91195e-07 0)
(0.00100085 -1.14628e-06 0)
(0.00100121 -1.23956e-06 0)
(0.00100164 -1.23838e-06 0)
(0.00100213 -1.12341e-06 0)
(0.00100261 -8.21107e-07 0)
(0.00100294 -2.85679e-07 0)
(0.00100293 4.72338e-07 0)
(0.00100248 1.23355e-06 0)
(0.00100172 1.62378e-06 0)
(0.00100092 1.48739e-06 0)
(0.00100038 9.75912e-07 0)
(0.00100023 4.68991e-07 0)
(0.00100034 2.67054e-07 0)
(0.00100046 3.98748e-07 0)
(0.00100051 2.38136e-07 0)
(0.000999972 -1.15642e-08 0)
(0.00100008 -1.12459e-08 0)
(0.00100021 -2.12654e-07 0)
(0.00100034 -6.38717e-07 0)
(0.0010005 -1.13352e-06 0)
(0.00100078 -1.52393e-06 0)
(0.00100123 -1.79569e-06 0)
(0.00100185 -1.95432e-06 0)
(0.00100259 -1.86683e-06 0)
(0.00100332 -1.2624e-06 0)
(0.00100382 -5.57655e-08 0)
(0.0010038 1.41005e-06 0)
(0.00100312 2.42293e-06 0)
(0.00100197 2.41541e-06 0)
(0.00100089 1.54249e-06 0)
(0.00100028 5.03632e-07 0)
(0.00100027 -9.45199e-08 0)
(0.00100046 -1.43277e-07 0)
(0.00100075 1.71307e-07 0)
(0.00100069 1.13034e-07 0)
(0.000999966 -1.69918e-08 0)
(0.00100002 -5.16108e-08 0)
(0.00100013 -2.80086e-07 0)
(0.00100022 -7.66566e-07 0)
(0.00100031 -1.3446e-06 0)
(0.00100055 -1.93356e-06 0)
(0.00100105 -2.42787e-06 0)
(0.00100193 -3.0039e-06 0)
(0.00100325 -3.21168e-06 0)
(0.00100478 -2.95345e-06 0)
(0.00100579 -8.13725e-07 0)
(0.0010054 2.42303e-06 0)
(0.00100354 4.79622e-06 0)
(0.00100118 4.82151e-06 0)
(0.000999681 3.12813e-06 0)
(0.000999466 1.27618e-06 0)
(0.00100011 3.32952e-07 0)
(0.00100066 2.85905e-07 0)
(0.00100104 6.89103e-07 0)
(0.0010008 5.91761e-07 0)
(0.000999958 -2.40186e-08 0)
(0.000999964 -6.28768e-08 0)
(0.00100001 -3.17727e-07 0)
(0.00100002 -7.91674e-07 0)
(0.000999969 -1.52506e-06 0)
(0.00100013 -2.31721e-06 0)
(0.00100052 -3.33338e-06 0)
(0.00100154 -4.04685e-06 0)
(0.00100312 -4.35699e-06 0)
(0.00100609 -2.6254e-06 0)
(0.00100919 6.02619e-07 0)
(0.00100918 4.12666e-06 0)
(0.00100553 4.67467e-06 0)
(0.0010008 2.83212e-06 0)
(0.000998242 8.03503e-07 0)
(0.00099838 -2.63541e-07 0)
(0.000999903 -3.57043e-07 0)
(0.00100097 -3.68818e-08 0)
(0.00100146 3.1083e-07 0)
(0.00100102 1.51092e-07 0)
(0.000999956 -4.52262e-09 0)
(0.000999892 -5.5297e-08 0)
(0.000999854 -2.14194e-07 0)
(0.000999673 -6.17814e-07 0)
(0.000999373 -1.29047e-06 0)
(0.000999239 -2.45168e-06 0)
(0.000999712 -4.63339e-06 0)
(0.00100139 -8.01343e-06 0)
(0.00100493 -1.32784e-05 0)
(0.00100962 -1.49735e-05 0)
(0.00101194 3.73151e-06 0)
(0.001009 1.86223e-05 0)
(0.00100227 1.574e-05 0)
(0.000997632 5.77068e-06 0)
(0.00099698 -2.73718e-07 0)
(0.000998574 -1.25145e-06 0)
(0.00100038 -1.32284e-07 0)
(0.00100109 6.29521e-07 0)
(0.0010012 7.3256e-07 0)
(0.00100073 2.69821e-07 0)
(0.000999763 -3.9013e-09 0)
(0.00100014 -1.09243e-08 0)
(0.000999308 -8.13677e-08 0)
(0.00100004 -1.8994e-07 0)
(0.000997599 -5.49715e-07 0)
(0.000998856 -1.09652e-06 0)
(0.000993329 -2.84649e-06 0)
(0.000997528 -5.56701e-06 0)
(0.000991689 -1.15497e-05 0)
(0.00091588 -1.27304e-05 0)
(0.000951527 2.49942e-07 0)
(0.00101028 1.4603e-05 0)
(0.000990997 1.30508e-05 0)
(0.000984031 5.14674e-06 0)
(0.000989673 2.19818e-07 0)
(0.000996398 -7.57276e-07 0)
(0.000999349 -9.88361e-08 0)
(0.000999496 2.78519e-07 0)
(0.000998785 2.4066e-07 0)
(0.000998702 -1.69676e-07 0)
(0.000999764 -3.00631e-09 0)
(0.00100014 -1.37935e-09 0)
(0.000999307 7.58348e-08 0)
(0.00100004 1.96618e-07 0)
(0.000997597 5.66379e-07 0)
(0.000998851 1.10226e-06 0)
(0.000993322 2.82608e-06 0)
(0.000997516 5.4979e-06 0)
(0.00099167 1.1419e-05 0)
(0.000915852 1.25627e-05 0)
(0.000951487 -4.74739e-07 0)
(0.00101026 -1.49045e-05 0)
(0.000990995 -1.33991e-05 0)
(0.000984025 -5.53671e-06 0)
(0.000989655 -6.44593e-07 0)
(0.000996359 2.85186e-07 0)
(0.000999305 -4.11902e-07 0)
(0.000999446 -9.58151e-07 0)
(0.000998765 -9.67223e-07 0)
(0.000998651 -8.9975e-07 0)
(0.000999957 -1.49988e-09 0)
(0.000999893 4.42861e-08 0)
(0.000999851 2.08677e-07 0)
(0.000999669 6.22733e-07 0)
(0.000999368 1.30327e-06 0)
(0.000999237 2.45632e-06 0)
(0.00099971 4.61245e-06 0)
(0.0010014 7.9392e-06 0)
(0.00100493 1.31402e-05 0)
(0.00100963 1.47591e-05 0)
(0.00101195 -4.00091e-06 0)
(0.00100895 -1.89403e-05 0)
(0.00100218 -1.60775e-05 0)
(0.000997532 -6.14359e-06 0)
(0.000996903 -1.03132e-07 0)
(0.000998506 8.15367e-07 0)
(0.00100027 -3.30486e-07 0)
(0.00100094 -1.23566e-06 0)
(0.00100101 -1.38103e-06 0)
(0.00100056 -1.27769e-06 0)
(0.00099996 1.9186e-08 0)
(0.000999965 5.37701e-08 0)
(0.001 3.12797e-07 0)
(0.00100001 7.96162e-07 0)
(0.000999961 1.53452e-06 0)
(0.00100012 2.319e-06 0)
(0.0010005 3.30289e-06 0)
(0.0010015 3.96527e-06 0)
(0.00100307 4.20832e-06 0)
(0.00100601 2.41835e-06 0)
(0.00100908 -8.77216e-07 0)
(0.00100909 -4.44317e-06 0)
(0.00100545 -4.9993e-06 0)
(0.00100072 -3.16865e-06 0)
(0.000998135 -1.16933e-06 0)
(0.000998227 -2.0031e-07 0)
(0.000999727 -1.72819e-07 0)
(0.00100074 -6.41689e-07 0)
(0.00100119 -9.90588e-07 0)
(0.00100073 -1.11676e-06 0)
(0.000999968 1.31191e-08 0)
(0.00100002 4.40716e-08 0)
(0.00100013 2.76435e-07 0)
(0.00100021 7.70345e-07 0)
(0.0010003 1.353e-06 0)
(0.00100053 1.93255e-06 0)
(0.00100103 2.40232e-06 0)
(0.0010019 2.93598e-06 0)
(0.00100322 3.10367e-06 0)
(0.00100474 2.79318e-06 0)
(0.00100573 6.22245e-07 0)
(0.00100531 -2.64389e-06 0)
(0.00100342 -5.05273e-06 0)
(0.001001 -5.13577e-06 0)
(0.000999472 -3.50928e-06 0)
(0.000999209 -1.73832e-06 0)
(0.00099984 -8.44966e-07 0)
(0.00100034 -9.48415e-07 0)
(0.00100074 -1.35275e-06 0)
(0.0010004 -1.57033e-06 0)
(0.000999974 7.52132e-09 0)
(0.00100008 5.50113e-09 0)
(0.0010002 2.10541e-07 0)
(0.00100032 6.41274e-07 0)
(0.00100048 1.13917e-06 0)
(0.00100076 1.52183e-06 0)
(0.0010012 1.77137e-06 0)
(0.00100181 1.89003e-06 0)
(0.00100254 1.75058e-06 0)
(0.00100322 1.08662e-06 0)
(0.0010037 -1.50144e-07 0)
(0.00100367 -1.66379e-06 0)
(0.00100294 -2.70734e-06 0)
(0.00100174 -2.72172e-06 0)
(0.00100064 -1.85311e-06 0)
(0.000999981 -8.49841e-07 0)
(0.000999948 -2.57976e-07 0)
(0.00100008 -3.35968e-07 0)
(0.00100034 -6.71015e-07 0)
(0.00100014 -9.08911e-07 0)
(0.00099998 -2.015e-09 0)
(0.00100012 -2.84885e-08 0)
(0.00100024 1.31233e-07 0)
(0.00100038 4.98634e-07 0)
(0.00100056 8.96626e-07 0)
(0.00100082 1.14389e-06 0)
(0.00100118 1.21489e-06 0)
(0.0010016 1.18027e-06 0)
(0.00100207 1.02837e-06 0)
(0.00100254 6.92328e-07 0)
(0.00100284 1.25565e-07 0)
(0.00100276 -6.74412e-07 0)
(0.00100229 -1.4552e-06 0)
(0.00100149 -1.87026e-06 0)
(0.00100066 -1.75542e-06 0)
(0.00100006 -1.31472e-06 0)
(0.000999881 -8.65123e-07 0)
(0.000999877 -8.33334e-07 0)
(0.001 -1.01276e-06 0)
(0.000999885 -1.17355e-06 0)
(0.000999985 -9.27009e-09 0)
(0.00100015 -4.89172e-08 0)
(0.00100027 6.71242e-08 0)
(0.0010004 3.56451e-07 0)
(0.00100058 6.6299e-07 0)
(0.00100082 8.21229e-07 0)
(0.00100111 8.2473e-07 0)
(0.00100141 7.56531e-07 0)
(0.00100171 6.39175e-07 0)
(0.00100196 4.20693e-07 0)
(0.00100209 2.65855e-08 0)
(0.00100203 -5.10437e-07 0)
(0.00100173 -1.05958e-06 0)
(0.00100121 -1.38623e-06 0)
(0.00100067 -1.31606e-06 0)
(0.00100021 -9.60399e-07 0)
(0.000999997 -5.48375e-07 0)
(0.00099985 -4.6256e-07 0)
(0.000999861 -5.49894e-07 0)
(0.000999657 -6.54654e-07 0)
(0.00099999 -1.23451e-08 0)
(0.00100018 -5.71107e-08 0)
(0.00100028 1.28547e-08 0)
(0.0010004 2.22606e-07 0)
(0.00100058 4.37536e-07 0)
(0.0010008 5.26971e-07 0)
(0.00100104 4.94355e-07 0)
(0.00100126 4.10622e-07 0)
(0.00100145 3.08389e-07 0)
(0.00100161 1.53184e-07 0)
(0.00100169 -7.33812e-08 0)
(0.00100162 -3.84773e-07 0)
(0.00100141 -7.17375e-07 0)
(0.00100106 -9.37408e-07 0)
(0.00100066 -9.25959e-07 0)
(0.00100026 -7.53515e-07 0)
(0.00100003 -5.26158e-07 0)
(0.000999806 -5.22685e-07 0)
(0.000999734 -6.06899e-07 0)
(0.000999466 -7.28556e-07 0)
(0.000999994 -2.96535e-09 0)
(0.00100019 -2.21619e-08 0)
(0.00100028 3.21338e-08 0)
(0.00100039 1.71145e-07 0)
(0.00100057 3.13267e-07 0)
(0.00100077 3.78476e-07 0)
(0.00100096 3.67441e-07 0)
(0.00100112 3.28042e-07 0)
(0.00100125 2.83148e-07 0)
(0.00100134 2.17053e-07 0)
(0.00100138 1.06099e-07 0)
(0.00100134 -5.41675e-08 0)
(0.00100118 -2.32714e-07 0)
(0.00100088 -3.63359e-07 0)
(0.00100055 -3.69183e-07 0)
(0.0010002 -2.77234e-07 0)
(0.000999982 -1.32331e-07 0)
(0.000999745 -1.2235e-07 0)
(0.000999624 -1.51433e-07 0)
(0.000999313 -2.28772e-07 0)
(0.000999996 -1.50217e-08 0)
(0.00100021 -4.72666e-08 0)
(0.0010003 -5.1374e-08 0)
(0.00100039 -3.54292e-08 0)
(0.00100057 -1.33044e-08 0)
(0.00100077 -1.1006e-08 0)
(0.00100096 -3.16886e-08 0)
(0.0010011 -6.14117e-08 0)
(0.0010012 -9.05846e-08 0)
(0.00100127 -1.24927e-07 0)
(0.0010013 -1.59645e-07 0)
(0.00100123 -2.24466e-07 0)
(0.0010011 -3.03753e-07 0)
(0.00100084 -3.67389e-07 0)
(0.00100056 -3.79089e-07 0)
(0.00100021 -3.63909e-07 0)
(0.00100002 -3.15193e-07 0)
(0.000999737 -3.36211e-07 0)
(0.000999623 -3.40816e-07 0)
(0.000999185 -4.20058e-07 0)
)
;

boundaryField
{
    sides
    {
        type            slip;
    }
    inlet
    {
        type            fixedValue;
        value           uniform (0.001 0 0);
    }
    outlet
    {
        type            zeroGradient;
    }
    frontAndBack
    {
        type            empty;
    }
}


// ************************************************************************* //
