2.80937e-05 2.07756e-07
8.78022e-05 6.87889e-07
0.000154994 1.46457e-06
0.000230608 2.7491e-06
0.000315699 4.79301e-06
0.000411455 7.86341e-06
0.000519212 1.21806e-05
0.000640475 1.78393e-05
0.000776937 2.47655e-05
0.000930502 3.27719e-05
0.00110331 4.17447e-05
0.00129779 5.1935e-05
0.00151663 6.43205e-05
0.00176291 8.11196e-05
0.00204005 0.000106842
0.00235193 0.00015088
 0.0027029 0.000234107
0.00309785 0.000405741
0.00354231 0.000785457
0.00404248 0.00166085
0.00460533 0.00367245
0.00523873  0.0081867
0.00595151  0.0194522
0.00675364  0.0426021
 0.0076563  0.0667813
0.00867209  0.0654755
 0.0098152  0.0493378
 0.0111016  0.0337446
 0.0125492  0.0232645
 0.0141782  0.0181249
 0.0160115  0.0169451
 0.0180745  0.0181056
  0.020396  0.0206899
 0.0230086  0.0240204
 0.0259485  0.0273013
  0.029257  0.0294987
 0.0329801  0.0294307
 0.0371699  0.0262481
 0.0418848  0.0206392
 0.0471906  0.0162265
 0.0528094  0.0175795
 0.0581152  0.0230334
 0.0628301  0.0274452
 0.0670199  0.0288372
  0.070743  0.0275468
 0.0740515  0.0246391
 0.0769914  0.0211554
  0.079604  0.0179041
 0.0819255  0.0154749
 0.0839885  0.0143806
 0.0858218  0.0154065
 0.0874508   0.020032
 0.0888984  0.0292953
 0.0901848  0.0431064
 0.0913279  0.0575917
 0.0923437  0.0592538
 0.0932464  0.0391922
 0.0940485  0.0187874
 0.0947613  0.0082201
 0.0953947 0.00379085
 0.0959575 0.00175516
 0.0964577 0.000844008
 0.0969021 0.000440702
 0.0972971 0.000255791
 0.0976481 0.000165231
   0.09796 0.000116971
 0.0982371 8.86148e-05
 0.0984834 7.00009e-05
 0.0987022 5.62356e-05
 0.0988967 4.49249e-05
 0.0990695 3.50279e-05
 0.0992231 2.62812e-05
 0.0993595 1.87964e-05
 0.0994808 1.27469e-05
 0.0995885 8.17731e-06
 0.0996843 4.95615e-06
 0.0997694 2.82849e-06
  0.099845 1.50038e-06
 0.0999122 7.02195e-07
 0.0999719 2.11462e-07
