2.80937e-05    6676.85
8.78022e-05    6529.65
0.000154994    6293.24
0.000230608       5970
0.000315699    5580.16
0.000411455    5143.48
0.000519212    4678.44
0.000640475    4201.71
0.000776937    3727.72
0.000930502    3268.47
0.00110331    2833.41
0.00129779    2429.53
0.00151663     2061.5
0.00176291    1731.91
0.00204005    1441.56
0.00235193    1189.82
 0.0027029    974.915
0.00309785    794.274
0.00354231    644.827
0.00404248    523.239
0.00460533    425.976
0.00523873    348.865
0.00595151    284.568
0.00675364    221.756
 0.0076563    159.833
0.00867209    109.624
 0.0098152    71.6593
 0.0111016    40.8043
 0.0125492    20.2936
 0.0141782    11.6183
 0.0160115    9.49911
 0.0180745    9.73534
  0.020396    10.6162
 0.0230086    11.5019
 0.0259485    12.1267
  0.029257    12.3205
 0.0329801    11.8568
 0.0371699    10.3164
 0.0418848     7.0257
 0.0471906    1.61586
 0.0528094    4.38471
 0.0581152    8.66056
 0.0628301    10.8169
 0.0670199    11.6446
  0.070743    11.7059
 0.0740515    11.2852
 0.0769914    10.5272
  0.079604    9.54908
 0.0819255    8.57419
 0.0839885     8.2089
 0.0858218    10.2154
 0.0874508    19.2652
 0.0888984    41.0872
 0.0901848    72.9711
 0.0913279    110.553
 0.0923437    159.098
 0.0932464    218.994
 0.0940485    281.291
 0.0947613    346.474
 0.0953947    424.465
 0.0959575    522.298
 0.0964577    644.249
 0.0969021    793.934
 0.0972971    974.735
 0.0976481    1189.75
   0.09796    1441.56
 0.0982371    1731.95
 0.0984834    2061.58
 0.0987022    2429.63
 0.0988967    2833.51
 0.0990695    3268.56
 0.0992231     3727.8
 0.0993595    4201.76
 0.0994808    4678.47
 0.0995885    5143.48
 0.0996843    5580.14
 0.0997694    5969.96
  0.099845    6293.18
 0.0999122    6529.57
 0.0999719    6676.75
