2.80937e-05  2.164e-10
8.78022e-05 7.7941e-10
0.000154994 2.11962e-09
0.000230608 4.96956e-09
0.000315699 1.05251e-08
0.000411455 2.05507e-08
0.000519212 3.73721e-08
0.000640475 6.37225e-08
0.000776937 1.02569e-07
0.000930502 1.57293e-07
0.00110331 2.32776e-07
0.00129779 3.38065e-07
0.00151663 4.91605e-07
0.00176291 7.31809e-07
0.00204005 1.1412e-06
0.00235193 1.90886e-06
 0.0027029 3.50744e-06
0.00309785 7.23215e-06
0.00354231 1.69302e-05
0.00404248 4.4667e-05
0.00460533 0.000128503
0.00523873 0.000377845
0.00595151 0.00102086
0.00675364 0.00240064
 0.0076563  0.0040806
0.00867209 0.00471092
 0.0098152 0.00452378
 0.0111016 0.00432996
 0.0125492 0.00450279
 0.0141782 0.00499025
 0.0160115 0.00570494
 0.0180745 0.00662474
  0.020396 0.00771723
 0.0230086 0.00889326
 0.0259485 0.00999486
  0.029257  0.0107962
 0.0329801  0.0110253
 0.0371699   0.010454
 0.0418848 0.00917162
 0.0471906 0.00806246
 0.0528094 0.00851108
 0.0581152 0.00996213
 0.0628301  0.0109697
 0.0670199  0.0111212
  0.070743  0.0105592
 0.0740515 0.00955704
 0.0769914 0.00836439
  0.079604 0.00716914
 0.0819255 0.00609459
 0.0839885 0.00520301
 0.0858218 0.00450661
 0.0874508 0.00401557
 0.0888984  0.0038292
 0.0901848 0.00403514
 0.0913279 0.00426184
 0.0923437 0.00373936
 0.0932464 0.00227393
 0.0940485 0.00101247
 0.0947613 0.000389533
 0.0953947 0.000136145
 0.0959575 4.81734e-05
 0.0964577 1.84599e-05
 0.0969021 7.93079e-06
 0.0972971 3.85399e-06
 0.0976481 2.09671e-06
   0.09796 1.25118e-06
 0.0982371 7.99893e-07
 0.0984834 5.35067e-07
 0.0987022 3.65944e-07
 0.0988967 2.50314e-07
 0.0990695 1.67888e-07
 0.0992231 1.08614e-07
 0.0993595 6.69393e-08
 0.0994808 3.89557e-08
 0.0995885 2.1267e-08
 0.0996843 1.08206e-08
 0.0997694 5.07918e-09
  0.099845 2.15501e-09
 0.0999122 7.88406e-10
 0.0999719 2.17449e-10
