2.80937e-05 1.44267e-10
8.78022e-05 5.19607e-10
0.000154994 1.41308e-09
0.000230608 3.31304e-09
0.000315699 7.01674e-09
0.000411455 1.37005e-08
0.000519212 2.49147e-08
0.000640475 4.24817e-08
0.000776937 6.83796e-08
0.000930502 1.04862e-07
0.00110331 1.55184e-07
0.00129779 2.25377e-07
0.00151663 3.27737e-07
0.00176291 4.87873e-07
0.00204005  7.608e-07
0.00235193 1.27257e-06
 0.0027029 2.33829e-06
0.00309785 4.82143e-06
0.00354231 1.12868e-05
0.00404248 2.9778e-05
0.00460533 8.56687e-05
0.00523873 0.000251897
0.00595151 0.000680574
0.00675364 0.00160042
 0.0076563  0.0027204
0.00867209 0.00314061
 0.0098152 0.00301585
 0.0111016 0.00288664
 0.0125492 0.00300186
 0.0141782 0.00332683
 0.0160115 0.00380329
 0.0180745 0.00441649
  0.020396 0.00514482
 0.0230086 0.00592884
 0.0259485 0.00666324
  0.029257 0.00719749
 0.0329801 0.00735018
 0.0371699 0.00696937
 0.0418848 0.00611441
 0.0471906 0.00537497
 0.0528094 0.00567405
 0.0581152 0.00664142
 0.0628301  0.0073131
 0.0670199 0.00741417
  0.070743 0.00703945
 0.0740515 0.00637136
 0.0769914 0.00557626
  0.079604 0.00477942
 0.0819255 0.00406306
 0.0839885 0.00346868
 0.0858218 0.00300441
 0.0874508 0.00267705
 0.0888984  0.0025528
 0.0901848 0.00269009
 0.0913279 0.00284122
 0.0923437  0.0024929
 0.0932464 0.00151595
 0.0940485 0.00067498
 0.0947613 0.000259689
 0.0953947 9.07635e-05
 0.0959575 3.21156e-05
 0.0964577 1.23066e-05
 0.0969021 5.28719e-06
 0.0972971 2.56933e-06
 0.0976481 1.39781e-06
   0.09796 8.34119e-07
 0.0982371 5.33262e-07
 0.0984834 3.56711e-07
 0.0987022 2.43962e-07
 0.0988967 1.66876e-07
 0.0990695 1.11925e-07
 0.0992231 7.24091e-08
 0.0993595 4.46262e-08
 0.0994808 2.59704e-08
 0.0995885 1.4178e-08
 0.0996843 7.21373e-09
 0.0997694 3.38612e-09
  0.099845 1.43667e-09
 0.0999122 5.25604e-10
 0.0999719 1.44966e-10
