2.80937e-05 -4.52036e-12
8.78022e-05 -1.73199e-11
0.000154994 -5.79856e-11
0.000230608 -1.61087e-10
0.000315699 -3.87377e-10
0.000411455 -8.29739e-10
0.000519212 -1.61128e-09
0.000640475 -2.87261e-09
0.000776937 -4.75638e-09
0.000930502 -7.41151e-09
0.00110331 -1.10468e-08
0.00129779 -1.60589e-08
0.00151663 -2.32665e-08
0.00176291 -3.43458e-08
0.00204005 -5.2787e-08
0.00235193 -8.63341e-08
 0.0027029 -1.53987e-07
0.00309785 -3.08077e-07
0.00354231 -7.10298e-07
0.00404248 -1.9189e-06
0.00460533 -6.11086e-06
0.00523873 -2.28913e-05
0.00595151 -8.56588e-05
0.00675364 -0.000328579
 0.0076563 -0.000789366
0.00867209 -0.000999525
 0.0098152 -0.000968744
 0.0111016 -0.000951532
 0.0125492 -0.00101304
 0.0141782 -0.0011278
 0.0160115 -0.00142032
 0.0180745 -0.00192283
  0.020396 -0.00255291
 0.0230086 -0.00321286
 0.0259485 -0.00380203
  0.029257 -0.00419741
 0.0329801 -0.00423612
 0.0371699 -0.00371764
 0.0418848 -0.00247457
 0.0471906 -0.000558695
 0.0528094 0.00156263
 0.0581152 0.00323721
 0.0628301 0.00411901
 0.0670199 0.00433137
  0.070743 0.00409246
 0.0740515 0.00358853
 0.0769914 0.00295483
  0.079604 0.00228925
 0.0819255 0.00167422
 0.0839885 0.00119736
 0.0858218 0.000937208
 0.0874508 0.000847246
 0.0888984 0.000791766
 0.0901848 0.000823006
 0.0913279 0.00087378
 0.0923437 0.000703522
 0.0932464 0.000309476
 0.0940485 8.70892e-05
 0.0947613 2.43667e-05
 0.0953947 6.65599e-06
 0.0959575 2.11172e-06
 0.0964577 7.8558e-07
 0.0969021 3.41001e-07
 0.0972971 1.7014e-07
 0.0976481 9.51129e-08
   0.09796 5.79584e-08
 0.0982371 3.75645e-08
 0.0984834 2.53267e-08
 0.0987022 1.73785e-08
 0.0988967 1.18702e-08
 0.0990695 7.89996e-09
 0.0992231 5.02597e-09
 0.0993595 3.00858e-09
 0.0994808 1.67295e-09
 0.0995885 8.5448e-10
 0.0996843 3.95954e-10
 0.0997694 1.63548e-10
  0.099845 5.85069e-11
 0.0999122 1.73607e-11
 0.0999719 4.48427e-12
