2.80937e-05   0.189073
8.78022e-05   0.584559
0.000154994    1.01699
0.000230608    1.48207
0.000315699    1.97468
0.000411455    2.48899
0.000519212    3.01871
0.000640475    3.55725
0.000776937    4.09796
0.000930502    4.63437
0.00110331    5.16039
0.00129779    5.67048
0.00151663    6.15985
0.00176291    6.62454
0.00204005    7.06157
0.00235193    7.46895
 0.0027029    7.84569
0.00309785    8.19183
0.00354231    8.50835
0.00404248     8.7972
0.00460533    9.06116
0.00523873    9.30374
0.00595151    9.52809
0.00675364    9.73213
 0.0076563    9.90286
0.00867209    10.0355
 0.0098152    10.1369
 0.0111016    10.2071
 0.0125492    10.2462
 0.0141782    10.2683
 0.0160115     10.286
 0.0180745    10.3053
  0.020396    10.3288
 0.0230086    10.3578
 0.0259485    10.3928
  0.029257    10.4337
 0.0329801    10.4794
 0.0371699    10.5273
 0.0418848    10.5707
 0.0471906    10.5964
 0.0528094    10.5874
 0.0581152    10.5494
 0.0628301    10.5015
 0.0670199    10.4534
  0.070743    10.4094
 0.0740515     10.371
 0.0769914    10.3388
  0.079604    10.3124
 0.0819255    10.2915
 0.0839885    10.2747
 0.0858218    10.2595
 0.0874508    10.2398
 0.0888984    10.2015
 0.0901848    10.1298
 0.0913279    10.0267
 0.0923437    9.89371
 0.0932464    9.72469
 0.0940485    9.52357
 0.0947613    9.30129
 0.0953947     9.0599
 0.0959575    8.79658
 0.0964577     8.5081
 0.0969021    8.19177
 0.0972971    7.84573
 0.0976481    7.46903
   0.09796    7.06166
 0.0982371    6.62462
 0.0984834    6.15991
 0.0987022    5.67053
 0.0988967    5.16042
 0.0990695    4.63438
 0.0992231    4.09795
 0.0993595    3.55723
 0.0994808    3.01869
 0.0995885    2.48897
 0.0996843    1.97466
 0.0997694    1.48205
  0.099845    1.01697
 0.0999122   0.584551
 0.0999719    0.18907
