2.80937e-05 1.20111e-05
8.78022e-05 2.27949e-05
0.000154994 3.75909e-05
0.000230608 5.7559e-05
0.000315699 8.3766e-05
0.000411455 0.000117049
0.000519212 0.000157844
0.000640475 0.000206111
0.000776937 0.000261495
0.000930502 0.000323824
0.00110331 0.000393934
0.00129779 0.000474738
0.00151663 0.000572483
0.00176291 0.000698479
0.00204005 0.000872239
0.00235193 0.00112808
 0.0027029 0.00152915
0.00309785 0.00219578
0.00354231 0.00335959
0.00404248 0.00545692
0.00460533 0.00925574
0.00523873  0.0158713
0.00595151  0.0260878
0.00675364  0.0400053
 0.0076563  0.0521574
0.00867209  0.0560412
 0.0098152  0.0549168
 0.0111016  0.0537274
 0.0125492  0.0547892
 0.0141782  0.0576787
 0.0160115  0.0616708
 0.0180745  0.0664567
  0.020396  0.0717274
 0.0230086   0.076999
 0.0259485  0.0816287
  0.029257   0.084838
 0.0329801  0.0857332
 0.0371699  0.0834827
 0.0418848  0.0781947
 0.0471906  0.0733142
 0.0528094  0.0753263
 0.0581152  0.0814949
 0.0628301  0.0855167
 0.0670199  0.0861056
  0.070743  0.0839015
 0.0740515  0.0798208
 0.0769914  0.0746744
  0.079604  0.0691334
 0.0819255  0.0637422
 0.0839885  0.0588955
 0.0858218  0.0548125
 0.0874508  0.0517402
 0.0888984  0.0505252
 0.0901848  0.0518661
 0.0913279  0.0533031
 0.0923437   0.049929
 0.0932464  0.0389352
 0.0940485  0.0259804
 0.0947613  0.0161149
 0.0953947 0.00952699
 0.0959575 0.00566706
 0.0964577 0.00350808
 0.0969021 0.00229939
 0.0972971 0.00160291
 0.0976481 0.00118229
   0.09796 0.000913301
 0.0982371 0.000730248
 0.0984834 0.000597253
 0.0987022 0.000493926
 0.0988967 0.000408505
 0.0990695 0.000334552
 0.0992231 0.000269089
 0.0993595 0.000211249
 0.0994808 0.000161153
 0.0995885 0.000119071
 0.0996843 8.49337e-05
 0.0997694 5.81904e-05
  0.099845 3.79035e-05
 0.0999122 2.29261e-05
 0.0999719 1.20402e-05
