/*--------------------------------*- C++ -*----------------------------------*\
  =========                 |
  \\      /  F ield         | OpenFOAM: The Open Source CFD Toolbox
   \\    /   O peration     | Website:  https://openfoam.org
    \\  /    A nd           | Version:  9
     \\/     M anipulation  |
\*---------------------------------------------------------------------------*/
FoamFile
{
    format      ascii;
    class       volVectorField;
    location    "140";
    object      D;
}
// * * * * * * * * * * * * * * * * * * * * * * * * * * * * * * * * * * * * * //

dimensions      [0 1 0 0 0 0 0];

internalField   nonuniform List<vector> 
1000
(
(5.92478e-08 -2.6228e-08 0)
(5.55698e-08 -2.3622e-08 0)
(5.3315e-08 -2.19747e-08 0)
(5.19979e-08 -2.09351e-08 0)
(5.13277e-08 -2.02988e-08 0)
(5.11181e-08 -1.99385e-08 0)
(5.12442e-08 -1.97703e-08 0)
(5.16188e-08 -1.97371e-08 0)
(5.21804e-08 -1.98001e-08 0)
(5.28921e-08 -1.99343e-08 0)
(5.36603e-08 -2.85071e-08 0)
(4.97777e-08 -2.63933e-08 0)
(4.73978e-08 -2.50431e-08 0)
(4.59961e-08 -2.41855e-08 0)
(4.52608e-08 -2.36617e-08 0)
(4.49942e-08 -2.33711e-08 0)
(4.5065e-08 -2.32466e-08 0)
(4.53833e-08 -2.32417e-08 0)
(4.58874e-08 -2.33243e-08 0)
(4.65399e-08 -2.34721e-08 0)
(4.78301e-08 -3.06499e-08 0)
(4.38899e-08 -2.90975e-08 0)
(4.14751e-08 -2.80875e-08 0)
(4.00446e-08 -2.74394e-08 0)
(3.92783e-08 -2.70453e-08 0)
(3.89749e-08 -2.68354e-08 0)
(3.90015e-08 -2.67615e-08 0)
(3.92682e-08 -2.67891e-08 0)
(3.97129e-08 -2.68938e-08 0)
(4.02962e-08 -2.70576e-08 0)
(4.17993e-08 -3.26228e-08 0)
(3.79584e-08 -3.16673e-08 0)
(3.56052e-08 -3.10201e-08 0)
(3.42053e-08 -3.05959e-08 0)
(3.34442e-08 -3.03412e-08 0)
(3.31249e-08 -3.02183e-08 0)
(3.31183e-08 -3.01994e-08 0)
(3.33369e-08 -3.02628e-08 0)
(3.37204e-08 -3.03921e-08 0)
(3.42299e-08 -3.05745e-08 0)
(3.56061e-08 -3.43918e-08 0)
(3.20235e-08 -3.40335e-08 0)
(2.98292e-08 -3.375e-08 0)
(2.85198e-08 -3.35507e-08 0)
(2.78e-08 -3.34365e-08 0)
(2.74857e-08 -3.34019e-08 0)
(2.74565e-08 -3.34392e-08 0)
(2.76311e-08 -3.35395e-08 0)
(2.79533e-08 -3.36945e-08 0)
(2.83867e-08 -3.38969e-08 0)
(2.92846e-08 -3.5924e-08 0)
(2.61128e-08 -3.61284e-08 0)
(2.41705e-08 -3.61877e-08 0)
(2.30086e-08 -3.62011e-08 0)
(2.23647e-08 -3.62201e-08 0)
(2.20754e-08 -3.62696e-08 0)
(2.20341e-08 -3.63607e-08 0)
(2.2169e-08 -3.64967e-08 0)
(2.24306e-08 -3.66771e-08 0)
(2.27867e-08 -3.68992e-08 0)
(2.28652e-08 -3.71884e-08 0)
(2.02423e-08 -3.78881e-08 0)
(1.86357e-08 -3.82497e-08 0)
(1.76725e-08 -3.84511e-08 0)
(1.71354e-08 -3.8588e-08 0)
(1.68891e-08 -3.87123e-08 0)
(1.68455e-08 -3.88515e-08 0)
(1.69453e-08 -3.90196e-08 0)
(1.71474e-08 -3.9223e-08 0)
(1.74255e-08 -3.94636e-08 0)
(1.63746e-08 -3.81569e-08 0)
(1.44167e-08 -3.92562e-08 0)
(1.32155e-08 -3.98622e-08 0)
(1.24938e-08 -4.02158e-08 0)
(1.20895e-08 -4.04483e-08 0)
(1.19016e-08 -4.06332e-08 0)
(1.18641e-08 -4.08115e-08 0)
(1.19326e-08 -4.1006e-08 0)
(1.20765e-08 -4.12286e-08 0)
(1.2276e-08 -4.14848e-08 0)
(9.83754e-09 -3.88039e-08 0)
(8.63116e-09 -4.01843e-08 0)
(7.88735e-09 -4.09625e-08 0)
(7.43961e-09 -4.14226e-08 0)
(7.18831e-09 -4.17218e-08 0)
(7.0706e-09 -4.19488e-08 0)
(7.04551e-09 -4.21544e-08 0)
(7.08554e-09 -4.23675e-08 0)
(7.17197e-09 -4.26038e-08 0)
(7.29263e-09 -4.28718e-08 0)
(3.27918e-09 -3.91076e-08 0)
(2.87403e-09 -4.06279e-08 0)
(2.61977e-09 -4.14892e-08 0)
(2.46671e-09 -4.19996e-08 0)
(2.38084e-09 -4.23298e-08 0)
(2.34043e-09 -4.25764e-08 0)
(2.33142e-09 -4.27949e-08 0)
(2.34449e-09 -4.30169e-08 0)
(2.37338e-09 -4.32603e-08 0)
(2.41421e-09 -4.35351e-08 0)
(9.13913e-08 -1.21298e-09 0)
(9.19245e-08 -8.67574e-10 0)
(9.22564e-08 -6.35575e-10 0)
(9.25921e-08 -4.8981e-10 0)
(9.30302e-08 -4.01022e-10 0)
(9.36139e-08 -3.49288e-10 0)
(9.43575e-08 -3.21872e-10 0)
(9.5261e-08 -3.10515e-10 0)
(9.63172e-08 -3.09784e-10 0)
(9.75161e-08 -3.16178e-10 0)
(9.08041e-08 -3.69766e-09 0)
(9.11959e-08 -2.62025e-09 0)
(9.14403e-08 -1.94421e-09 0)
(9.17222e-08 -1.52108e-09 0)
(9.21255e-08 -1.262e-09 0)
(9.26848e-08 -1.11061e-09 0)
(9.34099e-08 -1.0304e-09 0)
(9.42977e-08 -9.97238e-10 0)
(9.53391e-08 -9.94786e-10 0)
(9.65222e-08 -1.01177e-09 0)
(8.95154e-08 -6.20379e-09 0)
(8.96362e-08 -4.44004e-09 0)
(8.97119e-08 -3.34865e-09 0)
(8.98865e-08 -2.66871e-09 0)
(9.02193e-08 -2.25232e-09 0)
(9.07298e-08 -2.0088e-09 0)
(9.14185e-08 -1.87986e-09 0)
(9.22764e-08 -1.82673e-09 0)
(9.32904e-08 -1.82297e-09 0)
(9.4446e-08 -1.85021e-09 0)
(8.75731e-08 -8.72472e-09 0)
(8.73106e-08 -6.36417e-09 0)
(8.71507e-08 -4.90722e-09 0)
(8.71748e-08 -4.0016e-09 0)
(8.74079e-08 -3.44759e-09 0)
(8.78491e-08 -3.1239e-09 0)
(8.84859e-08 -2.95301e-09 0)
(8.93012e-08 -2.88346e-09 0)
(9.02767e-08 -2.88004e-09 0)
(9.13941e-08 -2.9184e-09 0)
(8.50178e-08 -1.12583e-08 0)
(8.42816e-08 -8.41981e-09 0)
(8.38315e-08 -6.66627e-09 0)
(8.36708e-08 -5.57652e-09 0)
(8.37814e-08 -4.91035e-09 0)
(8.41371e-08 -4.52182e-09 0)
(8.47096e-08 -4.31781e-09 0)
(8.54721e-08 -4.23658e-09 0)
(8.63998e-08 -4.23591e-09 0)
(8.747e-08 -4.28662e-09 0)
(8.18894e-08 -1.3801e-08 0)
(8.0618e-08 -1.06239e-08 0)
(7.984e-08 -8.65719e-09 0)
(7.94707e-08 -7.43372e-09 0)
(7.94431e-08 -6.68587e-09 0)
(7.97018e-08 -6.25057e-09 0)
(8.02012e-08 -6.02371e-09 0)
(8.09032e-08 -5.93627e-09 0)
(8.17759e-08 -5.94101e-09 0)
(8.27917e-08 -6.00534e-09 0)
(7.82309e-08 -1.63454e-08 0)
(7.63961e-08 -1.2982e-08 0)
(7.52725e-08 -1.08947e-08 0)
(7.46832e-08 -9.5939e-09 0)
(7.45093e-08 -8.79848e-09 0)
(7.46651e-08 -8.33649e-09 0)
(7.50861e-08 -8.09796e-09 0)
(7.57227e-08 -8.00997e-09 0)
(7.65355e-08 -8.02261e-09 0)
(7.74919e-08 -8.10153e-09 0)
(7.40884e-08 -1.88795e-08 0)
(7.16971e-08 -1.54871e-08 0)
(7.02321e-08 -1.33754e-08 0)
(6.94248e-08 -1.20566e-08 0)
(6.91053e-08 -1.12496e-08 0)
(6.91576e-08 -1.07821e-08 0)
(6.9499e-08 -1.05435e-08 0)
(7.00681e-08 -1.04603e-08 0)
(7.08186e-08 -1.04826e-08 0)
(7.17128e-08 -1.05763e-08 0)
(6.95106e-08 -2.13864e-08 0)
(6.66051e-08 -1.81194e-08 0)
(6.48243e-08 -1.6078e-08 0)
(6.38148e-08 -1.47997e-08 0)
(6.33589e-08 -1.4017e-08 0)
(6.33127e-08 -1.35654e-08 0)
(6.35766e-08 -1.33385e-08 0)
(6.40789e-08 -1.32654e-08 0)
(6.47669e-08 -1.32979e-08 0)
(6.55991e-08 -1.34044e-08 0)
(6.45472e-08 -2.38446e-08 0)
(6.12029e-08 -2.08458e-08 0)
(5.91529e-08 -1.89631e-08 0)
(5.79697e-08 -1.778e-08 0)
(5.73945e-08 -1.70556e-08 0)
(5.72596e-08 -1.66404e-08 0)
(5.74511e-08 -1.64373e-08 0)
(5.78886e-08 -1.63805e-08 0)
(5.85147e-08 -1.64245e-08 0)
(5.92874e-08 -1.6539e-08 0)
(9.88461e-08 -3.18924e-10 0)
(1.00305e-07 -3.12401e-10 0)
(1.01868e-07 -3.06123e-10 0)
(1.03526e-07 -2.99392e-10 0)
(1.05269e-07 -2.91533e-10 0)
(1.07089e-07 -2.81995e-10 0)
(1.08979e-07 -2.70342e-10 0)
(1.1093e-07 -2.56223e-10 0)
(1.12936e-07 -2.39329e-10 0)
(1.1499e-07 -2.19367e-10 0)
(1.17087e-07 -1.96026e-10 0)
(1.19221e-07 -1.68961e-10 0)
(1.21386e-07 -1.37773e-10 0)
(1.23575e-07 -1.01987e-10 0)
(1.25783e-07 -6.10406e-11 0)
(1.28002e-07 -1.42596e-11 0)
(1.30227e-07 3.91048e-11 0)
(1.32448e-07 9.96072e-11 0)
(1.34657e-07 1.66388e-10 0)
(1.36847e-07 2.33374e-10 0)
(9.78907e-08 -1.01169e-09 0)
(9.94322e-08 -9.82167e-10 0)
(1.01067e-07 -9.56415e-10 0)
(1.02786e-07 -9.31096e-10 0)
(1.04584e-07 -9.03548e-10 0)
(1.06452e-07 -8.71792e-10 0)
(1.08385e-07 -8.3434e-10 0)
(1.10374e-07 -7.90009e-10 0)
(1.12416e-07 -7.37784e-10 0)
(1.14503e-07 -6.76703e-10 0)
(1.1663e-07 -6.05783e-10 0)
(1.18791e-07 -5.23944e-10 0)
(1.20982e-07 -4.29955e-10 0)
(1.23196e-07 -3.2238e-10 0)
(1.25427e-07 -1.99534e-10 0)
(1.2767e-07 -5.94593e-11 0)
(1.29917e-07 1.00033e-10 0)
(1.32161e-07 2.81222e-10 0)
(1.34394e-07 4.86459e-10 0)
(1.36605e-07 7.19605e-10 0)
(9.58961e-08 -1.83536e-09 0)
(9.76089e-08 -1.76348e-09 0)
(9.9392e-08 -1.70216e-09 0)
(1.01242e-07 -1.64522e-09 0)
(1.03154e-07 -1.5875e-09 0)
(1.05123e-07 -1.52512e-09 0)
(1.07146e-07 -1.45512e-09 0)
(1.09217e-07 -1.37519e-09 0)
(1.11332e-07 -1.28334e-09 0)
(1.13486e-07 -1.17776e-09 0)
(1.15676e-07 -1.05664e-09 0)
(1.17895e-07 -9.18044e-10 0)
(1.20139e-07 -7.5981e-10 0)
(1.22403e-07 -5.79466e-10 0)
(1.24683e-07 -3.74138e-10 0)
(1.26971e-07 -1.40474e-10 0)
(1.29263e-07 1.25443e-10 0)
(1.31551e-07 4.28323e-10 0)
(1.33826e-07 7.74474e-10 0)
(1.36078e-07 1.17436e-09 0)
(9.29618e-08 -2.87162e-09 0)
(9.49209e-08 -2.7275e-09 0)
(9.69197e-08 -2.60539e-09 0)
(9.8959e-08 -2.49587e-09 0)
(1.01039e-07 -2.39082e-09 0)
(1.03157e-07 -2.28384e-09 0)
(1.05313e-07 -2.16999e-09 0)
(1.07504e-07 -2.04533e-09 0)
(1.09728e-07 -1.90657e-09 0)
(1.11982e-07 -1.75071e-09 0)
(1.14263e-07 -1.57486e-09 0)
(1.16566e-07 -1.37602e-09 0)
(1.1889e-07 -1.15095e-09 0)
(1.21228e-07 -8.95985e-10 0)
(1.23578e-07 -6.06897e-10 0)
(1.25934e-07 -2.78752e-10 0)
(1.2829e-07 9.43373e-11 0)
(1.3064e-07 5.19652e-10 0)
(1.32977e-07 1.00691e-09 0)
(1.35289e-07 1.57113e-09 0)
(8.91842e-08 -4.18625e-09 0)
(9.1452e-08 -3.93205e-09 0)
(9.37231e-08 -3.71685e-09 0)
(9.60034e-08 -3.52773e-09 0)
(9.82972e-08 -3.35292e-09 0)
(1.00607e-07 -3.18291e-09 0)
(1.02935e-07 -3.01017e-09 0)
(1.05281e-07 -2.82861e-09 0)
(1.07646e-07 -2.63311e-09 0)
(1.10029e-07 -2.41914e-09 0)
(1.12427e-07 -2.1824e-09 0)
(1.14841e-07 -1.91858e-09 0)
(1.17266e-07 -1.6231e-09 0)
(1.19701e-07 -1.29091e-09 0)
(1.22142e-07 -9.16277e-10 0)
(1.24584e-07 -4.92502e-10 0)
(1.27023e-07 -1.16185e-11 0)
(1.29453e-07 5.36166e-10 0)
(1.31868e-07 1.16364e-09 0)
(1.34259e-07 1.88994e-09 0)
(8.46735e-08 -5.82711e-09 0)
(8.72971e-08 -5.42026e-09 0)
(8.98855e-08 -5.07516e-09 0)
(9.24489e-08 -4.7752e-09 0)
(9.49959e-08 -4.50446e-09 0)
(9.75333e-08 -4.24971e-09 0)
(1.00066e-07 -4.00019e-09 0)
(1.02598e-07 -3.74712e-09 0)
(1.05132e-07 -3.48307e-09 0)
(1.07669e-07 -3.20152e-09 0)
(1.10211e-07 -2.89642e-09 0)
(1.12756e-07 -2.56181e-09 0)
(1.15305e-07 -2.19156e-09 0)
(1.17855e-07 -1.77902e-09 0)
(1.20404e-07 -1.31675e-09 0)
(1.2295e-07 -7.96183e-10 0)
(1.25489e-07 -2.07196e-10 0)
(1.28016e-07 4.62501e-10 0)
(1.30525e-07 1.22871e-09 0)
(1.33009e-07 2.11464e-09 0)
(7.95532e-08 -7.82106e-09 0)
(8.2563e-08 -7.2184e-09 0)
(8.55003e-08 -6.70512e-09 0)
(8.83782e-08 -6.26123e-09 0)
(9.1209e-08 -5.86637e-09 0)
(9.40029e-08 -5.50317e-09 0)
(9.67682e-08 -5.15717e-09 0)
(9.95118e-08 -4.81636e-09 0)
(1.02239e-07 -4.47053e-09 0)
(1.04953e-07 -4.11075e-09 0)
(1.07658e-07 -3.72881e-09 0)
(1.10355e-07 -3.31685e-09 0)
(1.13045e-07 -2.8669e-09 0)
(1.15727e-07 -2.37051e-09 0)
(1.18402e-07 -1.81838e-09 0)
(1.21066e-07 -1.19994e-09 0)
(1.23719e-07 -5.02879e-10 0)
(1.26356e-07 2.8764e-10 0)
(1.28973e-07 1.19044e-09 0)
(1.31565e-07 2.23276e-09 0)
(7.39562e-08 -1.01718e-08 0)
(7.73649e-08 -9.33409e-09 0)
(8.06685e-08 -8.61644e-09 0)
(8.38809e-08 -7.9963e-09 0)
(8.70166e-08 -7.4491e-09 0)
(9.00885e-08 -6.95325e-09 0)
(9.31076e-08 -6.49036e-09 0)
(9.60832e-08 -6.04483e-09 0)
(9.9023e-08 -5.60326e-09 0)
(1.01933e-07 -5.15393e-09 0)
(1.04819e-07 -4.68615e-09 0)
(1.07684e-07 -4.18981e-09 0)
(1.1053e-07 -3.65488e-09 0)
(1.13359e-07 -3.07092e-09 0)
(1.16171e-07 -2.42665e-09 0)
(1.18967e-07 -1.70942e-09 0)
(1.21745e-07 -9.04654e-10 0)
(1.24504e-07 5.01622e-12 0)
(1.2724e-07 1.04142e-09 0)
(1.29952e-07 2.23572e-09 0)
(6.80203e-08 -1.28594e-08 0)
(7.18243e-08 -1.17557e-08 0)
(7.54976e-08 -1.08032e-08 0)
(7.90525e-08 -9.97792e-09 0)
(8.25045e-08 -9.25216e-09 0)
(8.58675e-08 -8.6006e-09 0)
(8.91545e-08 -8.00097e-09 0)
(9.23767e-08 -7.43394e-09 0)
(9.55437e-08 -6.88271e-09 0)
(9.86638e-08 -6.33243e-09 0)
(1.01744e-07 -5.76968e-09 0)
(1.04789e-07 -5.18183e-09 0)
(1.07803e-07 -4.55657e-09 0)
(1.1079e-07 -3.88131e-09 0)
(1.13752e-07 -3.14268e-09 0)
(1.16689e-07 -2.3259e-09 0)
(1.19602e-07 -1.41417e-09 0)
(1.22491e-07 -3.87666e-10 0)
(1.25356e-07 7.78365e-10 0)
(1.28195e-07 2.11883e-09 0)
(6.18906e-08 -1.58392e-08 0)
(6.60749e-08 -1.44487e-08 0)
(7.0108e-08 -1.32389e-08 0)
(7.4001e-08 -1.21856e-08 0)
(7.77691e-08 -1.12594e-08 0)
(8.14266e-08 -1.04322e-08 0)
(8.49871e-08 -9.67831e-09 0)
(8.84629e-08 -8.97479e-09 0)
(9.18651e-08 -8.30131e-09 0)
(9.52035e-08 -7.63975e-09 0)
(9.84863e-08 -6.97371e-09 0)
(1.01721e-07 -6.28787e-09 0)
(1.04912e-07 -5.56747e-09 0)
(1.08065e-07 -4.79764e-09 0)
(1.11182e-07 -3.96282e-09 0)
(1.14268e-07 -3.04617e-09 0)
(1.17323e-07 -2.02874e-09 0)
(1.2035e-07 -8.88487e-10 0)
(1.23349e-07 4.01927e-10 0)
(1.26323e-07 1.88106e-09 0)
(5.73901e-08 -1.85071e-08 0)
(6.18006e-08 -1.69025e-08 0)
(6.60447e-08 -1.55029e-08 0)
(7.0142e-08 -1.42738e-08 0)
(7.41065e-08 -1.31844e-08 0)
(7.79511e-08 -1.22062e-08 0)
(8.16882e-08 -1.1313e-08 0)
(8.53296e-08 -1.04809e-08 0)
(8.88861e-08 -9.68848e-09 0)
(9.23676e-08 -8.9162e-09 0)
(9.57827e-08 -8.14615e-09 0)
(9.9139e-08 -7.36153e-09 0)
(1.02443e-07 -6.54613e-09 0)
(1.057e-07 -5.68376e-09 0)
(1.08914e-07 -4.75767e-09 0)
(1.1209e-07 -3.74991e-09 0)
(1.1523e-07 -2.64063e-09 0)
(1.18338e-07 -1.40706e-09 0)
(1.21418e-07 -2.13849e-11 0)
(1.24472e-07 1.55533e-09 0)
(5.4791e-08 -2.05681e-08 0)
(5.92133e-08 -1.8899e-08 0)
(6.34963e-08 -1.74085e-08 0)
(6.7646e-08 -1.60786e-08 0)
(7.16704e-08 -1.48833e-08 0)
(7.55787e-08 -1.37969e-08 0)
(7.93804e-08 -1.27957e-08 0)
(8.3085e-08 -1.18574e-08 0)
(8.67018e-08 -1.09617e-08 0)
(9.02394e-08 -1.00895e-08 0)
(9.37059e-08 -9.2233e-09 0)
(9.71083e-08 -8.34625e-09 0)
(1.00453e-07 -7.44202e-09 0)
(1.03746e-07 -6.4943e-09 0)
(1.06992e-07 -5.48628e-09 0)
(1.10195e-07 -4.40015e-09 0)
(1.1336e-07 -3.21644e-09 0)
(1.16491e-07 -1.91315e-09 0)
(1.19594e-07 -4.63867e-10 0)
(1.22674e-07 1.16765e-09 0)
(5.24773e-08 -2.25269e-08 0)
(5.68654e-08 -2.08247e-08 0)
(6.11434e-08 -1.9271e-08 0)
(6.53076e-08 -1.78601e-08 0)
(6.93593e-08 -1.65737e-08 0)
(7.33028e-08 -1.53907e-08 0)
(7.71445e-08 -1.42905e-08 0)
(8.08911e-08 -1.3253e-08 0)
(8.45501e-08 -1.22592e-08 0)
(8.81287e-08 -1.12914e-08 0)
(9.16339e-08 -1.03325e-08 0)
(9.50722e-08 -9.36595e-09 0)
(9.84496e-08 -8.37584e-09 0)
(1.01772e-07 -7.346e-09 0)
(1.05044e-07 -6.25994e-09 0)
(1.08271e-07 -5.1003e-09 0)
(1.11458e-07 -3.84837e-09 0)
(1.14611e-07 -2.48335e-09 0)
(1.17735e-07 -9.80702e-10 0)
(1.20839e-07 6.92671e-10 0)
(5.04199e-08 -2.4387e-08 0)
(5.47489e-08 -2.26701e-08 0)
(5.89908e-08 -2.10745e-08 0)
(6.31383e-08 -1.96013e-08 0)
(6.71881e-08 -1.82391e-08 0)
(7.11406e-08 -1.69721e-08 0)
(7.49987e-08 -1.5783e-08 0)
(7.87668e-08 -1.46545e-08 0)
(8.24501e-08 -1.35695e-08 0)
(8.60543e-08 -1.25116e-08 0)
(8.95852e-08 -1.14647e-08 0)
(9.30485e-08 -1.0413e-08 0)
(9.64498e-08 -9.34106e-09 0)
(9.97943e-08 -8.23335e-09 0)
(1.03087e-07 -7.07391e-09 0)
(1.06334e-07 -5.84618e-09 0)
(1.09541e-07 -4.53251e-09 0)
(1.12712e-07 -3.11362e-09 0)
(1.15856e-07 -1.56719e-09 0)
(1.18982e-07 1.36489e-10 0)
(4.85849e-08 -2.61493e-08 0)
(5.28384e-08 -2.44306e-08 0)
(5.70232e-08 -2.28089e-08 0)
(6.11309e-08 -2.12894e-08 0)
(6.51557e-08 -1.9866e-08 0)
(6.90951e-08 -1.85275e-08 0)
(7.29494e-08 -1.72604e-08 0)
(7.67207e-08 -1.60501e-08 0)
(8.04121e-08 -1.48817e-08 0)
(8.40278e-08 -1.37405e-08 0)
(8.75722e-08 -1.26114e-08 0)
(9.10503e-08 -1.14799e-08 0)
(9.44669e-08 -1.03313e-08 0)
(9.78268e-08 -9.15072e-09 0)
(1.01135e-07 -7.92324e-09 0)
(1.04398e-07 -6.63324e-09 0)
(1.0762e-07 -5.26441e-09 0)
(1.10808e-07 -3.79922e-09 0)
(1.1397e-07 -2.21778e-09 0)
(1.17115e-07 -4.93935e-10 0)
(4.69396e-08 -2.78164e-08 0)
(5.11062e-08 -2.61051e-08 0)
(5.52198e-08 -2.44693e-08 0)
(5.92714e-08 -2.29166e-08 0)
(6.32538e-08 -2.14448e-08 0)
(6.71629e-08 -2.00468e-08 0)
(7.09968e-08 -1.87124e-08 0)
(7.47557e-08 -1.74299e-08 0)
(7.84412e-08 -1.61866e-08 0)
(8.20559e-08 -1.49694e-08 0)
(8.56031e-08 -1.3765e-08 0)
(8.90866e-08 -1.25598e-08 0)
(9.25107e-08 -1.13402e-08 0)
(9.58797e-08 -1.00926e-08 0)
(9.91984e-08 -8.80285e-09 0)
(1.02472e-07 -7.45666e-09 0)
(1.05707e-07 -6.03921e-09 0)
(1.08909e-07 -4.53487e-09 0)
(1.12086e-07 -2.9263e-09 0)
(1.15249e-07 -1.19101e-09 0)
(4.54529e-08 -2.93926e-08 0)
(4.95259e-08 -2.76953e-08 0)
(5.35591e-08 -2.60542e-08 0)
(5.75432e-08 -2.44787e-08 0)
(6.14707e-08 -2.29695e-08 0)
(6.53363e-08 -2.15228e-08 0)
(6.91368e-08 -2.01313e-08 0)
(7.28709e-08 -1.8786e-08 0)
(7.65389e-08 -1.74764e-08 0)
(8.01421e-08 -1.61912e-08 0)
(8.36826e-08 -1.49186e-08 0)
(8.71635e-08 -1.36464e-08 0)
(9.05881e-08 -1.23623e-08 0)
(9.39604e-08 -1.10537e-08 0)
(9.72847e-08 -9.70779e-09 0)
(1.00566e-07 -8.31158e-09 0)
(1.0381e-07 -6.85187e-09 0)
(1.07024e-07 -5.31502e-09 0)
(1.10215e-07 -3.68626e-09 0)
(1.13393e-07 -1.94679e-09 0)
(4.40965e-08 -3.08835e-08 0)
(4.80724e-08 -2.92045e-08 0)
(5.20196e-08 -2.75645e-08 0)
(5.5929e-08 -2.59744e-08 0)
(5.97929e-08 -2.4437e-08 0)
(6.36054e-08 -2.2951e-08 0)
(6.73627e-08 -2.15118e-08 0)
(7.10624e-08 -2.01127e-08 0)
(7.47036e-08 -1.87452e-08 0)
(7.82867e-08 -1.73999e-08 0)
(8.18129e-08 -1.60666e-08 0)
(8.52842e-08 -1.47345e-08 0)
(8.87035e-08 -1.33925e-08 0)
(9.20741e-08 -1.20293e-08 0)
(9.53998e-08 -1.06333e-08 0)
(9.86854e-08 -9.19322e-09 0)
(1.01936e-07 -7.69733e-09 0)
(1.05159e-07 -6.13403e-09 0)
(1.08361e-07 -4.49108e-09 0)
(1.11553e-07 -2.75324e-09 0)
(4.2845e-08 -3.22955e-08 0)
(4.67229e-08 -3.0637e-08 0)
(5.05813e-08 -2.90028e-08 0)
(5.44115e-08 -2.74042e-08 0)
(5.82062e-08 -2.58461e-08 0)
(6.19592e-08 -2.4329e-08 0)
(6.56662e-08 -2.28505e-08 0)
(6.93242e-08 -2.14059e-08 0)
(7.29316e-08 -1.99886e-08 0)
(7.64879e-08 -1.85911e-08 0)
(7.99935e-08 -1.72045e-08 0)
(8.34498e-08 -1.58195e-08 0)
(8.68589e-08 -1.44263e-08 0)
(9.02236e-08 -1.30149e-08 0)
(9.35472e-08 -1.15751e-08 0)
(9.68341e-08 -1.0097e-08 0)
(1.00089e-07 -8.57068e-09 0)
(1.03319e-07 -6.98634e-09 0)
(1.0653e-07 -5.33424e-09 0)
(1.09733e-07 -3.60248e-09 0)
(4.16755e-08 -3.3635e-08 0)
(4.54562e-08 -3.19979e-08 0)
(4.9225e-08 -3.03724e-08 0)
(5.2974e-08 -2.87702e-08 0)
(5.66961e-08 -2.71973e-08 0)
(6.03855e-08 -2.5656e-08 0)
(6.40375e-08 -2.41455e-08 0)
(6.76488e-08 -2.26631e-08 0)
(7.12173e-08 -2.12037e-08 0)
(7.47418e-08 -1.97614e-08 0)
(7.82222e-08 -1.83287e-08 0)
(8.16593e-08 -1.68978e-08 0)
(8.50544e-08 -1.546e-08 0)
(8.84098e-08 -1.40068e-08 0)
(9.17285e-08 -1.25293e-08 0)
(9.50142e-08 -1.10189e-08 0)
(9.82714e-08 -9.46726e-09 0)
(1.01506e-07 -7.86666e-09 0)
(1.04725e-07 -6.2095e-09 0)
(1.07936e-07 -4.48699e-09 0)
(4.05674e-08 -3.49087e-08 0)
(4.42528e-08 -3.32927e-08 0)
(4.79328e-08 -3.16776e-08 0)
(5.16002e-08 -3.00751e-08 0)
(5.52485e-08 -2.84922e-08 0)
(5.8872e-08 -2.69324e-08 0)
(6.24663e-08 -2.53965e-08 0)
(6.60278e-08 -2.3883e-08 0)
(6.9554e-08 -2.23887e-08 0)
(7.30434e-08 -2.09086e-08 0)
(7.64953e-08 -1.94368e-08 0)
(7.991e-08 -1.79666e-08 0)
(8.32883e-08 -1.64908e-08 0)
(8.6632e-08 -1.50018e-08 0)
(8.99435e-08 -1.34923e-08 0)
(9.3226e-08 -1.19548e-08 0)
(9.64836e-08 -1.03828e-08 0)
(9.97214e-08 -8.77e-09 0)
(1.02946e-07 -7.111e-09 0)
(1.06164e-07 -5.39975e-09 0)
(3.95022e-08 -3.61225e-08 0)
(4.3095e-08 -3.45265e-08 0)
(4.66879e-08 -3.29225e-08 0)
(5.02746e-08 -3.13222e-08 0)
(5.38492e-08 -2.9733e-08 0)
(5.74064e-08 -2.81596e-08 0)
(6.09418e-08 -2.66039e-08 0)
(6.44519e-08 -2.50657e-08 0)
(6.79341e-08 -2.35427e-08 0)
(7.13864e-08 -2.20314e-08 0)
(7.48078e-08 -2.0527e-08 0)
(7.81982e-08 -1.9024e-08 0)
(8.15578e-08 -1.75163e-08 0)
(8.4888e-08 -1.59975e-08 0)
(8.81907e-08 -1.44612e-08 0)
(9.14685e-08 -1.29017e-08 0)
(9.4725e-08 -1.13134e-08 0)
(9.79647e-08 -9.69184e-09 0)
(1.01193e-07 -8.03339e-09 0)
(1.04417e-07 -6.33443e-09 0)
(3.84626e-08 -3.72819e-08 0)
(4.19659e-08 -3.57045e-08 0)
(4.54743e-08 -3.41118e-08 0)
(4.89822e-08 -3.25152e-08 0)
(5.24844e-08 -3.09228e-08 0)
(5.5976e-08 -2.93398e-08 0)
(5.94529e-08 -2.77692e-08 0)
(6.29116e-08 -2.62116e-08 0)
(6.63492e-08 -2.46658e-08 0)
(6.97638e-08 -2.31294e-08 0)
(7.31539e-08 -2.15986e-08 0)
(7.6519e-08 -2.00688e-08 0)
(7.9859e-08 -1.85349e-08 0)
(8.31748e-08 -1.69916e-08 0)
(8.64676e-08 -1.54337e-08 0)
(8.97397e-08 -1.38565e-08 0)
(9.29941e-08 -1.22556e-08 0)
(9.62345e-08 -1.06281e-08 0)
(9.94656e-08 -8.9719e-09 0)
(1.02693e-07 -7.28537e-09 0)
(3.74324e-08 -3.8392e-08 0)
(4.08494e-08 -3.68315e-08 0)
(4.42764e-08 -3.52497e-08 0)
(4.77083e-08 -3.3658e-08 0)
(5.11406e-08 -3.20647e-08 0)
(5.45686e-08 -3.04756e-08 0)
(5.79886e-08 -2.88943e-08 0)
(6.13969e-08 -2.73222e-08 0)
(6.47909e-08 -2.5759e-08 0)
(6.81682e-08 -2.42031e-08 0)
(7.15273e-08 -2.26514e-08 0)
(7.48671e-08 -2.11004e-08 0)
(7.81873e-08 -1.95457e-08 0)
(8.14883e-08 -1.7983e-08 0)
(8.47709e-08 -1.6408e-08 0)
(8.80367e-08 -1.48169e-08 0)
(9.12882e-08 -1.32067e-08 0)
(9.45284e-08 -1.15754e-08 0)
(9.77613e-08 -9.92239e-09 0)
(1.00992e-07 -8.24771e-09 0)
(3.63955e-08 -3.94574e-08 0)
(3.973e-08 -3.79119e-08 0)
(4.30793e-08 -3.63407e-08 0)
(4.64388e-08 -3.47547e-08 0)
(4.98044e-08 -3.31624e-08 0)
(5.3172e-08 -3.15702e-08 0)
(5.65377e-08 -2.99819e-08 0)
(5.98981e-08 -2.83996e-08 0)
(6.32504e-08 -2.68238e-08 0)
(6.65921e-08 -2.52534e-08 0)
(6.99213e-08 -2.3686e-08 0)
(7.32368e-08 -2.21188e-08 0)
(7.65378e-08 -2.05482e-08 0)
(7.98242e-08 -1.89706e-08 0)
(8.30966e-08 -1.73825e-08 0)
(8.63559e-08 -1.57811e-08 0)
(8.96041e-08 -1.41641e-08 0)
(9.28435e-08 -1.25308e-08 0)
(9.60773e-08 -1.08813e-08 0)
(9.93094e-08 -9.21737e-09 0)
(3.53359e-08 -4.0482e-08 0)
(3.85919e-08 -3.89502e-08 0)
(4.18676e-08 -3.7389e-08 0)
(4.51592e-08 -3.58094e-08 0)
(4.84626e-08 -3.42199e-08 0)
(5.17739e-08 -3.2627e-08 0)
(5.50894e-08 -3.10351e-08 0)
(5.84055e-08 -2.94466e-08 0)
(6.17193e-08 -2.78624e-08 0)
(6.5028e-08 -2.62819e-08 0)
(6.83295e-08 -2.47035e-08 0)
(7.16224e-08 -2.31247e-08 0)
(7.49054e-08 -2.15425e-08 0)
(7.81781e-08 -1.99541e-08 0)
(8.14406e-08 -1.83565e-08 0)
(8.46936e-08 -1.67477e-08 0)
(8.79382e-08 -1.51261e-08 0)
(9.11763e-08 -1.34918e-08 0)
(9.44104e-08 -1.18459e-08 0)
(9.76434e-08 -1.0191e-08 0)
(3.42367e-08 -4.14697e-08 0)
(3.74187e-08 -3.99504e-08 0)
(4.0626e-08 -3.83992e-08 0)
(4.38551e-08 -3.68267e-08 0)
(4.71019e-08 -3.52416e-08 0)
(5.03625e-08 -3.36504e-08 0)
(5.3633e-08 -3.20577e-08 0)
(5.69097e-08 -3.04664e-08 0)
(6.01893e-08 -2.88775e-08 0)
(6.34688e-08 -2.7291e-08 0)
(6.67458e-08 -2.57056e-08 0)
(7.00184e-08 -2.41192e-08 0)
(7.32853e-08 -2.25294e-08 0)
(7.65455e-08 -2.09336e-08 0)
(7.9799e-08 -1.93296e-08 0)
(8.30458e-08 -1.77157e-08 0)
(8.62869e-08 -1.60912e-08 0)
(8.95234e-08 -1.44566e-08 0)
(9.27571e-08 -1.28138e-08 0)
(9.59903e-08 -1.11661e-08 0)
(3.30796e-08 -4.24243e-08 0)
(3.61929e-08 -4.09171e-08 0)
(3.93381e-08 -3.93761e-08 0)
(4.25115e-08 -3.78117e-08 0)
(4.57089e-08 -3.62325e-08 0)
(4.8926e-08 -3.46451e-08 0)
(5.21583e-08 -3.30543e-08 0)
(5.54019e-08 -3.14631e-08 0)
(5.8653e-08 -2.98728e-08 0)
(6.19082e-08 -2.82836e-08 0)
(6.51647e-08 -2.66946e-08 0)
(6.84203e-08 -2.51039e-08 0)
(7.16733e-08 -2.35096e-08 0)
(7.49227e-08 -2.19094e-08 0)
(7.81679e-08 -2.03015e-08 0)
(8.14089e-08 -1.86845e-08 0)
(8.46463e-08 -1.70582e-08 0)
(8.78808e-08 -1.54236e-08 0)
(9.11137e-08 -1.37832e-08 0)
(9.43465e-08 -1.21407e-08 0)
(3.18434e-08 -4.335e-08 0)
(3.48947e-08 -4.18553e-08 0)
(3.79858e-08 -4.03253e-08 0)
(4.11124e-08 -3.87704e-08 0)
(4.42695e-08 -3.71988e-08 0)
(4.74521e-08 -3.56172e-08 0)
(5.06552e-08 -3.40305e-08 0)
(5.38739e-08 -3.24417e-08 0)
(5.71039e-08 -3.08526e-08 0)
(6.03411e-08 -2.92633e-08 0)
(6.35822e-08 -2.76733e-08 0)
(6.68246e-08 -2.6081e-08 0)
(7.00665e-08 -2.44846e-08 0)
(7.33064e-08 -2.28823e-08 0)
(7.65441e-08 -2.12723e-08 0)
(7.97793e-08 -1.96536e-08 0)
(8.30126e-08 -1.80264e-08 0)
(8.62447e-08 -1.63919e-08 0)
(8.94763e-08 -1.4753e-08 0)
(9.27084e-08 -1.31138e-08 0)
(3.05004e-08 -4.42517e-08 0)
(3.3499e-08 -4.2771e-08 0)
(3.65468e-08 -4.12539e-08 0)
(3.96383e-08 -3.97101e-08 0)
(4.27673e-08 -3.81479e-08 0)
(4.59277e-08 -3.65739e-08 0)
(4.91131e-08 -3.49931e-08 0)
(5.23177e-08 -3.34087e-08 0)
(5.5536e-08 -3.18223e-08 0)
(5.87633e-08 -3.02347e-08 0)
(6.19955e-08 -2.86453e-08 0)
(6.52295e-08 -2.70528e-08 0)
(6.84632e-08 -2.54559e-08 0)
(7.16953e-08 -2.38526e-08 0)
(7.49254e-08 -2.22418e-08 0)
(7.8154e-08 -2.06225e-08 0)
(8.1382e-08 -1.89949e-08 0)
(8.46107e-08 -1.73606e-08 0)
(8.78409e-08 -1.57225e-08 0)
(9.1073e-08 -1.4085e-08 0)
(2.3982e-09 -4.38487e-08 0)
(7.23771e-09 -4.32157e-08 0)
(1.21717e-08 -4.1891e-08 0)
(1.72566e-08 -3.99579e-08 0)
(2.25348e-08 -3.75006e-08 0)
(2.80315e-08 -3.46163e-08 0)
(3.37522e-08 -3.14142e-08 0)
(3.96805e-08 -2.80104e-08 0)
(4.57777e-08 -2.4523e-08 0)
(5.19821e-08 -2.10675e-08 0)
(2.3232e-09 -4.42023e-08 0)
(7.00425e-09 -4.36284e-08 0)
(1.17634e-08 -4.24243e-08 0)
(1.66486e-08 -4.06616e-08 0)
(2.16961e-08 -3.84126e-08 0)
(2.69284e-08 -3.576e-08 0)
(3.23525e-08 -3.27969e-08 0)
(3.79577e-08 -2.96231e-08 0)
(4.37155e-08 -2.63418e-08 0)
(4.95784e-08 -2.30607e-08 0)
(2.25651e-09 -4.45891e-08 0)
(6.798e-09 -4.40654e-08 0)
(1.14038e-08 -4.29654e-08 0)
(1.61145e-08 -4.13514e-08 0)
(2.09607e-08 -3.9286e-08 0)
(2.59622e-08 -3.68407e-08 0)
(3.11259e-08 -3.40958e-08 0)
(3.6445e-08 -3.11377e-08 0)
(4.18984e-08 -2.80568e-08 0)
(4.74489e-08 -2.49496e-08 0)
(2.19656e-09 -4.50079e-08 0)
(6.61344e-09 -4.45274e-08 0)
(1.10835e-08 -4.35173e-08 0)
(1.56408e-08 -4.20329e-08 0)
(2.03111e-08 -4.01289e-08 0)
(2.51113e-08 -3.78679e-08 0)
(3.00479e-08 -3.532e-08 0)
(3.51163e-08 -3.25608e-08 0)
(4.03001e-08 -2.96698e-08 0)
(4.5569e-08 -2.67329e-08 0)
(2.14171e-09 -4.54572e-08 0)
(6.44522e-09 -4.50139e-08 0)
(1.0793e-08 -4.40819e-08 0)
(1.52135e-08 -4.27105e-08 0)
(1.97284e-08 -4.09484e-08 0)
(2.43521e-08 -3.88508e-08 0)
(2.90901e-08 -3.648e-08 0)
(3.3939e-08 -3.39025e-08 0)
(3.88854e-08 -3.11886e-08 0)
(4.39042e-08 -2.84149e-08 0)
(2.09058e-09 -4.59351e-08 0)
(6.28892e-09 -4.5524e-08 0)
(1.05244e-08 -4.46599e-08 0)
(1.4821e-08 -4.33873e-08 0)
(1.9197e-08 -4.17498e-08 0)
(2.36643e-08 -3.97971e-08 0)
(2.82275e-08 -3.75845e-08 0)
(3.28836e-08 -3.51716e-08 0)
(3.76216e-08 -3.2621e-08 0)
(4.24199e-08 -3.00009e-08 0)
(2.04207e-09 -4.64393e-08 0)
(6.14107e-09 -4.60564e-08 0)
(1.02716e-08 -4.52516e-08 0)
(1.44541e-08 -4.40655e-08 0)
(1.87039e-08 -4.25377e-08 0)
(2.30309e-08 -4.07129e-08 0)
(2.74389e-08 -3.86414e-08 0)
(3.1925e-08 -3.63767e-08 0)
(3.64796e-08 -3.39751e-08 0)
(4.10841e-08 -3.14976e-08 0)
(1.99528e-09 -4.69677e-08 0)
(5.99889e-09 -4.66095e-08 0)
(1.00297e-08 -4.58566e-08 0)
(1.41053e-08 -4.47464e-08 0)
(1.82386e-08 -4.33151e-08 0)
(2.24381e-08 -4.16037e-08 0)
(2.67067e-08 -3.96577e-08 0)
(3.10416e-08 -3.75258e-08 0)
(3.54342e-08 -3.52591e-08 0)
(3.98682e-08 -3.29124e-08 0)
(1.94948e-09 -4.75179e-08 0)
(5.86012e-09 -4.71815e-08 0)
(9.7947e-09 -4.64742e-08 0)
(1.37684e-08 -4.54309e-08 0)
(1.77927e-08 -4.40847e-08 0)
(2.18746e-08 -4.24735e-08 0)
(2.60164e-08 -4.0639e-08 0)
(3.02154e-08 -3.8626e-08 0)
(3.44637e-08 -3.64808e-08 0)
(3.87468e-08 -3.42529e-08 0)
(1.90406e-09 -4.80874e-08 0)
(5.72282e-09 -4.77702e-08 0)
(9.5631e-09 -4.71033e-08 0)
(1.34385e-08 -4.6119e-08 0)
(1.73589e-08 -4.48482e-08 0)
(2.13307e-08 -4.33258e-08 0)
(2.53555e-08 -4.15905e-08 0)
(2.94307e-08 -3.96833e-08 0)
(3.35492e-08 -3.7647e-08 0)
(3.76979e-08 -3.55264e-08 0)
(1.85845e-09 -4.86737e-08 0)
(5.58527e-09 -4.83736e-08 0)
(9.33191e-09 -4.77425e-08 0)
(1.31107e-08 -4.68106e-08 0)
(1.69309e-08 -4.56067e-08 0)
(2.07978e-08 -4.41632e-08 0)
(2.4713e-08 -4.25159e-08 0)
(2.86739e-08 -4.07032e-08 0)
(3.26742e-08 -3.87642e-08 0)
(3.6702e-08 -3.67398e-08 0)
(1.81213e-09 -4.92741e-08 0)
(5.44584e-09 -4.89893e-08 0)
(9.09832e-09 -4.83902e-08 0)
(1.27811e-08 -4.7505e-08 0)
(1.65027e-08 -4.63607e-08 0)
(2.02683e-08 -4.49874e-08 0)
(2.40791e-08 -4.34186e-08 0)
(2.7933e-08 -4.16898e-08 0)
(3.18239e-08 -3.98376e-08 0)
(3.57415e-08 -3.78992e-08 0)
(1.76458e-09 -4.98857e-08 0)
(5.30296e-09 -4.96149e-08 0)
(8.85959e-09 -4.90444e-08 0)
(1.24455e-08 -4.82012e-08 0)
(1.6069e-08 -4.71101e-08 0)
(1.97349e-08 -4.57995e-08 0)
(2.34448e-08 -4.43007e-08 0)
(2.71965e-08 -4.26468e-08 0)
(3.09848e-08 -4.08719e-08 0)
(3.48003e-08 -3.901e-08 0)
(1.71527e-09 -5.05057e-08 0)
(5.15499e-09 -5.02474e-08 0)
(8.61292e-09 -4.9703e-08 0)
(1.20999e-08 -4.88975e-08 0)
(1.56241e-08 -4.78544e-08 0)
(1.91906e-08 -4.66001e-08 0)
(2.28009e-08 -4.51639e-08 0)
(2.64536e-08 -4.35769e-08 0)
(3.01438e-08 -4.18707e-08 0)
(3.38632e-08 -4.0077e-08 0)
(1.6636e-09 -5.11306e-08 0)
(5.00019e-09 -5.0884e-08 0)
(8.35537e-09 -5.03634e-08 0)
(1.174e-08 -4.95923e-08 0)
(1.51624e-08 -4.85926e-08 0)
(1.86278e-08 -4.7389e-08 0)
(2.21385e-08 -4.60091e-08 0)
(2.56932e-08 -4.4482e-08 0)
(2.9288e-08 -4.28372e-08 0)
(3.29152e-08 -4.11041e-08 0)
(1.60895e-09 -5.17568e-08 0)
(4.83669e-09 -5.15212e-08 0)
(8.08375e-09 -5.10226e-08 0)
(1.13611e-08 -5.0283e-08 0)
(1.46775e-08 -4.93229e-08 0)
(1.80387e-08 -4.81655e-08 0)
(2.14477e-08 -4.68366e-08 0)
(2.49039e-08 -4.53635e-08 0)
(2.84038e-08 -4.37738e-08 0)
(3.1941e-08 -4.20948e-08 0)
(1.55063e-09 -5.23799e-08 0)
(4.6625e-09 -5.2155e-08 0)
(7.79451e-09 -5.16771e-08 0)
(1.0958e-08 -5.09667e-08 0)
(1.41624e-08 -5.00431e-08 0)
(1.74144e-08 -4.89281e-08 0)
(2.07178e-08 -4.76459e-08 0)
(2.40728e-08 -4.62221e-08 0)
(2.7477e-08 -4.46824e-08 0)
(3.09245e-08 -4.30521e-08 0)
(1.48813e-09 -5.29951e-08 0)
(4.47562e-09 -5.2781e-08 0)
(7.4836e-09 -5.23228e-08 0)
(1.05244e-08 -5.16397e-08 0)
(1.36087e-08 -5.07502e-08 0)
(1.67445e-08 -4.96749e-08 0)
(1.99364e-08 -4.84362e-08 0)
(2.31858e-08 -4.70581e-08 0)
(2.64911e-08 -4.55644e-08 0)
(2.98476e-08 -4.39788e-08 0)
(1.42214e-09 -5.3597e-08 0)
(4.27407e-09 -5.33941e-08 0)
(7.1458e-09 -5.29544e-08 0)
(1.00524e-08 -5.22972e-08 0)
(1.30061e-08 -5.14403e-08 0)
(1.60162e-08 -5.04029e-08 0)
(1.90884e-08 -4.92058e-08 0)
(2.22254e-08 -4.78711e-08 0)
(2.54268e-08 -4.64212e-08 0)
(2.86893e-08 -4.48777e-08 0)
(1.35764e-09 -5.41803e-08 0)
(4.05483e-09 -5.39872e-08 0)
(6.77286e-09 -5.3565e-08 0)
(9.5301e-09 -5.29331e-08 0)
(1.23397e-08 -5.21083e-08 0)
(1.52116e-08 -5.11083e-08 0)
(1.8153e-08 -4.99522e-08 0)
(2.11682e-08 -4.86604e-08 0)
(2.42582e-08 -4.72536e-08 0)
(2.74215e-08 -4.57519e-08 0)
)
;

boundaryField
{
    left
    {
        type            symmetryPlane;
    }
    right
    {
        type            tractionDisplacement;
        traction        uniform (10000 0 0);
        pressure        
        {
            type            uniform;
            value           0;
        }
        value           nonuniform List<vector> 
30
(
(1.37937e-07 2.61053e-10 3.2541e-26)
(1.37702e-07 8.52887e-10 -1.95217e-26)
(1.37193e-07 1.40562e-09 -2.48598e-29)
(1.36431e-07 1.89644e-09 3.62028e-26)
(1.35436e-07 2.3069e-09 -3.09357e-26)
(1.34231e-07 2.62107e-09 -5.50248e-27)