/*--------------------------------*- C++ -*----------------------------------*\
  =========                 |
  \\      /  F ield         | OpenFOAM: The Open Source CFD Toolbox
   \\    /   O peration     | Website:  https://openfoam.org
    \\  /    A nd           | Version:  9
     \\/     M anipulation  |
\*---------------------------------------------------------------------------*/
FoamFile
{
    format      ascii;
    class       volScalarField;
    location    "140";
    object      sigmaxx;
}
// * * * * * * * * * * * * * * * * * * * * * * * * * * * * * * * * * * * * * //

dimensions      [1 -1 -2 0 0 0 0];

internalField   nonuniform List<scalar> 
1000
(
7760.26
10956.5
12582
13411.6
13804.2
13947.2
13944.4
13855.9
13726.5
13555.6
10761.3
13195
14323.8
14800.5
14933.1
14878.9
14723.2
14515.2
14291.8
14046.5
14081.2
15491.1
15981.6
16030.4
15865.3
15597.8
15285.6
14960.7
14647
14335.8
17575.2
17767.6
17517.2
17086.7
16600.6
16112
15644
15206.8
14808.7
14434.6
21070.3
19939.2
18896.5
17965.2
17152.2
16444.9
15827.4
15285.8
14811.5
14383.3
24377.3
21917.9
20089.5
18669.9
17543.8
16631.2
15876.7
15242
14702.2
14229.8
27305
23618.2
21071.7
19210.6
17804.8
16711.4
15838.5
15125.4
14532.1
14025.4
29673.1
24963.4
21823.7
19599.8
17965.6
16726.1
15759
14984.8
14351.1
13819.7
31321.5
25890
22330.5
19848.7
18052.8
16711
15678.9
14863.4
14203.2
13656.8
32167.5
26378.9
22563.8
19927
18038.1
16639.9
15573.6
14738.1
14067.2
13517.9
-481.176
-497.351
-107.45
604.234
1427.37
2259.74
3054.49
3792.41
4468.16
5082.88
-572.758
-336.354
175.135
940.845
1779.06
2606.96
3387.44
4106.01
4759.1
5345.85
-657.076
28.2843
767.024
1635.17
2506.41
3328.7
4082.68
4763.87
5374.01
5912.25
-688.784
605.463
1640.58
2633.63
3539.88
4348.25
5061.9
5689.24
6239.02
6709.68
-585.902
1399.13
2766.02
3890.7
4824.9
5606.37
6264.37
6821.93
7295.46
7682.03
-248.264
2419.38
4106.72
5347.55
6292.48
7029.93
7616.26
8089.37
8473.3
8763.32
424.978
3676.11
5623.03
6939.46
7866.34
8538.48
9036.87
9412.78
9696.85
9882.38
1520.64
5172.64
7272.96
8600.97
9470.17
10052
10446.5
10715
10892.6
10970.1
3099.22
6901.46
9012.63
10269.7
11033.1
11497.1
11773
11927.9
11998.9
11972.2
5185.14
8841.48
10797.2
11889.1
12493.8
12811.5
12955.5
12994
12968
12876
5624.7
6117.62
6561.13
6963.02
7328.23
7660.85
7964.36
8241.72
8495.43
8727.5
8939.53
9132.7
9307.71
9464.85
9603.88
9724.04
9823.97
9901.97
9956.93
10016.1
5846.69
6302.77
6711.53
7086.09
7429.08
7743.38
8031.65
8296.22
8539.14
8762.08
8966.36
9152.94
9322.42
9475.02
9610.58
9728.57
9828.16
9907.95
9964.51
10023.9
6342.01
6726.59
7063.23
7378.24
7671.72
7944.7
8198.34
8433.76
8652.04
8854.07
9040.58
9212.07
9368.79
9510.72
9637.53
9748.55
9842.57
9917.39
9968.77
10023.5
7044.2
7330.31
7568.82
7801.15
8024.96
8239.16
8443.11
8636.44
8818.92
8990.45
9150.89
9300.08
9437.73
9563.4
9676.41
9775.71
9859.76
9926.2
9971.33
10022.2
7905.44
8072.35
8195.26
8328.66
8468.21
8610.6
8753.28
8894.28
9031.97
9165.06
9292.45
9413.18
9526.31
9630.87
9725.75
9809.61
9880.75
9936.96
9975.03
10021.2
8870.23
8905.95
8905.84
8931.76
8978.58
9040.96
9114.66
9196.14
9282.47
9371.15
9460.09
9547.47
9631.69
9711.21
9784.53
9850.05
9906
9950.35
9980.21
10020.2
9877.73
9780.4
9660.58
9578.78
9530.95
9510.34
9511.46
9529.59
9560.64
9601.09
9647.92
9698.52
9750.62
9802.18
9851.33
9896.25
9935.16
9966.15
9986.68
10019.1
10866.7
10645
10418.6
10236.9
10098.9
9997.51
9926.7
9881.04
9855.69
9846.37
9849.31
9861.23
9879.3
9901.02
9924.2
9946.89
9967.32
9983.76
9994.13
10017.9
11784.6
11456.8
11143.3
10875.7
10657.4
10482.1
10343.8
10237.1
10156.8
10098.3
10057.4
10030.2
10013.6
10004.7
10000.9
10000.4
10001.3
10002.4
10002.1
10016.6
12613.6
12205
11812.9
11468.2
11176.7
10933.2
10732.4
10568.8
10437.3
10332.9
10250.8
10187.1
10137.9
10100
10070.9
10048.3
10030.8
10017.2
10007.2
10013.9
13189.4
12739.4
12291
11910.6
11582.7
11301.3
11061.8
10859.7
10690.6
10550
10433.9
10338.3
10259.7
10195.1
10141.9
10098.2
10062.5
10034.5
10014.5
10012
13105
12797.9
12413.1
12066.4
11756.6
11482.3
11241.6
11032
10850.8
10695
10561.5
10447.5
10350.3
10267.3
10196.8
10137.1
10087.5
10048
10020
10010.2
13051.8
12808.4
12481.3
12169.8
11879.8
11614.9
11376
11162.6
10973.3
10806.5
10660.2
10532.1
10420.3
10323
10238.8
10166.5
10106
10057.8
10023.7
10008.4
12925.7
12730.8
12456.9
12185.8
11924.2
11677.7
11449.3
11240.3
11050.8
10880.1
10727.3
10591.1
10470
10363.1
10269.2
10188
10119.6
10065
10026.6
10006.9
12746.6
12592.5
12365.3
12133.8
11903.7
11680.7
11468.8
11270.4
11086.8
10918.3
10764.6
10625.4
10500
10387.7
10288.2
10201.6
10128.2
10069.7
10028.4
10005.4
12530
12410.8
12225
12030.6
11832.1
11634.9
11443
11259.6
11086.5
10924.8
10775
10637.4
10511.8
10398.2
10296.7
10207.7
10132.1
10071.7
10029.2
10004.1
12288.5
12199.2
12050.2
11889.7
11721.6
11550.6
11380.6
11214.8
11055.5
10904.2
10762
10629.7
10507.5
10396
10295.6
10207.2
10131.8
10071.5
10029.1
10003
12032.3
11968.4
11851.7
11721.9
11582.3
11437
11289.5
11142.8
10999.4
10861.2
10729.5
10605.3
10489.6
10383
10286.4
10200.9
10127.8
10069.2
10028.1
10002
11768.7
11726.4
11638
11535.8
11422.7
11301.9
11176.7
11049.9
10923.8
10800.3
10681.1
10567.4
10460.4
10361
10270.4
10189.8
10120.8
10065.4
10026.5
10001.2
11503
11479.1
11415.6
11338.2
11249.5
11152
11048.6
10941.7
10833.5
10725.9
10620.7
10519.1
10422.5
10332.1
10249.1
10175
10111.3
10060.2
10024.3
10000.5
11238.7
11231
11189.4
11134.5
11068.3
10992.9
10910.4
10823.2
10733.1
10642
10551.5
10463.1
10378.2
10298
10223.9
10157.4
10100.1
10054.1
10021.8
9999.99
10978.2
10985.1
10963.3
10929.1
10883.8
10829.1
10766.8
10698.8
10626.7
10552.2
10476.9
10402.3
10329.7
10260.5
10196.1
10138
10087.8
10047.4
10019.1
9999.62
10723
10743.7
10740.3
10725.3
10699.8
10664.8
10621.8
10572.4
10517.9
10459.9
10399.9
10339.2
10279.3
10221.4
10167.1
10117.7
10074.9
10040.4
10016.2
9999.39
10474.1
10508.5
10522.9
10526.4
10519.7
10503.6
10479.1
10447.5
10410.1
10368.1
10323
10276.1
10228.7
10182.2
10137.9
10097.4
10062
10033.4
10013.4
9999.27
10232.5
10281.3
10313.3
10335
10346.7
10348.8
10342.2
10327.7
10306.5
10279.8
10248.9
10215.1
10179.7
10144.1
10109.6
10077.5
10049.4
10026.6
10010.6
9999.26
9999.2
10063.8
10114
10154.2
10184.1
10204.1
10214.5
10216.2
10210.3
10197.7
10179.9
10158.2
10133.8
10108.3
10082.8
10058.7
10037.4
10020
10007.9
9999.3
9775.69
9858.19
9927.99
9987.29
10035.7
10073.1
10099.9
10116.7
10124.6
10124.7
10118.4
10107.1
10092.4
10075.6
10058
10041.1
10025.9
10013.6
10005.2
9999.35
9564.12
9667.45
9758.89
9838.59
9905.83
9960.38
10002.5
10033
10052.9
10063.5
10066.5
10063.5
10056.3
10046.3
10035.3
10024.4
10014.7
10007
10002.1
9999.24
9367.84
9496.09
9611.94
9713.62
9800.22
9871.5
9927.77
9969.93
9999.29
10017.6
10026.7
10028.8
10026
10020.4
10013.8
10007.6
10002.9
9999.92
9998.72
9998.99
9190.77
9350.28
9494.38
9620.35
9727.23
9814.77
9883.48
9934.54
9969.75
9991.35
10002
10004.4
10001.6
9996.24
9990.96
9987.76
9987.89
9991.42
9996.69
9999.67
13059.2
13189.9
13353.1
13563.9
13781.2
13959.5
14051.8
14015
13812.4
13372.7
12651.5
12767.6
12920.1
13123.9
13346.9
13553.9
13708.2
13774.7
13720.5
13406.6
12291.2
12395
12535.6
12727.1
12943.2
13154.8
13331.7
13444.9
13465.6
13267.8
11969.2
12062.1
12190.7
12368.6
12574.4
12784.3
12973.5
13117.6
13190.4
13085.1
11676.5
11759.7
11876.6
12040.2
12233
12435.6
12627.5
12788.2
12894.4
12859.7
11405.8
11480.5
11586.4
11736
11914.9
12106.9
12295.1
12462.4
12588.4
12604.6
11151.1
11218.4
11314.5
11451
11615.9
11796
11976.9
12144.4
12280.7
12331.8
10907.6
10968.6
11056
11180.7
11332.7
11500.6
11672.5
11836.1
11976.3
12050.4
10671.3
10726.9
10806.8
10921.3
11061.6
11218.1
11380.4
11538.1
11678.1
11766.7
10438.5
10489.7
10563.5
10669.3
10799.6
10945.8
11098.9
11250
11387.6
11484.8
10206.2
10253.8
10322.7
10421.5
10543.4
10680.9
10826
10970.7
11104.9
11207.2
9971.24
10016.2
10081.3
10174.8
10290.3
10421
10559.5
10698.7
10829.8
10935.3
9730.71
9773.87
9836.51
9926.27
10037.3
10163.2
10297.2
10432.6
10561.5
10669.5
9481.55
9523.76
9585.15
9672.97
9781.66
9905.11
10036.9
10170.5
10298.9
10410.2
9220.54
9262.71
9324.11
9411.77
9520.34
9643.93
9776.22
9910.89
10041.2
10157.3
8944.21
8987.29
9049.93
9139.24
9250.17
9376.88
9512.96
9652.02
9787.46
9910.96
8648.91
8693.67
8758.52
8851.44
8967.61
9100.96
9244.77
9392.35
9537.06
9671.69
8331.46
8377.06
8444.68
8543.63
8668.65
8812.94
8969.22
9130.4
9289.62
9440.49
7991.76
8029.75
8101.12
8210.09
8348.82
8509.34
8683.83
8864.81
9045.16
9219.14
7634.02
7626.07
7708.12
7834.07
7992.58
8175.98
8376.63
8586.59
8798.17
9006.97
)
;

boundaryField
{
    left
    {
        type            symmetryPlane;
    }
    right
    {
        type            calculated;
        value           uniform 10000;
    }
    down
    {
        type            symmetryPlane;
    }
    up
    {
        type            calculated;
        value           nonuniform List<scalar> 
30
(
7638.18
7632.18
7714.1
7839.74
7997.99
8181.16
8381.56
8591.25
8802.54
9010.78
9194.15
9353.28
9496.99
9622.61
9729.18
9816.43
9884.89
9935.73
9970.74
9992.19
10002.7
10005
10002
9996.59
9991.19
9987.87
9987.89
9991.36
9996.73
10000.2
)
;
    }
    hole
    {
        type            calculated;
        value           nonuniform List<scalar> 
20
(
6322.59
9326.31
12714.9
16332
19988.2
23474.9
26580
29103.5
30868.4
31773.3
-18.2834
-158.856
-397.35
-651.818
-812.961
-756.701
-358.841
489.62
1868.31
3815.96
)
;
    }
    frontAndBack
    {
        type            empty;
    }
}


// ************************************************************************* //
