/*--------------------------------*- C++ -*----------------------------------*\
  =========                 |
  \\      /  F ield         | OpenFOAM: The Open Source CFD Toolbox
   \\    /   O peration     | Website:  https://openfoam.org
    \\  /    A nd           | Version:  9
     \\/     M anipulation  |
\*---------------------------------------------------------------------------*/
FoamFile
{
    format      ascii;
    class       volScalarField;
    location    "140";
    object      sigmaxy;
}
// * * * * * * * * * * * * * * * * * * * * * * * * * * * * * * * * * * * * * //

dimensions      [1 -1 -2 0 0 0 0];

internalField   nonuniform List<scalar> 
1000
(
-5590.05
-4256.4
-3363.08
-2728.68
-2261.93
-1908.65
-1634.94
-1418.49
-1240.29
-1012.6
-6883.16
-4614.93
-3208.01
-2293.22
-1676.72
-1249
-944.511
-721.631
-549.785
-356.723
-7848.09
-4808.43
-2982.08
-1842.32
-1109.02
-626.383
-302.843
-82.2452
72.97
230.444
-8373.81
-4803.47
-2694.94
-1409.49
-605.469
-94.533
232.789
442.701
578.646
704.119
-8383.94
-4579.62
-2356.99
-1021.88
-202.137
306.228
621.029
813.212
928.977
1025.35
-7844.81
-4132.16
-1978.91
-698.08
78.624
552.145
838.157
1006.22
1101.33
1172.25
-6769.82
-3473.83
-1571.62
-447.086
229.339
636.906
878.734
1016.85
1091.16
1140.88
-5219.7
-2635.71
-1147.45
-270.14
255.027
569.003
753.113
856.348
910.091
943.07
-3298.55
-1671.11
-728.654
-171.936
161.042
359.711
475.992
541.199
575.386
596.151
-1148.25
-684.975
-388.142
-204.075
-89.4939
-17.4301
28.1417
56.9899
75.5391
89.1581
431.185
162.972
-43.0443
-166.641
-233.476
-266.309
-279.301
-280.834
-276.084
-269.838
1056.17
-186.215
-843.933
-1179.54
-1336.28
-1391.56
-1389.49
-1355.77
-1305.71
-1255.85
1526.76
-449.062
-1471.56
-1980.31
-2210.59
-2285.08
-2271.94
-2210.47
-2123.94
-2039.09
1720.1
-742.816
-2010.66
-2631.8
-2904.41
-2983.85
-2955.53
-2868.19
-2750.62
-2639.09
1560.08
-1106.53
-2470.42
-3126.4
-3401.73
-3467.65
-3418.01
-3305.97
-3162.9
-3033.69
1015.79
-1551.07
-2846.32
-3450.09
-3683.78
-3715.79
-3638.28
-3503.11
-3340.78
-3203.54
101.638
-2068.58
-3133.06
-3598.03
-3745.73
-3723.59
-3611.96
-3455.62
-3280.78
-3145.28
-1124.68
-2636.3
-3327.32
-3577.26
-3599.96
-3505.96
-3354.84
-3179.34
-2998.62
-2874.16
-2567.73
-3219.61
-3428.49
-3406.04
-3274.98
-3096.58
-2902.45
-2709.15
-2527.17
-2422.11
-4103.28
-3775.48
-3438.84
-3111.9
-2812.33
-2544.62
-2307.94
-2099.25
-1915.57
-1824.85
-251.065
-222.797
-199.904
-179.505
-161.094
-144.373
-129.108
-115.077
-102.057
-89.8217
-78.1401
-66.7758
-55.4801
-43.9851
-31.9958
-19.2129
-5.53022
8.05827
16.615
6.65344
-1163.38
-1039.39
-938.019
-847.889
-767.538
-695.793
-631.544
-573.713
-521.261
-473.187
-428.522
-386.316
-345.612
-305.436
-264.781
-222.646
-178.13
-130.463
-78.0682
-15.0047
-1891.75
-1700.21
-1542.12
-1399.96
-1272.01
-1156.92
-1053.26
-959.558
-874.295
-795.968
-723.085
-654.16
-587.693
-522.149
-455.941
-387.403
-314.689
-235.269
-144.159
-28.62
-2454.56
-2222.11
-2028.98
-1852.88
-1692.21
-1545.94
-1412.84
-1291.47
-1180.22
-1077.38
-981.183
-889.799
-801.338
-713.818
-625.119
-532.899
-434.352
-325.546
-199.442
-39.5441
-2831.2
-2588.3
-2384.46
-2194.9
-2018.56
-1855.21
-1704.34
-1564.98
-1435.82
-1315.27
-1201.56
-1092.75
-986.724
-881.172
-773.535
-660.872
-539.583
-404.709
-247.774
-49.1995
-3002.99
-2782.67
-2593.95
-2413
-2239.51
-2074.62
-1918.95
-1772.45
-1634.49
-1503.96
-1379.35
-1258.84
-1140.29
-1021.22
-898.787
-769.593
-629.453
-472.645
-289.533
-57.7418
-2964.94
-2799.3
-2650.45
-2499.83
-2347.84
-2197.3
-2050.33
-1908.13
-1771.08
-1638.82
-1510.41
-1384.38
-1258.76
-1131.12
-998.468
-857.149
-702.57
-528.431
-324.145
-65.006
-2727.33
-2643.1
-2554.93
-2453.99
-2340.87
-2220.01
-2095.08
-1968.69
-1842.43
-1716.96
-1592.11
-1466.99
-1340.02
-1208.97
-1070.93
-922.155
-757.818
-571.206
-351.004
-70.8043
-2308.91
-2321.94
-2309.68
-2274.37
-2215.75
-2139.17
-2049.49
-1950.64
-1845.47
-1735.77
-1622.3
-1504.92
-1382.64
-1253.63
-1115.23
-963.823
-794.566
-600.525
-369.871
-75.0746
-1724.84
-1839.58
-1919.87
-1966.34
-1978.33
-1961.09
-1920.23
-1860.84
-1787.06
-1701.94
-1607.37
-1504.18
-1392.14
-1270.06
-1135.72
-985.866
-815.873
-618.877
-382.676
-78.3676
-1220.99
-1394.31
-1549.03
-1652.37
-1714.15
-1741.3
-1739.68
-1714.46
-1669.95
-1609.48
-1535.36
-1448.85
-1350.18
-1238.61
-1112.41
-968.745
-803.515
-610.418
-377.914
-77.996
-862.504
-1056.4
-1238.06
-1373.91
-1466.94
-1523.52
-1549.43
-1549.55
-1527.92
-1487.72
-1431.24
-1359.86
-1274.06
-1173.43
-1056.65
-921.418
-764.278
-579.798
-357.879
-73.5454
-516.056
-719.026
-916.783
-1077.09
-1197.66
-1282.15
-1335.1
-1360.71
-1362.57
-1343.62
-1306.05
-1251.3
-1180.05
-1092.18
-986.802
-862.166
-715.507
-542.373
-334.157
-68.5047
-227.137
-425.143
-625.556
-798.033
-936.68
-1042.12
-1117
-1164.37
-1187.08
-1187.61
-1167.93
-1129.4
-1072.79
-998.246
-905.234
-792.542
-658.121
-498.521
-306.629
-62.7599
8.48202
-179.873
-374.703
-549.75
-697.496
-816.321
-907.002
-971.248
-1011.01
-1028.16
-1024.29
-1000.6
-957.874
-896.409
-816.004
-715.933
-594.832
-450.213
-276.42
-56.4849
196.466
20.5878
-163.939
-335.107
-485.02
-610.687
-711.42
-787.69
-840.514
-871.086
-880.559
-869.906
-839.838
-790.753
-722.717
-635.437
-528.178
-399.344
-244.665
-49.8997
342.721
181.246
9.79761
-153.357
-300.502
-427.902
-533.838
-617.782
-679.907
-720.759
-741.033
-741.426
-722.541
-684.83
-628.569
-553.84
-460.467
-347.66
-212.442
-43.2264
453.102
307.016
150.137
-2.46908
-143.503
-268.865
-376.165
-464.128
-532.236
-580.464
-609.08
-618.504
-609.211
-581.672
-536.329
-473.582
-393.735
-296.713
-180.716
-36.6648
533.017
402.444
260.658
119.987
-12.7959
-133.466
-239.222
-328.266
-399.553
-452.591
-487.281
-503.791
-502.469
-483.788
-448.319
-396.721
-329.712
-247.83
-150.312
-30.3865
587.129
471.528
344.636
216.451
93.1595
-21.0428
-123.133
-210.972
-283.139
-338.787
-377.521
-399.301
-404.363
-393.173
-366.404
-324.931
-269.809
-202.089
-121.9
-24.5284
619.193
517.582
404.898
289.159
175.95
69.3315
-27.5936
-112.49
-183.689
-240.093
-281.089
-306.475
-316.401
-311.328
-292.01
-259.496
-215.109
-160.317
-95.9877
-19.1953
632.013
543.17
443.721
340.017
237.048
138.662
47.9407
-32.6996
-101.45
-157.055
-198.757
-226.241
-239.597
-239.287
-226.135
-201.321
-166.38
-123.098
-72.9291
-14.4572
627.439
550.08
462.79
370.528
277.708
187.919
104.138
28.7719
-36.3217
-89.8087
-130.849
-159.064
-174.508
-177.653
-169.374
-150.957
-124.086
-90.7768
-52.9296
-10.3557
606.396
539.324
463.177
381.753
298.922
217.977
141.722
72.4799
12.0818
-38.1293
-77.2861
-104.984
-121.266
-126.614
-121.948
-108.62
-88.4144
-63.4935
-36.0647
-6.90251
568.908
511.146
445.33
374.297
301.396
229.585
161.444
99.14
44.4111
-1.44958
-37.5955
-63.6266
-79.5883
-85.9723
-83.7191
-74.2187
-59.3033
-41.2017
-22.3063
-4.09454
514.08
465.009
409.069
348.302
285.544
223.378
164.093
109.64
61.5997
21.1609
-10.8909
-34.1841
-48.7708
-55.1368
-54.2145
-47.3868
-36.4808
-23.7239
-11.5608
-1.91572
439.974
399.486
353.506
303.403
251.473
199.866
150.512
105.072
64.908
31.0507
4.18641
-15.3603
-27.6423
-33.1103
-32.6348
-27.5254
-19.5314
-10.7981
-3.70879
-0.371178
343.137
311.878
276.744
238.492
198.811
159.329
121.534
86.7197
55.9539
30.0507
9.55575
-5.27119
-14.4726
-18.4185
-17.836
-13.8461
-7.99069
-2.21548
1.28805
0.523174
216.919
196.812
174.687
150.713
125.871
101.16
77.5127
55.7501
36.5512
20.4368
7.7578
-1.31502
-6.80473
-8.94682
-8.21724
-5.37214
-1.50264
1.93275
3.22381
0.78453
45.3503
40.9814
36.3239
31.3315
26.1677
21.0328
16.1221
11.6081
7.63356
4.30815
1.70606
-0.135689
-1.22056
-1.59624
-1.36149
-0.675511
0.224697
1.00336
1.24496
0.534636
90.6818
576.804
916.3
1119.39
1169.38
1054
774.611
347.97
-196.33
-823.755
83.6008
529.681
850.886
1057.22
1134.77
1072.34
868.875
534.303
84.5485
-474.222
78.713
492.513
798.343
1006.57
1105.14
1083.34
938.06
674.473
301.799
-174.104
73.7688
457.54
747.269
954.038
1067.64
1078.11
981.256
779.115
476.29
77.5986
68.5274
424.121
697.079
899.289
1022.27
1056.98
998.754
847.768
605.788
277.658
63.094
392.469
648.57
844.031
971.98
1024.34
996.434
887.357
697.223
431.189
57.5998
362.757
602.367
789.684
919.282
984.063
979.553
904.3
757.552
544.771
52.1254
334.985
558.711
737.061
865.871
938.969
952.204
903.897
792.945
624.983
46.6947
308.993
517.523
686.442
812.676
890.893
917.314
890.222
808.466
677.698
41.2851
284.507
478.485
637.704
760.024
840.856
876.797
866.195
808.012
707.771
35.8369
261.165
441.104
590.421
707.77
789.214
831.706
833.708
794.366
718.945
30.2599
238.536
404.752
543.926
655.393
735.78
782.371
793.76
769.283
713.86
24.4344
216.118
368.677
497.351
602.049
679.897
728.488
746.55
733.592
694.111
18.2099
193.344
332.016
449.634
546.587
620.466
669.164
691.546
687.252
660.311
11.4021
169.582
293.795
399.509
487.537
555.933
602.917
627.491
629.387
612.122
3.81387
144.172
252.929
345.459
423.024
484.215
527.609
552.354
558.235
548.238
-4.6004
116.518
208.145
285.542
350.589
402.513
440.27
463.156
470.992
466.236
-12.9878
86.1318
157.631
216.922
266.692
306.821
336.607
355.477
363.296
362.057
-17.2494
51.9746
97.7568
134.498
165.281
190.386
209.361
221.775
227.55
228.212
-6.16299
9.95159
19.4451
26.705
32.8746
38.071
42.1608
45.0026
46.5635
47.2731
)
;

boundaryField
{
    left
    {
        type            symmetryPlane;
    }
    right
    {
        type            calculated;
        value           nonuniform List<scalar> 
30
(
-0.00111521
-0.00541037
-0.00941744
-0.0132154
-0.0168351
-0.0202335
-0.0233532
-0.026326
-0.0293537
-0.0324358
-0.0350226
-0.0370411
-0.0387135
-0.0401527
-0.0414742
-0.042783
-0.04415
-0.0456358
-0.0472712
-0.049101
-0.0511551
-0.0535285
-0.0563216
-0.0597196
-0.064105
-0.0717907
-0.0916672
-0.154587
-0.340608
-0.880442
)
;
    }
    down
    {
        type            symmetryPlane;
    }
    up
    {
        type            calculated;
        value           nonuniform List<scalar> 
30
(
0.00145704
0.00712785
0.0124676
0.017509
0.0223041
0.0268177
0.03093
0.034527
0.0376396
0.0402744
0.0423461
0.0441364
0.0458946
0.0476332
0.0492839
0.0508364
0.0523299
0.0538417
0.0554761
0.0573649
0.0596422
0.0624496
0.0659822
0.0704333
0.0760942
0.0854535
0.110983
0.193046
0.422906
0.924112
)
;
    }
    hole
    {
        type            calculated;
        value           nonuniform List<scalar> 
20
(
-5844.45
-7352.18
-8495.71
-9146.28
-9214.64
-8660.3
-7496.31
-5789.06
-3653.55
-1248.43
464.737
1341.98
1997.52
2311.13
2203.63
1641.44
640.81
-732.696
-2369.86
-4127.99
)
;
    }
    frontAndBack
    {
        type            empty;
    }
}


// ************************************************************************* //
