/*--------------------------------*- C++ -*----------------------------------*\
  =========                 |
  \\      /  F ield         | OpenFOAM: The Open Source CFD Toolbox
   \\    /   O peration     | Website:  https://openfoam.org
    \\  /    A nd           | Version:  9
     \\/     M anipulation  |
\*---------------------------------------------------------------------------*/
FoamFile
{
    format      ascii;
    class       volScalarField;
    location    "140";
    object      sigmayy;
}
// * * * * * * * * * * * * * * * * * * * * * * * * * * * * * * * * * * * * * //

dimensions      [1 -1 -2 0 0 0 0];

internalField   nonuniform List<scalar> 
1000
(
4577.05
1142.47
-719.02
-1738.25
-2285.64
-2557.41
-2664.18
-2672.64
-2626.26
-2547.3
5154.94
1842.83
22.3486
-1009.31
-1593.99
-1913.72
-2071.94
-2131.27
-2129.36
-2068.79
5279.08
2374.64
754.135
-201.046
-773.902
-1115.98
-1314.18
-1421.52
-1469.73
-1456.17
5011.42
2746.56
1455.89
650.703
131.009
-211.114
-438.511
-590.344
-690.451
-732.821
4447.14
2979.02
2107
1503.3
1066.98
742.378
495.667
304.465
154.499
54.0234
3703.77
3100.63
2687.09
2310.17
1974.07
1678.64
1420.88
1196.27
1000.77
844.156
2908.13
3143.48
3176.57
3024.33
2791.36
2530.33
2267.64
2015.98
1781.16
1574.13
2181.88
3138.14
3558.01
3603.28
3463.23
3235.4
2971.52
2699.13
2432.71
2184.22
1628.06
3111.94
3820.75
4015.03
3945.36
3743.07
3479.04
3191.86
2902.37
2623.41
1335.05
3111.35
3962
4225.25
4185.57
3992.39
3725.95
3429.77
3127.01
2829.45
-11969.6
-7832.44
-5245.12
-3569.19
-2452.27
-1683.55
-1136.68
-734.061
-426.843
-183.878
-11545.5
-7555.78
-5185.48
-3644.42
-2602.69
-1874.42
-1347.95
-953.615
-646.783
-398.078
-10357.2
-7023.95
-5008.48
-3676.99
-2759.63
-2103.59
-1617.27
-1243.24
-944.621
-697.039
-8647.18
-6248.87
-4742.19
-3703.9
-2959.19
-2404.15
-1975
-1631.1
-1346.28
-1103.13
-6578.14
-5278.97
-4384.45
-3699.91
-3163.44
-2730.92
-2372.25
-2066.85
-1801.22
-1566.36
-4314.23
-4176.47
-3938.29
-3637.49
-3329
-3032.17
-2753.15
-2492.94
-2251.76
-2030.14
-2022.84
-3007.93
-3410.75
-3490.38
-3411.65
-3254.34
-3059.52
-2849.27
-2637.53
-2435.11
135.734
-1838.3
-2811.7
-3236.86
-3372
-3348.59
-3237.85
-3080.22
-2902.07
-2724.74
2021.09
-726.362
-2153.4
-2862.3
-3180.08
-3276.66
-3245.73
-3141.43
-2999.85
-2851.66
3524.43
279.131
-1450.34
-2361.16
-2818.76
-3015.13
-3057.07
-3006.06
-2902.71
-2791.12
10.2161
191.867
355.142
507.095
653.278
798.156
945.339
1097.85
1258.34
1429.3
1613.17
1812.51
2030.05
2268.84
2532.33
2824.4
3149.3
3510.76
3908.93
4339.19
-185.841
24.5566
208.622
377.994
538.794
695.924
853.313
1014.24
1181.57
1357.97
1546
1748.32
1967.72
2207.27
2470.38
2760.91
3083.34
3443.46
3850.77
4337.67
-469.679
-224.093
-12.8423
181.045
363.359
539.025
712.151
886.245
1064.41
1249.5
1444.27
1651.48
1874.01
2114.98
2377.82
2666.52
2985.88
3342.28
3744.78
4218.78
-858.344
-570.082
-324.15
-98.2703
112.853
313.864
508.857
701.487
895.061
1092.65
1297.19
1511.58
1738.81
1982.03
2244.74
2530.92
2845.32
3193.8
3583.57
4036.78
-1305.2
-976.927
-695.156
-435.242
-192.401
37.3092
257.63
472.117
684.129
896.849
1113.33
1336.59
1569.66
1815.7
2078.14
2360.78
2667.98
3004.77
3377.01
3805.7
-1758.44
-1404.49
-1092.84
-802.755
-530
-271.958
-25.7593
211.66
443.422
672.616
902.276
1135.39
1374.96
1624.03
1885.85
2163.85
2461.84
2784.05
3135.23
3535.11
-2163.92
-1810.58
-1482.44
-1172.18
-876.189
-594.061
-324.494
-65.4551
185.526
431.139
674.157
917.373
1163.58
1415.61
1676.32
1948.69
2235.84
2541.15
2868.32
3234.65
-2470.58
-2154.56
-1830.07
-1515.1
-1207.1
-908.867
-621.459
-344.52
-76.735
183.785
439.248
692.007
944.473
1199.05
1458.12
1724.01
1999.03
2285.57
2586.1
2914.43
-2631.66
-2393
-2096.54
-1796.29
-1491.78
-1189.53
-893.522
-605.624
-326.178
-54.5191
210.643
470.946
728.179
984.144
1240.55
1498.94
1760.62
2026.69
2298.14
2584.4
-2614.8
-2457.25
-2217.3
-1961.47
-1687.61
-1403.5
-1115.96
-829.807
-547.937
-271.744
-1.5505
263.013
522.689
778.35
1030.78
1280.5
1527.58
1771.54
2011.22
2249.65
-2551.02
-2337.72
-2168.24
-1956.31
-1716.89
-1459.9
-1193.34
-923.187
-653.541
-386.967
-124.886
132.033
383.563
629.621
870.037
1104.31
1331.37
1549.31
1754.94
1944.73
-2330.2
-2227.89
-2105.08
-1927.71
-1715.89
-1481.54
-1233.53
-978.557
-721.509
-465.766
-213.579
33.5759
274.674
508.85
735.13
952.168
1157.96
1349.48
1522
1668.6
-2023.9
-1991.07
-1926.72
-1798.45
-1627.28
-1427.2
-1208.28
-978.054
-742.171
-504.832
-269.138
-37.4217
188.443
406.753
615.693
813.06
995.942
1160.31
1300.35
1407.41
-1748.61
-1758.79
-1735.79
-1649.19
-1515.77
-1349.03
-1159.37
-954.818
-741.57
-524.429
-307.157
-92.7751
116.136
317.164
507.784
685.072
845.386
983.964
1094.33
1166.47
-1496.48
-1535.98
-1541.79
-1488.26
-1387.85
-1252.13
-1090.9
-912.149
-722.286
-526.491
-328.982
-133.302
57.419
240.201
411.952
569.188
707.732
822.334
906.116
948.089
-1267.95
-1327.09
-1352.64
-1324.28
-1251.26
-1143.02
-1008.22
-854.342
-687.705
-513.594
-336.48
-160.242
11.6032
175.666
328.442
466.056
583.98
676.696
737.151
753.784
-1063.53
-1134.63
-1173.02
-1163.24
-1112.18
-1027.41
-916.317
-785.644
-641.332
-488.553
-331.828
-175.193
-22.3857
122.951
257.059
375.833
474.575
547.681
588.139
584.247
-883.07
-959.937
-1005.73
-1009.08
-975.105
-909.844
-819.47
-709.876
-586.471
-454.136
-317.271
-179.908
-45.8475
81.1659
197.268
298.279
379.485
435.37
459.152
439.377
-725.649
-803.352
-852.215
-864.237
-843.163
-793.758
-721.115
-630.282
-526.057
-412.911
-294.989
-176.175
-60.2014
49.226
148.274
232.822
298.282
339.367
349.695
318.386
-589.706
-664.447
-713.023
-730.113
-718.402
-681.617
-623.904
-549.511
-462.604
-367.172
-267.007
-165.74
-66.9116
25.9251
109.086
178.629
230.207
258.886
258.803
219.913
-473.266
-542.237
-588.005
-607.32
-602.068
-575.124
-529.819
-469.667
-398.209
-318.918
-235.169
-150.255
-67.4357
9.98757
78.5786
134.668
174.246
192.817
185.132
142.157
-374.156
-435.409
-476.569
-495.948
-494.831
-475.41
-440.314
-392.395
-334.596
-269.865
-201.121
-131.26
-63.1916
0.110684
55.5355
99.7623
129.184
139.811
127.053
82.9985
-290.193
-342.508
-377.884
-395.761
-396.992
-383.213
-356.459
-318.992
-273.192
-221.489
-166.329
-110.177
-55.5379
-5.00446
38.6947
72.6408
93.6766
98.3457
82.7425
40.1263
-219.335
-262.112
-291.059
-306.394
-308.659
-299.047
-279.087
-250.52
-215.208
-175.08
-132.111
-88.3133
-45.7616
-6.62613
26.7853
51.9892
66.2994
66.8067
50.276
11.1373
-159.797
-192.975
-215.311
-227.52
-229.926
-223.362
-208.935
-187.926
-161.727
-131.803
-99.6648
-66.8763
-35.067
-5.96473
18.5678
36.5001
45.6222
43.55
27.6923
-6.36008
-110.174
-134.168
-150.125
-159.03
-161.045
-156.716
-146.792
-132.163
-113.806
-92.7601
-70.1063
-46.9747
-24.5565
-4.13358
12.8865
24.9335
30.2647
26.9815
13.0788
-14.7116
-69.5564
-85.2377
-95.4392
-101.222
-102.619
-99.944
-93.6597
-84.3286
-72.5762
-59.0689
-44.5057
-29.621
-15.1974
-2.08943
8.74195
16.1921
18.9752
15.6317
4.62942
-16.2024
-37.7087
-46.424
-51.8903
-55.0538
-55.8381
-54.3863
-50.9478
-45.8309
-39.3779
-31.9525
-23.9371
-15.7337
-7.77518
-0.539726
5.4217
9.45243
10.7303
8.21913
0.702275
-13.1595
-15.4005
-19.0688
-21.2258
-22.5335
-22.8589
-22.2507
-20.8172
-18.6898
-16.0101
-12.9272
-9.59603
-6.18027
-2.85594
0.178684
2.69398
4.40493
4.92437
3.65075
-0.296917
-7.97853
-11.2609
-10.0017
-8.70006
-7.54348
-6.48405
-5.52906
-4.68687
-3.95731
-3.33189
-2.79635
-2.33175
-1.91694
-1.52988
-1.15179
-0.768396
-0.379203
-0.0176486
0.187612
-0.130204
-1.7426
2553.51
2376.65
1986.77
1440.95
783.128
64.3701
-660.193
-1336.62
-1920.19
-2429.01
2297.37
2149.63
1815.31
1344.71
775.748
151.361
-482.404
-1080.56
-1606.33
-2101.73
2061.58
1940.35
1660.05
1261.5
774.892
234.181
-323.881
-862.362
-1348.45
-1805.22
1842.58
1742.56
1507.76
1171.31
757.2
292.416
-193.692
-671.073
-1111.97
-1527.78
1638.9
1556.3
1359.82
1076.5
725.289
327.62
-93.0423
-512.285
-907.035
-1279.6
1449.54
1381.45
1217.37
979.534
682.893
344.44
-17.0827
-381.925
-731.128
-1060.52
1273.57
1217.67
1081.06
882.151
632.764
346.343
37.8284
-276.864
-582.245
-869.9
1110.08
1064.48
951.215
785.661
577.149
336.3
74.9873
-194.005
-458.072
-706.297
958.258
921.399
828.026
691.08
517.924
316.914
97.4466
-130.257
-355.975
-567.599
817.381
787.967
711.589
599.222
456.669
290.465
107.989
-82.6365
-273.172
-451.249
686.902
663.84
601.996
510.776
394.738
258.939
109.111
-48.3603
-206.892
-354.507
566.459
548.807
499.383
426.365
333.317
224.082
103.033
-24.8877
-154.494
-274.639
455.916
442.836
403.974
346.608
273.491
187.455
91.7331
-9.93459
-113.541
-209.056
355.405
346.095
316.121
272.173
216.317
150.496
76.9869
-1.46628
-81.8464
-155.418
265.373
258.975
236.337
203.851
162.892
114.589
60.4176
2.3187
-57.505
-111.698
186.641
182.089
165.353
142.64
114.445
81.1287
43.5427
3.00791
-38.9142
-76.2534
120.428
116.258
104.268
89.9058
72.4316
51.5882
27.8198
1.99869
-24.7961
-47.8962
68.1819
62.6729
54.9141
47.5781
38.6233
27.5697
14.6925
0.532331
-14.2097
-25.9862
30.7384
24.0886
20.6625
18.5256
15.4355
11.1553
5.90032
-0.0709526
-6.41144
-10.5577
-13.8604
-20.3657
-19.9405
-18.9039
-18.0435
-17.2548
-16.4256
-15.5353
-14.5756
-12.7275
)
;

boundaryField
{
    left
    {
        type            symmetryPlane;
    }
    right
    {
        type            calculated;
        value           nonuniform List<scalar> 
30
(
4334.37
4330.49
4211.73
4030.11
3799.35
3529.05
3228.91
2909.05
2579.43
2245.49
1941.13
1665.54
1404.88
1164.42
946.468
752.553
583.36
438.786
318.041
219.766
142.163
83.1143
40.3125
11.36
-6.13188
-14.4951
-15.9984
-12.9199
-7.66288
-1.63856
)
;
    }
    down
    {
        type            symmetryPlane;
    }
    up
    {
        type            calculated;
        value           nonuniform List<scalar> 
30
(
-8.16441e-07
-1.74735e-05
-4.84473e-05
-8.85284e-05
-0.000131356
-0.000170223
-0.000198752
-0.000212204
-0.000208882
-0.000148846
-4.78317e-05
2.04636e-11
-4.54747e-13
-1.40972e-11
-1.40972e-11
-6.82121e-12
-5.00222e-12
2.72848e-12
-6.82121e-12
-7.27596e-12
4.54747e-13
4.09273e-12
-6.82121e-12
5.91172e-12
4.54747e-13
-6.82121e-12
1.00044e-11
7.7307e-12
-6.36646e-12
-0.00298457
)
;
    }
    hole
    {
        type            calculated;
        value           nonuniform List<scalar> 
20
(
5402.45
5795.9
5676.58
5122.11
4247.97
3194.93
2114.17
1151.52
432.429
49.0532
-11827.9
-11338.3
-10042.4
-8194.84
-5973.38
-3560.75
-1144.43
1096.39
3005.99
4465.5
)
;
    }
    frontAndBack
    {
        type            empty;
    }
}


// ************************************************************************* //
