/*--------------------------------*- C++ -*----------------------------------*\
  =========                 |
  \\      /  F ield         | OpenFOAM: The Open Source CFD Toolbox
   \\    /   O peration     | Website:  https://openfoam.org
    \\  /    A nd           | Version:  9
     \\/     M anipulation  |
\*---------------------------------------------------------------------------*/
FoamFile
{
    format      ascii;
    class       volScalarField;
    location    "140";
    object      sigmazz;
}
// * * * * * * * * * * * * * * * * * * * * * * * * * * * * * * * * * * * * * //

dimensions      [1 -1 -2 0 0 0 0];

internalField   nonuniform List<scalar> 
1000
(
2847.07
2792.07
2737.61
2693.86
2658.13
2628.41
2603.13
2580.75
2561.59
2540.37
3672.97
3470.26
3310.65
3182.59
3078.26
2991.96
2919.52
2857.83
2806.72
2764.1
4467.75
4122.87
3862.09
3652.92
3482.63
3341.95
3224.17
3124.42
3040.92
2972.22
5212.31
4734.04
4378.42
4093.26
3861.13
3669.42
3508.96
3373.03
3258.05
3161.95
5888.65
5288.83
4846.96
4492.74
4204.43
3966.29
3766.87
3597.76
3453.7
3331.7
6480.26
5773.51
5256.14
4841.55
4504.12
4225.34
3991.75
3793.46
3623.77
3478.61
6972.27
6175.78
5595.75
5131.14
4752.96
4440.4
4178.35
3955.7
3764.6
3599.89
7351.15
6484.96
5857.33
5354.56
4945.11
4606.5
4322.43
4080.91
3873.19
3693.22
7603.74
6692.75
6034.9
5507.01
5076.51
4720.17
4421.05
4166.59
3947.44
3756.97
7731.36
6805.43
6121.35
5573.6
5128.54
4761.29
4453.75
4192.58
3967.89
3772.46
-2873.25
-1922.26
-1235.21
-684.22
-236.517
132.968
442.572
705.774
932.611
1130.54
-2796.53
-1821.26
-1156.23
-623.901
-190.069
169.046
470.651
727.477
948.996
1141.79
-2541.76
-1614.38
-978.796
-471.19
-58.4353
282.718
568.942
812.452
1022.17
1203.51
-2154.45
-1302.32
-715.757
-246.986
134.005
448.638
712.361
936.493
1129.09
1293.82
-1653.24
-895.348
-373.482
44.029
383.414
663.565
898.182
1097.32
1267.9
1411.31
-1052.88
-405.482
38.8669
394.63
683.878
922.558
1122.26
1291.48
1435.74
1553.81
-368.736
154.196
510.526
795.94
1028.01
1219.42
1379.39
1514.66
1629.07
1718.6
382.241
769.463
1029.52
1237.87
1407.27
1546.94
1663.53
1761.88
1843.98
1902.77
1181.61
1425.02
1582.9
1709.39
1812.23
1897.02
1967.84
2027.65
2076.7
2104.73
2009.9
2104.76
2156.96
2198.75
2232.7
2260.69
2284.25
2304.91
2322.77
2327.28
1300.37
1456.03
1596.06
1723.87
1841.89
1952.08
2056.08
2155.29
2250.87
2343.88
2435.24
2525.82
2616.41
2707.77
2800.66
2895.79
2993.83
3095.24
3199.81
3312.76
1306.35
1460.15
1596.96
1722.48
1838.74
1947.53
2050.38
2148.57
2243.24
2335.4
2425.93
2515.67
2605.42
2695.91
2787.91
2882.19
2979.58
3081.09
3188.14
3314.22
1355.15
1500.57
1627.01
1744.45
1854.25
1957.78
2056.27
2150.77
2242.26
2331.59
2419.58
2506.97
2594.49
2682.85
2772.77
2865.02
2960.41
3059.92
3164.67
3286.68
1427.51
1560.05
1671.85
1777.59
1877.96
1973.77
2065.84
2154.91
2241.69
2326.87
2411.09
2495
2579.2
2664.33
2751.03
2839.99
2931.94
3027.69
3128.05
3244.39
1523.13
1637.41
1730.79
1821.56
1909.8
1995.67
2079.44
2161.48
2242.18
2321.98
2401.34
2480.72
2560.61
2641.52
2723.98
2808.55
2895.86
2986.55
3081.24
3190.82
1641.18
1731.1
1803
1875.92
1949.67
2023.62
2097.44
2171.03
2244.44
2317.79
2391.31
2465.28
2539.99
2615.83
2693.16
2772.44
2854.12
2938.71
3026.64
3128.15
1780.11
1839.19
1887.26
1939.99
1997.25
2057.6
2120.07
2184.03
2249.11
2315.13
2382.02
2449.82
2518.66
2588.72
2660.23
2733.45
2808.69
2886.3
2966.54
3058.57
1937.58
1959.33
1981.97
2012.72
2051.95
2097.38
2147.36
2200.74
2256.68
2314.65
2374.28
2435.36
2497.79
2561.56
2626.69
2693.28
2761.47
2831.39
2903.13
2984.39
2112.22
2091.64
2087.71
2095.24
2115.15
2144.44
2180.83
2222.64
2268.61
2317.8
2369.54
2423.35
2478.88
2535.88
2594.19
2653.69
2714.29
2775.94
2838.53
2907.92
2307.4
2249.47
2214.36
2193.86
2189.79
2199.17
2219.17
2247.47
2282.17
2321.8
2365.22
2411.56
2460.13
2510.39
2561.93
2614.35
2667.31
2720.47
2773.48
2830.05
2455
2400.39
2336.01
2297.15
2276.72
2271.1
2277.34
2293.04
2316.23
2345.32
2379
2416.23
2456.14
2498.01
2541.22
2585.18
2629.36
2673.18
2716.03
2759.25
2486.49
2439.24
2378.77
2339.71
2317.08
2307.87
2309.56
2320.03
2337.53
2360.58
2387.99
2418.72
2451.91
2486.81
2522.74
2559.05
2595.1
2630.19
2663.53
2695.11
2544.89
2496.31
2435.67
2393.38
2365.96
2351.01
2346.4
2350.27
2361.04
2377.32
2397.93
2421.85
2448.18
2476.11
2504.88
2533.75
2561.99
2588.78
2613.24
2634.42
2579.32
2532.01
2474.09
2431.52
2401.94
2383.54
2374.6
2373.58
2379.05
2389.78
2404.65
2422.68
2442.96
2464.66
2487
2509.17
2530.38
2549.77
2566.37
2578.46
2596.19
2551.5
2497.72
2456.67
2426.73
2406.59
2394.9
2390.38
2391.81
2398.1
2408.23
2421.26
2436.32
2452.59
2469.27
2485.56
2500.61
2513.54
2523.36
2527.73
2598.93
2557.78
2509.02
2470.69
2441.74
2421.2
2408.04
2401.21
2399.72
2402.58
2408.89
2417.8
2428.47
2440.11
2451.95
2463.17
2472.95
2480.4
2484.55
2482.59
2590.38
2553.37
2510.13
2475.33
2448.33
2428.42
2414.84
2406.73
2403.26
2403.61
2406.97
2412.57
2419.64
2427.45
2435.23
2442.23
2447.63
2450.58
2450.13
2443.2
2572.89
2540.41
2502.92
2472.18
2447.82
2429.34
2416.15
2407.6
2402.99
2401.63
2402.82
2405.87
2410.09
2414.8
2419.31
2422.88
2424.76
2424.14
2420.14
2409.54
2548.4
2520.7
2489.03
2462.66
2441.42
2424.96
2412.84
2404.53
2399.47
2397.1
2396.8
2397.99
2400.05
2402.37
2404.31
2405.22
2404.39
2401.09
2394.51
2381.43
2518.45
2495.69
2469.81
2448.02
2430.25
2416.25
2405.7
2398.2
2393.28
2390.48
2389.3
2389.23
2389.75
2390.3
2390.35
2389.29
2386.5
2381.32
2373.03
2358.56
2484.33
2466.64
2446.47
2429.36
2415.29
2404.1
2395.53
2389.27
2384.97
2382.25
2380.7
2379.89
2379.4
2378.76
2377.49
2375.09
2371
2364.67
2355.45
2340.5
2447.09
2434.54
2420.02
2407.64
2397.45
2389.32
2383.04
2378.39
2375.09
2372.85
2371.34
2370.24
2369.2
2367.84
2365.77
2362.56
2357.76
2350.89
2341.41
2326.76
2407.56
2400.27
2391.33
2383.75
2377.57
2372.68
2368.93
2366.16
2364.16
2362.71
2361.58
2360.54
2359.32
2357.63
2355.18
2351.62
2346.6
2339.71
2330.53
2316.81
2366.48
2364.56
2361.18
2358.45
2356.39
2354.89
2353.86
2353.16
2352.66
2352.24
2351.74
2351.02
2349.9
2348.2
2345.7
2342.16
2337.3
2330.82
2322.38
2310.09
2324.47
2328.09
2330.3
2332.49
2334.64
2336.65
2338.44
2339.95
2341.1
2341.85
2342.13
2341.89
2341.07
2339.56
2337.26
2334.01
2329.62
2323.88
2316.54
2306.05
2282.08
2291.46
2299.36
2306.57
2313.02
2318.62
2323.32
2327.1
2329.95
2331.92
2333.04
2333.35
2332.91
2331.72
2329.77
2326.99
2323.3
2318.53
2312.54
2304.14
2239.88
2255.3
2269.05
2281.4
2292.25
2301.5
2309.12
2315.16
2319.69
2322.83
2324.74
2325.58
2325.5
2324.65
2323.1
2320.91
2318.04
2314.43
2309.95
2303.8
2198.4
2220.24
2240.08
2257.74
2273.08
2286
2296.52
2304.73
2310.81
2314.98
2317.52
2318.72
2318.88
2318.26
2317.09
2315.5
2313.56
2311.21
2308.34
2304.48
2158.26
2187.01
2213.24
2236.4
2256.32
2272.9
2286.22
2296.44
2303.83
2308.76
2311.63
2312.91
2313.03
2312.43
2311.49
2310.47
2309.49
2308.52
2307.33
2305.62
2118.35
2155.45
2189
2218.34
2243.25
2263.67
2279.72
2291.67
2299.94
2305.05
2307.61
2308.27
2307.7
2306.56
2305.43
2304.78
2304.89
2305.75
2306.9
2307.21
3602.92
3592.27
3539.98
3462.66
3361
3236.28
3090.37
2925.78
2744.37
2525.46
3449.74
3442.44
3400.49
3338.9
3259.07
3162.76
3052.1
2929.42
2795.58
2608.81
3312.19
3308.16
3275.93
3228.14
3165.7
3089.76
3001.81
2903.65
2796.26
2645.21
3187.33
3185.69
3161.19
3124.6
3076.52
3017.71
2949.19
2872.28
2787.34
2667.08
3072.78
3072.93
3054.56
3026.94
2990.39
2945.37
2892.56
2832.89
2766.31
2672.33
2966.61
2968.14
2954.73
2934.36
2907.17
2873.38
2833.39
2787.81
2736.3
2664.02
2867.23
2869.86
2860.51
2846.11
2826.63
2802.08
2772.64
2738.66
2699.64
2645.05
2773.32
2776.86
2770.89
2761.47
2748.43
2731.6
2710.95
2686.64
2658.05
2617.86
2683.74
2688.06
2684.97
2679.79
2672.21
2661.93
2648.73
2632.58
2612.81
2584.4
2597.52
2602.54
2601.94
2600.43
2597.59
2592.98
2586.21
2577.08
2564.87
2546.2
2513.79
2519.46
2521.08
2522.83
2524.19
2524.59
2523.49
2520.53
2514.94
2504.47
2431.78
2438.08
2441.71
2446.42
2451.6
2456.55
2460.59
2463.19
2463.54
2460.15
2350.76
2357.7
2363.19
2370.66
2379.42
2388.62
2397.45
2405.22
2411.06
2413.96
2270.07
2277.66
2284.91
2295.03
2307.23
2320.53
2333.97
2346.71
2357.78
2366.49
2189.06
2197.31
2206.26
2218.99
2234.59
2251.97
2269.99
2287.66
2303.93
2318.21
2107.12
2116.01
2126.6
2141.97
2161.07
2182.62
2205.35
2228.08
2249.66
2269.55
2023.69
2033.06
2045.26
2063.39
2086.16
2112.13
2139.83
2167.93
2195.14
2220.87
1938.38
1947.63
1961.45
1982.59
2009.37
2040.12
2073.21
2107.14
2140.48
2172.58
1851.34
1858.58
1874.26
1898.91
1930.21
1966.27
2005.32
2045.71
2085.87
2125.06
1758.5
1755.16
1774.19
1803.5
1840.28
1882.78
1929.28
1977.94
2026.98
2075.59
)
;

boundaryField
{
    left
    {
        type            symmetryPlane;
    }
    right
    {
        type            calculated;
        value           nonuniform List<scalar> 
30
(
3307.93
3307.04
3279.63
3237.72
3184.47
3122.09
3052.83
2979.01
2902.95
2825.88
2755.65
2692.05
2631.9
2576.41
2526.11
2481.36
2442.32
2408.95
2381.09
2358.41
2340.5
2326.88
2317
2310.32
2306.28
2304.35
2304.01
2304.72
2305.93
2307.32
)
;
    }
    down
    {
        type            symmetryPlane;
    }
    up
    {
        type            calculated;
        value           nonuniform List<scalar> 
30
(
1762.66
1761.27
1780.18
1809.17
1845.69
1887.96
1934.21
1982.6
2031.36
2079.41
2121.73
2158.45
2191.61
2220.6
2245.19
2265.33
2281.13
2292.86
2300.94
2305.89
2308.31
2308.84
2308.16
2306.91
2305.66
2304.89
2304.9
2305.7
2306.94
2307.74
)
;
    }
    hole
    {
        type            calculated;
        value           nonuniform List<scalar> 
20
(
2705.78
3489.74
4244.18
4950.95
5592.97
6154.57
6621.72
6981.94
7223.26
7343.61
-2733.74
-2653.2
-2409.16
-2041.54
-1566.08
-996.334
-346.908
366.002
1124.84
1911.11
)
;
    }
    frontAndBack
    {
        type            empty;
    }
}


// ************************************************************************* //
