/*--------------------------------*- C++ -*----------------------------------*\
  =========                 |
  \\      /  F ield         | OpenFOAM: The Open Source CFD Toolbox
   \\    /   O peration     | Website:  https://openfoam.org
    \\  /    A nd           | Version:  9
     \\/     M anipulation  |
\*---------------------------------------------------------------------------*/
FoamFile
{
    format      ascii;
    class       volSymmTensorField;
    location    "140";
    object      sigma;
}
// * * * * * * * * * * * * * * * * * * * * * * * * * * * * * * * * * * * * * //

dimensions      [1 -1 -2 0 0 0 0];

internalField   nonuniform List<symmTensor> 
1000
(
(7760.26 -5590.05 -7.19843e-14 4577.05 6.05592e-14 2847.07)
(10956.5 -4256.4 -1.13563e-13 1142.47 8.15498e-14 2792.07)
(12582 -3363.08 1.41184e-13 -719.02 -2.36403e-14 2737.61)
(13411.6 -2728.68 2.26853e-14 -1738.25 -1.92192e-14 2693.86)
(13804.2 -2261.93 -1.31804e-13 -2285.64 -1.80825e-14 2658.13)
(13947.2 -1908.65 -1.03028e-15 -2557.41 7.08338e-15 2628.41)
(13944.4 -1634.94 -1.53803e-13 -2664.18 -8.51369e-14 2603.13)
(13855.9 -1418.49 9.22772e-14 -2672.64 5.86688e-14 2580.75)
(13726.5 -1240.29 -9.27385e-14 -2626.26 -3.05259e-14 2561.59)
(13555.6 -1012.6 0 -2547.3 0 2540.37)
(10761.3 -6883.16 -1.17672e-13 5154.94 1.80668e-14 3672.97)
(13195 -4614.93 0 1842.83 0 3470.26)
(14323.8 -3208.01 1.3287e-13 22.3486 6.68356e-14 3310.65)
(14800.5 -2293.22 -2.2895e-13 -1009.31 -1.22582e-13 3182.59)
(14933.1 -1676.72 -9.894e-14 -1593.99 -5.59e-14 3078.26)
(14878.9 -1249 8.51157e-14 -1913.72 5.5086e-14 2991.96)
(14723.2 -944.511 7.7843e-14 -2071.94 4.44753e-14 2919.52)
(14515.2 -721.631 1.6276e-13 -2131.27 1.00919e-13 2857.83)
(14291.8 -549.785 0 -2129.36 0 2806.72)
(14046.5 -356.723 0 -2068.79 0 2764.1)
(14081.2 -7848.09 0 5279.08 0 4467.75)
(15491.1 -4808.43 0 2374.64 0 4122.87)
(15981.6 -2982.08 1.2911e-13 754.135 6.69682e-14 3862.09)
(16030.4 -1842.32 -2.53523e-14 -201.046 1.1984e-14 3652.92)
(15865.3 -1109.02 -1.8945e-16 -773.902 1.06344e-16 3482.63)
(15597.8 -626.383 -8.20313e-14 -1115.98 -5.30337e-14 3341.95)
(15285.6 -302.843 7.18047e-14 -1314.18 4.36476e-14 3224.17)
(14960.7 -82.2452 -6.84306e-14 -1421.52 -3.96879e-14 3124.42)
(14647 72.97 1.56557e-14 -1469.73 -4.12902e-15 3040.92)
(14335.8 230.444 -1.10679e-14 -1456.17 -1.5116e-14 2972.22)
(17575.2 -8373.81 -7.25429e-14 5011.42 6.89516e-15 5212.31)
(17767.6 -4803.47 6.10715e-14 2746.56 -1.57272e-14 4734.04)
(17517.2 -2694.94 -6.26569e-14 1455.89 -3.1928e-14 4378.42)
(17086.7 -1409.49 -2.37609e-14 650.703 7.37743e-15 4093.26)
(16600.6 -605.469 8.16043e-14 131.009 5.71228e-14 3861.13)
(16112 -94.533 -8.28039e-14 -211.114 -4.73938e-14 3669.42)
(15644 232.789 -7.34442e-14 -438.511 -4.2521e-14 3508.96)
(15206.8 442.701 -1.64712e-13 -590.344 -9.54888e-14 3373.03)
(14808.7 578.646 -4.34901e-14 -690.451 -1.23543e-14 3258.05)
(14434.6 704.119 4.55973e-14 -732.821 1.76502e-14 3161.95)
(21070.3 -8383.94 -4.41704e-14 4447.14 5.8301e-16 5888.65)
(19939.2 -4579.62 -1.59988e-15 2979.02 1.74712e-16 5288.83)
(18896.5 -2356.99 -1.91422e-13 2107 -8.57687e-14 4846.96)
(17965.2 -1021.88 1.11628e-14 1503.3 -1.66161e-15 4492.74)
(17152.2 -202.137 -1.28317e-14 1066.98 1.71212e-15 4204.43)
(16444.9 306.228 7.52138e-14 742.378 4.34838e-14 3966.29)
(15827.4 621.029 1.10911e-15 495.667 -1.12756e-15 3766.87)
(15285.8 813.212 5.9669e-14 304.465 3.71617e-14 3597.76)
(14811.5 928.977 -5.78087e-14 154.499 -1.78418e-15 3453.7)
(14383.3 1025.35 -4.41426e-14 54.0234 -2.40717e-14 3331.7)
(24377.3 -7844.81 -1.38924e-13 3703.77 1.09604e-14 6480.26)
(21917.9 -4132.16 -1.41658e-15 3100.63 -7.68588e-17 5773.51)
(20089.5 -1978.91 8.6152e-16 2687.09 2.42299e-17 5256.14)
(18669.9 -698.08 9.939e-15 2310.17 2.56735e-16 4841.55)
(17543.8 78.624 -8.75504e-14 1974.07 -4.24268e-14 4504.12)
(16631.2 552.145 2.28161e-16 1678.64 1.05274e-16 4225.34)
(15876.7 838.157 6.75184e-14 1420.88 3.45312e-14 3991.75)
(15242 1006.22 1.54078e-13 1196.27 7.51468e-14 3793.46)
(14702.2 1101.33 2.728e-14 1000.77 1.4055e-14 3623.77)
(14229.8 1172.25 -5.60644e-14 844.156 -2.16639e-14 3478.61)
(27305 -6769.82 1.70424e-13 2908.13 -1.47455e-14 6972.27)
(23618.2 -3473.83 3.8209e-14 3143.48 9.73251e-15 6175.78)
(21071.7 -1571.62 6.08956e-14 3176.57 2.04074e-14 5595.75)
(19210.6 -447.086 -9.09499e-15 3024.33 -2.15081e-15 5131.14)
(17804.8 229.339 7.45201e-14 2791.36 3.12587e-14 4752.96)
(16711.4 636.906 -6.96224e-14 2530.33 -2.78828e-14 4440.4)
(15838.5 878.734 -1.50084e-15 2267.64 8.86997e-15 4178.35)
(15125.4 1016.85 -5.80401e-14 2015.98 -2.53837e-14 3955.7)
(14532.1 1091.16 7.14215e-15 1781.16 -6.79976e-15 3764.6)
(14025.4 1140.88 -2.74305e-14 1574.13 -1.844e-14 3599.89)
(29673.1 -5219.7 2.98155e-13 2181.88 -2.33149e-14 7351.15)
(24963.4 -2635.71 -1.50606e-13 3138.14 -2.92773e-14 6484.96)
(21823.7 -1147.45 8.17257e-16 3558.01 4.15798e-16 5857.33)
(19599.8 -270.14 1.30283e-14 3603.28 6.99344e-15 5354.56)
(17965.6 255.027 1.56703e-13 3463.23 4.63301e-14 4945.11)
(16726.1 569.003 -2.75355e-15 3235.4 -4.61298e-15 4606.5)
(15759 753.113 1.63354e-17 2971.52 -2.16472e-16 4322.43)
(14984.8 856.348 -5.41526e-14 2699.13 -2.23216e-14 4080.91)
(14351.1 910.091 -2.50296e-15 2432.71 3.60125e-15 3873.19)
(13819.7 943.07 2.3091e-15 2184.22 6.46525e-15 3693.22)
(31321.5 -3298.55 1.75526e-13 1628.06 -2.0966e-14 7603.74)
(25890 -1671.11 -1.60607e-13 3111.94 -2.85068e-14 6692.75)
(22330.5 -728.654 1.19345e-14 3820.75 1.26091e-14 6034.9)
(19848.7 -171.936 1.19406e-14 4015.03 1.33163e-14 5507.01)
(18052.8 161.042 -4.79545e-15 3945.36 -7.08255e-15 5076.51)
(16711 359.711 6.71714e-14 3743.07 8.38141e-15 4720.17)
(15678.9 475.992 -1.87298e-16 3479.04 5.9036e-15 4421.05)
(14863.4 541.199 1.08527e-13 3191.86 2.27605e-14 4166.59)
(14203.2 575.386 2.45409e-14 2902.37 5.21957e-15 3947.44)
(13656.8 596.151 1.88611e-14 2623.41 -1.20232e-14 3756.97)
(32167.5 -1148.25 1.89463e-13 1335.05 -2.93184e-14 7731.36)
(26378.9 -684.975 -5.77522e-15 3111.35 -2.10613e-14 6805.43)
(22563.8 -388.142 6.24535e-14 3962 1.65362e-14 6121.35)
(19927 -204.075 2.77382e-15 4225.25 1.00114e-14 5573.6)
(18038.1 -89.4939 -7.09146e-17 4185.57 -3.34504e-16 5128.54)
(16639.9 -17.4301 6.71457e-14 3992.39 -2.94924e-15 4761.29)
(15573.6 28.1417 -4.10028e-17 3725.95 6.50065e-15 4453.75)
(14738.1 56.9899 5.32771e-14 3429.77 2.3768e-15 4192.58)
(14067.2 75.5391 1.04617e-15 3127.01 -8.15309e-15 3967.89)
(13517.9 89.1581 -3.66897e-16 2829.45 -5.09569e-15 3772.46)
(-481.176 431.185 6.5639e-15 -11969.6 -6.71255e-14 -2873.25)
(-497.351 162.972 8.23379e-15 -7832.44 5.22748e-15 -1922.26)
(-107.45 -43.0443 -6.85148e-15 -5245.12 -1.62651e-14 -1235.21)
(604.234 -166.641 0 -3569.19 0 -684.22)
(1427.37 -233.476 -1.32065e-14 -2452.27 -1.76704e-15 -236.517)
(2259.74 -266.309 -4.3325e-15 -1683.55 -1.03716e-14 132.968)
(3054.49 -279.301 2.27778e-14 -1136.68 5.48728e-16 442.572)
(3792.41 -280.834 1.04333e-14 -734.061 -7.18036e-15 705.774)
(4468.16 -276.084 1.94757e-14 -426.843 3.21569e-15 932.611)
(5082.88 -269.838 5.9418e-15 -183.878 8.92618e-15 1130.54)
(-572.758 1056.17 -3.61819e-15 -11545.5 -6.18689e-14 -2796.53)
(-336.354 -186.215 1.82885e-14 -7555.78 3.19747e-14 -1821.26)
(175.135 -843.933 -1.70236e-14 -5185.48 -2.07081e-14 -1156.23)
(940.845 -1179.54 -3.98799e-15 -3644.42 -3.76873e-15 -623.901)
(1779.06 -1336.28 0 -2602.69 0 -190.069)
(2606.96 -1391.56 -2.03501e-14 -1874.42 -1.18899e-14 169.046)
(3387.44 -1389.49 2.31691e-14 -1347.95 1.63424e-15 470.651)
(4106.01 -1355.77 1.01001e-16 -953.615 1.96571e-18 727.477)
(4759.1 -1305.71 -7.04048e-14 -646.783 3.82969e-16 948.996)
(5345.85 -1255.85 9.05288e-15 -398.078 4.56957e-15 1141.79)
(-657.076 1526.76 -4.56632e-15 -10357.2 -3.64934e-14 -2541.76)
(28.2843 -449.062 2.65398e-14 -7023.95 3.79593e-14 -1614.38)
(767.024 -1471.56 2.37601e-14 -5008.48 1.63096e-14 -978.796)
(1635.17 -1980.31 -2.9931e-15 -3676.99 -6.05616e-15 -471.19)
(2506.41 -2210.59 0 -2759.63 0 -58.4353)
(3328.7 -2285.08 -3.53039e-14 -2103.59 -1.46517e-14 282.718)
(4082.68 -2271.94 -4.77811e-14 -1617.27 -1.84488e-14 568.942)
(4763.87 -2210.47 4.18737e-14 -1243.24 1.11105e-14 812.452)
(5374.01 -2123.94 2.0425e-17 -944.621 -1.83448e-19 1022.17)
(5912.25 -2039.09 -4.24822e-14 -697.039 -8.08918e-15 1203.51)
(-688.784 1720.1 1.92977e-14 -8647.18 4.24454e-14 -2154.45)
(605.463 -742.816 1.80687e-15 -6248.87 -1.77948e-14 -1302.32)
(1640.58 -2010.66 3.26189e-14 -4742.19 1.78879e-14 -715.757)
(2633.63 -2631.8 0 -3703.9 0 -246.986)
(3539.88 -2904.41 -4.45589e-14 -2959.19 -1.12725e-14 134.005)
(4348.25 -2983.85 2.21471e-14 -2404.15 1.00041e-14 448.638)
(5061.9 -2955.53 -1.98172e-14 -1975 -3.29364e-15 712.361)
(5689.24 -2868.19 -3.91406e-14 -1631.1 -1.68251e-15 936.493)
(6239.02 -2750.62 1.71439e-14 -1346.28 6.11451e-15 1129.09)
(6709.68 -2639.09 3.25328e-14 -1103.13 1.10458e-14 1293.82)
(-585.902 1560.08 -3.94212e-14 -6578.14 -3.83898e-15 -1653.24)
(1399.13 -1106.53 -5.43114e-14 -5278.97 1.38536e-14 -895.348)
(2766.02 -2470.42 -4.04034e-14 -4384.45 -2.1393e-14 -373.482)
(3890.7 -3126.4 -2.21856e-16 -3699.91 2.0373e-14 44.029)
(4824.9 -3401.73 8.79005e-17 -3163.44 1.88415e-16 383.414)
(5606.37 -3467.65 4.63244e-14 -2730.92 1.47457e-14 663.565)
(6264.37 -3418.01 2.52725e-14 -2372.25 9.53859e-15 898.182)
(6821.93 -3305.97 0 -2066.85 0 1097.32)
(7295.46 -3162.9 -5.36465e-14 -1801.22 -7.04199e-15 1267.9)
(7682.03 -3033.69 1.74419e-14 -1566.36 6.47785e-15 1411.31)
(-248.264 1015.79 -1.89611e-14 -4314.23 -1.26676e-13 -1052.88)
(2419.38 -1551.07 1.78883e-14 -4176.47 -4.55717e-14 -405.482)
(4106.72 -2846.32 -4.1692e-14 -3938.29 -3.98836e-14 38.8669)
(5347.55 -3450.09 2.03317e-15 -3637.49 -1.08836e-14 394.63)
(6292.48 -3683.78 7.6323e-14 -3329 3.16076e-14 683.878)
(7029.93 -3715.79 -5.82398e-14 -3032.17 -1.88832e-14 922.558)
(7616.26 -3638.28 1.08214e-16 -2753.15 2.84019e-17 1122.26)
(8089.37 -3503.11 -6.66733e-14 -2492.94 -2.19968e-14 1291.48)
(8473.3 -3340.78 1.77447e-17 -2251.76 -5.87695e-19 1435.74)
(8763.32 -3203.54 -5.52502e-14 -2030.14 -2.11498e-14 1553.81)
(424.978 101.638 2.64679e-14 -2022.84 -4.86189e-14 -368.736)
(3676.11 -2068.58 5.39957e-16 -3007.93 -1.00419e-15 154.196)
(5623.03 -3133.06 4.6846e-16 -3410.75 -9.42021e-16 510.526)
(6939.46 -3598.03 -9.11428e-14 -3490.38 -5.63451e-14 795.94)
(7866.34 -3745.73 4.58853e-17 -3411.65 1.5681e-14 1028.01)
(8538.48 -3723.59 -7.61842e-14 -3254.34 -3.28374e-14 1219.42)
(9036.87 -3611.96 1.36857e-13 -3059.52 5.77299e-14 1379.39)
(9412.78 -3455.62 7.5599e-17 -2849.27 4.20209e-18 1514.66)
(9696.85 -3280.78 1.44161e-14 -2637.53 1.21422e-14 1629.07)
(9882.38 -3145.28 -4.16284e-14 -2435.11 -1.72613e-14 1718.6)
(1520.64 -1124.68 1.22273e-13 135.734 -3.19027e-14 382.241)
(5172.64 -2636.3 3.39424e-14 -1838.3 -4.87508e-14 769.463)
(7272.96 -3327.32 -1.20589e-14 -2811.7 1.84045e-14 1029.52)
(8600.97 -3577.26 5.83347e-15 -3236.86 -1.12339e-14 1237.87)
(9470.17 -3599.96 -1.38602e-16 -3372 7.12481e-16 1407.27)
(10052 -3505.96 7.63682e-14 -3348.59 2.81315e-14 1546.94)
(10446.5 -3354.84 -1.26008e-14 -3237.85 -4.46153e-15 1663.53)
(10715 -3179.34 1.83454e-14 -3080.22 9.13384e-16 1761.88)
(10892.6 -2998.62 1.30634e-14 -2902.07 -8.7393e-16 1843.98)
(10970.1 -2874.16 4.25356e-14 -2724.74 9.93783e-15 1902.77)
(3099.22 -2567.73 4.53577e-14 2021.09 8.13878e-14 1181.61)
(6901.46 -3219.61 3.29252e-15 -726.362 1.09522e-13 1425.02)
(9012.63 -3428.49 7.69607e-16 -2153.4 -9.22421e-16 1582.9)
(10269.7 -3406.04 1.17445e-13 -2862.3 4.22337e-14 1709.39)
(11033.1 -3274.98 9.63368e-14 -3180.08 4.83057e-14 1812.23)
(11497.1 -3096.58 8.57432e-14 -3276.66 4.20226e-14 1897.02)
(11773 -2902.45 1.14581e-14 -3245.73 4.48929e-15 1967.84)
(11927.9 -2709.15 -1.03881e-13 -3141.43 -5.02763e-14 2027.65)
(11998.9 -2527.17 3.94853e-14 -2999.85 3.21037e-14 2076.7)
(11972.2 -2422.11 2.81589e-14 -2851.66 1.35404e-14 2104.73)
(5185.14 -4103.28 -8.32222e-15 3524.43 8.42672e-15 2009.9)
(8841.48 -3775.48 -2.65392e-14 279.131 2.40859e-14 2104.76)
(10797.2 -3438.84 -6.22237e-14 -1450.34 -3.41908e-14 2156.96)
(11889.1 -3111.9 2.53092e-13 -2361.16 8.55719e-14 2198.75)
(12493.8 -2812.33 1.24116e-16 -2818.76 -2.02814e-16 2232.7)
(12811.5 -2544.62 -8.80215e-14 -3015.13 -4.65298e-14 2260.69)
(12955.5 -2307.94 -6.52983e-14 -3057.07 -3.54923e-14 2284.25)
(12994 -2099.25 -3.65886e-14 -3006.06 -1.8333e-14 2304.91)
(12968 -1915.57 -3.21026e-14 -2902.71 3.55024e-15 2322.77)
(12876 -1824.85 6.64393e-14 -2791.12 6.72247e-15 2327.28)
(5624.7 -251.065 4.87645e-14 10.2161 3.10329e-15 1300.37)
(6117.62 -222.797 3.75945e-15 191.867 5.65139e-15 1456.03)
(6561.13 -199.904 -7.83758e-14 355.142 2.44671e-15 1596.06)
(6963.02 -179.505 -2.80573e-14 507.095 -1.25147e-16 1723.87)
(7328.23 -161.094 -4.6755e-15 653.278 -8.09671e-15 1841.89)
(7660.85 -144.373 0 798.156 0 1952.08)
(7964.36 -129.108 0 945.339 0 2056.08)
(8241.72 -115.077 3.18197e-14 1097.85 2.51523e-16 2155.29)
(8495.43 -102.057 1.39136e-15 1258.34 2.3051e-15 2250.87)
(8727.5 -89.8217 6.59377e-14 1429.3 6.90589e-16 2343.88)
(8939.53 -78.1401 3.77089e-15 1613.17 5.79504e-15 2435.24)
(9132.7 -66.7758 -1.42732e-15 1812.51 -1.68973e-15 2525.82)
(9307.71 -55.4801 3.35457e-15 2030.05 4.18663e-15 2616.41)
(9464.85 -43.9851 -1.03048e-13 2268.84 -1.80013e-15 2707.77)
(9603.88 -31.9958 3.34271e-14 2532.33 3.12785e-17 2800.66)
(9724.04 -19.2129 1.22975e-16 2824.4 2.77246e-18 2895.79)
(9823.97 -5.53022 -3.4168e-14 3149.3 -8.75396e-16 2993.83)
(9901.97 8.05827 3.37452e-14 3510.76 9.69567e-16 3095.24)
(9956.93 16.615 -6.49143e-14 3908.93 -7.2002e-15 3199.81)
(10016.1 6.65344 -3.33941e-14 4339.19 2.55232e-15 3312.76)
(5846.69 -1163.38 7.9018e-14 -185.841 3.83383e-15 1306.35)
(6302.77 -1039.39 1.12335e-14 24.5566 6.40711e-15 1460.15)
(6711.53 -938.019 -2.23206e-14 208.622 2.68447e-15 1596.96)
(7086.09 -847.889 9.67859e-14 377.994 7.45498e-15 1722.48)
(7429.08 -767.538 -2.40611e-15 538.794 -2.8608e-15 1838.74)
(7743.38 -695.793 -9.67168e-14 695.924 -4.58729e-15 1947.53)
(8031.65 -631.544 9.39701e-15 853.313 5.58823e-15 2050.38)
(8296.22 -573.713 0 1014.24 0 2148.57)
(8539.14 -521.261 3.46886e-15 1181.57 2.47071e-15 2243.24)
(8762.08 -473.187 7.96729e-15 1357.97 4.67215e-15 2335.4)
(8966.36 -428.522 5.03814e-14 1546 1.16647e-14 2425.93)
(9152.94 -386.316 7.15927e-16 1748.32 4.76751e-17 2515.67)
(9322.42 -345.612 -2.89696e-14 1967.72 1.45564e-15 2605.42)
(9475.02 -305.436 3.41275e-14 2207.27 1.76957e-15 2695.91)
(9610.58 -264.781 3.46984e-14 2470.38 2.04587e-15 2787.91)
(9728.57 -222.646 -3.41059e-14 2760.91 -2.2758e-15 2882.19)
(9828.16 -178.13 -3.40591e-14 3083.34 -2.58349e-15 2979.58)
(9907.95 -130.463 -6.73117e-14 3443.46 -5.80929e-15 3081.09)
(9964.51 -78.0682 -6.03429e-16 3850.77 -1.76432e-17 3188.14)
(10023.9 -15.0047 1.99054e-14 4337.67 1.46422e-14 3314.22)
(6342.01 -1891.75 2.68696e-14 -469.679 1.24913e-15 1355.15)
(6726.59 -1700.21 1.08076e-14 -224.093 3.97781e-15 1500.57)
(7063.23 -1542.12 -8.66851e-14 -12.8423 -2.87472e-15 1627.01)
(7378.24 -1399.96 1.8086e-14 181.045 -2.89352e-15 1744.45)
(7671.72 -1272.01 1.07321e-13 363.359 9.72445e-15 1854.25)
(7944.7 -1156.92 -1.00729e-13 539.025 -6.41214e-15 1957.78)
(8198.34 -1053.26 -3.4009e-14 712.151 -1.35239e-15 2056.27)
(8433.76 -959.558 6.48423e-14 886.245 2.67305e-15 2150.77)
(8652.04 -874.295 -5.15554e-14 1064.41 2.73443e-15 2242.26)
(8854.07 -795.968 -6.81147e-14 1249.5 -3.64649e-15 2331.59)
(9040.58 -723.085 6.54212e-14 1444.27 3.78567e-15 2419.58)
(9212.07 -654.16 1.00645e-13 1651.48 6.66813e-15 2506.97)
(9368.79 -587.693 7.37381e-16 1874.01 8.07767e-17 2594.49)
(9510.72 -522.149 -3.40692e-14 2114.98 -2.89276e-15 2682.85)
(9637.53 -455.941 3.34856e-14 2377.82 3.20864e-15 2772.77)
(9748.55 -387.403 1.1776e-16 2666.52 1.2845e-17 2865.02)
(9842.57 -314.689 -3.38218e-14 2985.88 -4.20096e-15 2960.41)
(9917.39 -235.269 2.92598e-14 3342.28 5.37894e-15 3059.92)
(9968.77 -144.159 1.41545e-14 3744.78 1.24341e-14 3164.67)
(10023.5 -28.62 2.50314e-17 4218.78 -1.9341e-17 3286.68)
(7044.2 -2454.56 0 -858.344 0 1427.51)
(7330.31 -2222.11 1.35224e-14 -570.082 4.90835e-15 1560.05)
(7568.82 -2028.98 3.08582e-14 -324.15 1.79343e-15 1671.85)
(7801.15 -1852.88 3.51227e-14 -98.2703 2.07828e-15 1777.59)
(8024.96 -1692.21 0 112.853 0 1877.96)
(8239.16 -1545.94 -2.05458e-14 313.864 2.40584e-15 1973.77)
(8443.11 -1412.84 -5.20498e-14 508.857 -9.26358e-15 2065.84)
(8636.44 -1291.47 -6.54083e-14 701.487 -3.91898e-15 2154.91)
(8818.92 -1180.22 -1.20262e-14 895.061 -3.72965e-15 2241.69)
(8990.45 -1077.38 5.01511e-14 1092.65 -1.25491e-15 2326.87)
(9150.89 -981.183 1.76554e-14 1297.19 -2.89276e-15 2411.09)
(9300.08 -889.799 1.75054e-14 1511.58 5.41573e-15 2495)
(9437.73 -801.338 -1.09159e-14 1738.81 3.32883e-15 2579.2)
(9563.4 -713.818 2.62148e-14 1982.03 1.98399e-15 2664.33)
(9676.41 -625.119 2.72633e-14 2244.74 3.02852e-15 2751.03)
(9775.71 -532.899 -3.35135e-14 2530.92 -4.98782e-15 2839.99)
(9859.76 -434.352 -1.04876e-16 2845.32 -1.7792e-17 2931.94)
(9926.2 -325.546 9.37e-14 3193.8 1.9636e-14 3027.69)
(9971.33 -199.442 -2.66137e-14 3583.57 -8.39578e-15 3128.05)
(10022.2 -39.5441 -3.57853e-14 4036.78 -2.03616e-14 3244.39)
(7905.44 -2831.2 3.69058e-14 -1305.2 -4.14008e-15 1523.13)
(8072.35 -2588.3 -1.88054e-14 -976.927 -6.48823e-15 1637.41)
(8195.26 -2384.46 -8.38182e-14 -695.156 -1.19736e-14 1730.79)
(8328.66 -2194.9 4.46244e-14 -435.242 7.58652e-15 1821.56)
(8468.21 -2018.56 1.13494e-13 -192.401 2.09818e-14 1909.8)
(8610.6 -1855.21 -3.46182e-14 37.3092 -2.68306e-15 1995.67)
(8753.28 -1704.34 0 257.63 0 2079.44)
(8894.28 -1564.98 3.31103e-14 472.117 2.66033e-15 2161.48)
(9031.97 -1435.82 -3.37688e-14 684.129 -1.19428e-14 2242.18)
(9165.06 -1315.27 -4.52527e-14 896.849 -7.05083e-15 2321.98)
(9292.45 -1201.56 -4.39928e-14 1113.33 2.55896e-16 2401.34)
(9413.18 -1092.75 -5.90215e-14 1336.59 -4.9912e-15 2480.72)
(9526.31 -986.724 6.77029e-14 1569.66 3.90337e-15 2560.61)
(9630.87 -881.172 9.1214e-14 1815.7 1.21724e-14 2641.52)
(9725.75 -773.535 9.05315e-15 2078.14 2.01315e-15 2723.98)
(9809.61 -660.872 -2.44561e-14 2360.78 -4.63122e-15 2808.55)
(9880.75 -539.583 1.5982e-14 2667.98 1.74259e-15 2895.86)
(9936.96 -404.709 7.61709e-15 3004.77 2.07138e-16 2986.55)
(9975.03 -247.774 7.76043e-14 3377.01 1.68374e-14 3081.24)
(10021.2 -49.1995 2.98594e-14 3805.7 3.18002e-14 3190.82)
(8870.23 -3002.99 3.25404e-14 -1758.44 2.96474e-15 1641.18)
(8905.95 -2782.67 1.98467e-15 -1404.49 4.06554e-16 1731.1)
(8905.84 -2593.95 -5.47003e-14 -1092.84 -1.16725e-14 1803)
(8931.76 -2413 -1.40977e-13 -802.755 -2.5173e-14 1875.92)
(8978.58 -2239.51 4.74154e-14 -530 9.12435e-15 1949.67)
(9040.96 -2074.62 7.02693e-14 -271.958 7.16978e-15 2023.62)
(9114.66 -1918.95 -3.38657e-14 -25.7593 -3.37564e-15 2097.44)
(9196.14 -1772.45 1.72247e-14 211.66 -2.03373e-15 2171.03)
(9282.47 -1634.49 7.95145e-14 443.422 1.89428e-14 2244.44)
(9371.15 -1503.96 -9.79344e-14 672.616 -1.12225e-14 2317.79)
(9460.09 -1379.35 -3.60013e-14 902.276 -4.72938e-15 2391.31)
(9547.47 -1258.84 1.40679e-13 1135.39 1.5222e-14 2465.28)
(9631.69 -1140.29 -2.37559e-14 1374.96 -1.18914e-14 2539.99)
(9711.21 -1021.22 -9.81244e-14 1624.03 -1.68392e-14 2615.83)
(9784.53 -898.787 -2.22961e-14 1885.85 -3.79221e-15 2693.16)
(9850.05 -769.593 -8.62657e-14 2163.85 -1.84739e-14 2772.44)
(9906 -629.453 -1.28087e-15 2461.84 -2.60124e-16 2854.12)
(9950.35 -472.645 1.04531e-13 2784.05 2.79927e-14 2938.71)
(9980.21 -289.533 2.33527e-14 3135.23 1.05514e-14 3026.64)
(10020.2 -57.7418 5.16173e-15 3535.11 -2.3027e-15 3128.15)
(9877.73 -2964.94 -3.50143e-14 -2163.92 -4.57596e-15 1780.11)
(9780.4 -2799.3 3.59546e-14 -1810.58 6.64652e-15 1839.19)
(9660.58 -2650.45 2.53325e-14 -1482.44 9.47195e-15 1887.26)
(9578.78 -2499.83 -3.64966e-14 -1172.18 -5.39309e-15 1939.99)
(9530.95 -2347.84 -4.05642e-14 -876.189 -1.52961e-14 1997.25)
(9510.34 -2197.3 1.92398e-14 -594.061 7.13921e-15 2057.6)
(9511.46 -2050.33 7.44557e-14 -324.494 1.84542e-14 2120.07)
(9529.59 -1908.13 -1.22576e-13 -65.4551 -2.79614e-14 2184.03)
(9560.64 -1771.08 -7.55652e-14 185.526 -1.80042e-14 2249.11)
(9601.09 -1638.82 1.16409e-13 431.139 2.61103e-14 2315.13)
(9647.92 -1510.41 -2.99082e-14 674.157 -1.00812e-14 2382.02)
(9698.52 -1384.38 9.6825e-14 917.373 1.55079e-14 2449.82)
(9750.62 -1258.76 6.20574e-14 1163.58 1.47059e-14 2518.66)
(9802.18 -1131.12 -8.18807e-14 1415.61 -1.4778e-14 2588.72)
(9851.33 -998.468 2.37056e-14 1676.32 3.52381e-15 2660.23)
(9896.25 -857.149 2.68809e-15 1948.69 6.41022e-16 2733.45)
(9935.16 -702.57 -1.15987e-13 2235.84 -3.05205e-14 2808.69)
(9966.15 -528.431 3.10756e-14 2541.15 1.00155e-14 2886.3)
(9986.68 -324.145 4.09566e-14 2868.32 1.21126e-14 2966.54)
(10019.1 -65.006 3.11308e-15 3234.65 -5.51329e-16 3058.57)
(10866.7 -2727.33 2.96426e-15 -2470.58 9.08895e-16 1937.58)
(10645 -2643.1 -3.72759e-14 -2154.56 -8.52254e-15 1959.33)
(10418.6 -2554.93 -1.34619e-14 -1830.07 2.61809e-15 1981.97)
(10236.9 -2453.99 0 -1515.1 0 2012.72)
(10098.9 -2340.87 0 -1207.1 0 2051.95)
(9997.51 -2220.01 -9.44788e-14 -908.867 -2.02391e-14 2097.38)
(9926.7 -2095.08 9.69851e-14 -621.459 1.43177e-14 2147.36)
(9881.04 -1968.69 1.95225e-13 -344.52 3.44726e-14 2200.74)
(9855.69 -1842.43 -1.53667e-13 -76.735 -2.2473e-14 2256.68)
(9846.37 -1716.96 -1.2211e-13 183.785 -2.35424e-14 2314.65)
(9849.31 -1592.11 6.41682e-14 439.248 1.0773e-14 2374.28)
(9861.23 -1466.99 1.33633e-14 692.007 -3.26286e-16 2435.36)
(9879.3 -1340.02 4.87688e-14 944.473 1.57538e-14 2497.79)
(9901.02 -1208.97 1.0914e-13 1199.05 2.79359e-14 2561.56)
(9924.2 -1070.93 3.66338e-15 1458.12 9.71894e-16 2626.69)
(9946.89 -922.155 -2.27487e-14 1724.01 -7.29092e-15 2693.28)
(9967.32 -757.818 0 1999.03 0 2761.47)
(9983.76 -571.206 -2.50889e-14 2285.57 -4.42991e-15 2831.39)
(9994.13 -351.004 1.11585e-14 2586.1 1.25903e-15 2903.13)
(10017.9 -70.8043 1.05803e-14 2914.43 4.71173e-16 2984.39)
(11784.6 -2308.91 -3.46587e-15 -2631.66 -1.20708e-15 2112.22)
(11456.8 -2321.94 2.94227e-14 -2393 1.35429e-14 2091.64)
(11143.3 -2309.68 -3.15134e-14 -2096.54 -1.35853e-14 2087.71)
(10875.7 -2274.37 -3.02432e-14 -1796.29 -1.26222e-14 2095.24)
(10657.4 -2215.75 9.41825e-14 -1491.78 3.0854e-14 2115.15)
(10482.1 -2139.17 5.88418e-14 -1189.53 2.28243e-14 2144.44)
(10343.8 -2049.49 -8.19156e-14 -893.522 -2.51904e-14 2180.83)
(10237.1 -1950.64 -2.30092e-14 -605.624 5.51932e-15 2222.64)
(10156.8 -1845.47 1.94448e-14 -326.178 2.2221e-15 2268.61)
(10098.3 -1735.77 2.46907e-14 -54.5191 -3.42742e-15 2317.8)
(10057.4 -1622.3 -6.58558e-14 210.643 -2.35059e-14 2369.54)
(10030.2 -1504.92 2.09266e-15 470.946 5.77787e-16 2423.35)
(10013.6 -1382.64 -7.27487e-14 728.179 -1.351e-14 2478.88)
(10004.7 -1253.63 -3.25728e-15 984.144 -9.33567e-16 2535.88)
(10000.9 -1115.23 3.10737e-14 1240.55 9.61433e-15 2594.19)
(10000.4 -963.823 -2.31856e-15 1498.94 -6.6968e-16 2653.69)
(10001.3 -794.566 1.01558e-13 1760.62 3.51308e-14 2714.29)
(10002.4 -600.525 -1.27797e-14 2026.69 -2.71355e-15 2775.94)
(10002.1 -369.871 -1.2873e-13 2298.14 -5.29882e-14 2838.53)
(10016.6 -75.0746 -2.33678e-14 2584.4 -2.97823e-14 2907.92)
(12613.6 -1724.84 -4.93115e-15 -2614.8 -3.64309e-15 2307.4)
(12205 -1839.58 -3.29435e-14 -2457.25 -1.80095e-14 2249.47)
(11812.9 -1919.87 4.05065e-14 -2217.3 1.34975e-14 2214.36)
(11468.2 -1966.34 -1.12742e-13 -1961.47 -2.69585e-14 2193.86)
(11176.7 -1978.33 -1.09003e-13 -1687.61 -2.89815e-14 2189.79)
(10933.2 -1961.09 7.06901e-14 -1403.5 1.06619e-14 2199.17)
(10732.4 -1920.23 7.51295e-14 -1115.96 8.4074e-15 2219.17)
(10568.8 -1860.84 9.61795e-14 -829.807 2.02742e-14 2247.47)
(10437.3 -1787.06 -8.20552e-14 -547.937 -2.3081e-14 2282.17)
(10332.9 -1701.94 1.65865e-17 -271.744 -8.0889e-16 2321.8)
(10250.8 -1607.37 -1.94374e-15 -1.5505 1.54724e-15 2365.22)
(10187.1 -1504.18 -8.79763e-14 263.013 -1.96792e-14 2411.56)
(10137.9 -1392.14 0 522.689 0 2460.13)
(10100 -1270.06 -2.83142e-14 778.35 -1.27835e-14 2510.39)
(10070.9 -1135.72 -1.13502e-16 1030.78 8.10096e-17 2561.93)
(10048.3 -985.866 -5.12652e-14 1280.5 -1.59146e-14 2614.35)
(10030.8 -815.873 2.83634e-14 1527.58 9.92118e-15 2667.31)
(10017.2 -618.877 3.07124e-14 1771.54 7.55613e-15 2720.47)
(10007.2 -382.676 1.11384e-15 2011.22 7.89789e-17 2773.48)
(10013.9 -78.3676 -8.05085e-15 2249.65 -3.56207e-15 2830.05)
(13189.4 -1220.99 5.10998e-14 -2551.02 1.89011e-14 2455)
(12739.4 -1394.31 -3.47989e-14 -2337.72 -2.04529e-14 2400.39)
(12291 -1549.03 -2.28983e-14 -2168.24 -7.52332e-15 2336.01)
(11910.6 -1652.37 3.16389e-14 -1956.31 1.74985e-14 2297.15)
(11582.7 -1714.15 -4.82693e-14 -1716.89 -3.76338e-14 2276.72)
(11301.3 -1741.3 -3.45529e-14 -1459.9 -2.39735e-14 2271.1)
(11061.8 -1739.68 -5.75634e-14 -1193.34 -2.07786e-14 2277.34)
(10859.7 -1714.46 -4.03854e-15 -923.187 5.89846e-15 2293.04)
(10690.6 -1669.95 1.02108e-13 -653.541 4.10705e-14 2316.23)
(10550 -1609.48 -5.58122e-15 -386.967 -1.0988e-15 2345.32)
(10433.9 -1535.36 4.86808e-14 -124.886 2.03158e-14 2379)
(10338.3 -1448.85 -4.15885e-15 132.033 -8.78901e-16 2416.23)
(10259.7 -1350.18 0 383.563 0 2456.14)
(10195.1 -1238.61 -1.87771e-14 629.621 -7.18146e-15 2498.01)
(10141.9 -1112.41 1.78536e-14 870.037 6.4078e-15 2541.22)
(10098.2 -968.745 -1.52748e-15 1104.31 -5.13308e-16 2585.18)
(10062.5 -803.515 -9.6446e-15 1331.37 -4.756e-15 2629.36)
(10034.5 -610.418 2.97273e-16 1549.31 2.75285e-16 2673.18)
(10014.5 -377.914 -2.96512e-16 1754.94 1.18602e-16 2716.03)
(10012 -77.996 -2.91578e-16 1944.73 -7.55957e-17 2759.25)
(13105 -862.504 4.30014e-14 -2330.2 2.01152e-14 2486.49)
(12797.9 -1056.4 0 -2227.89 0 2439.24)
(12413.1 -1238.06 -3.48135e-14 -2105.08 -1.16438e-14 2378.77)
(12066.4 -1373.91 6.38037e-28 -1927.71 2.26782e-28 2339.71)
(11756.6 -1466.94 7.69531e-29 -1715.89 7.96453e-29 2317.08)
(11482.3 -1523.52 4.82047e-28 -1481.54 2.36452e-28 2307.87)
(11241.6 -1549.43 5.58928e-28 -1233.53 1.95568e-28 2309.56)
(11032 -1549.55 -3.02258e-14 -978.557 -7.57169e-15 2320.03)
(10850.8 -1527.92 0 -721.509 0 2337.53)
(10695 -1487.72 2.89157e-14 -465.766 7.17667e-15 2360.58)
(10561.5 -1431.24 -2.26239e-28 -213.579 -3.92358e-29 2387.99)
(10447.5 -1359.86 -2.78555e-14 33.5759 -7.35389e-15 2418.72)
(10350.3 -1274.06 2.74029e-14 274.674 7.64563e-15 2451.91)
(10267.3 -1173.43 2.97213e-28 508.85 1.0272e-28 2486.81)
(10196.8 -1056.65 -2.66246e-14 735.13 -8.64555e-15 2522.74)
(10137.1 -921.418 -1.82365e-28 952.168 -6.4994e-29 2559.05)
(10087.5 -764.278 2.59944e-14 1157.96 1.02674e-14 2595.1)
(10048 -579.798 2.57357e-14 1349.48 1.13638e-14 2630.19)
(10020 -357.879 -1.19637e-28 1522 -7.28646e-29 2663.53)
(10010.2 -73.5454 -3.97947e-29 1668.6 -8.65029e-29 2695.11)
(13051.8 -516.056 1.83657e-14 -2023.9 -1.34469e-15 2544.89)
(12808.4 -719.026 -1.84308e-14 -1991.07 -1.55687e-14 2496.31)
(12481.3 -916.783 -5.34533e-14 -1926.72 -2.73742e-14 2435.67)
(12169.8 -1077.09 0 -1798.45 0 2393.38)
(11879.8 -1197.66 1.45027e-14 -1627.28 -3.65978e-15 2365.96)
(11614.9 -1282.15 -4.50461e-15 -1427.2 -1.67907e-14 2351.01)
(11376 -1335.1 -4.94175e-14 -1208.28 -2.11584e-14 2346.4)
(11162.6 -1360.71 -6.62291e-14 -978.054 -3.14808e-14 2350.27)
(10973.3 -1362.57 2.98799e-14 -742.171 8.09811e-15 2361.04)
(10806.5 -1343.62 -3.45557e-14 -504.832 -1.99989e-14 2377.32)
(10660.2 -1306.05 -1.70117e-14 -269.138 -9.25325e-15 2397.93)
(10532.1 -1251.3 -3.35208e-14 -37.4217 -1.70646e-14 2421.85)
(10420.3 -1180.05 -3.30549e-14 188.443 -1.56801e-14 2448.18)
(10323 -1092.18 -1.63138e-14 406.753 -7.17952e-15 2476.11)
(10238.8 -986.802 -3.2237e-14 615.693 -1.31088e-14 2504.88)
(10166.5 -862.166 -3.18769e-14 813.06 -1.19397e-14 2533.75)
(10106 -715.507 -2.61736e-14 995.942 -1.08039e-14 2561.99)
(10057.8 -542.373 -1.56024e-14 1160.31 -4.95603e-15 2588.78)
(10023.7 -334.157 -1.54306e-14 1300.35 -4.555e-15 2613.24)
(10008.4 -68.5047 -5.08094e-15 1407.41 -4.25707e-15 2634.42)
(12925.7 -227.137 1.60561e-13 -1748.61 7.65218e-14 2579.32)
(12730.8 -425.143 1.66254e-14 -1758.79 1.48867e-14 2532.01)
(12456.9 -625.556 -8.62792e-14 -1735.79 -3.99444e-14 2474.09)
(12185.8 -798.033 1.31987e-27 -1649.19 5.40971e-28 2431.52)
(11924.2 -936.68 4.87195e-14 -1515.77 8.11707e-15 2401.94)
(11677.7 -1042.12 0 -1349.03 0 2383.54)
(11449.3 -1117 1.73188e-14 -1159.37 1.22609e-14 2374.6)
(11240.3 -1164.37 -6.15253e-14 -954.818 -1.82761e-14 2373.58)
(11050.8 -1187.08 1.47729e-27 -741.57 5.14123e-28 2379.05)
(10880.1 -1187.61 5.89137e-14 -524.429 1.73797e-14 2389.78)
(10727.3 -1167.93 -1.67682e-14 -307.157 -9.40849e-15 2404.65)
(10591.1 -1129.4 -1.89155e-28 -92.7751 -5.73206e-29 2422.68)
(10470 -1072.79 -1.14791e-27 116.136 -3.70899e-28 2442.96)
(10363.1 -998.246 1.62865e-14 317.164 7.45064e-15 2464.66)
(10269.2 -905.234 -5.56445e-28 507.784 -2.03107e-28 2487)
(10188 -792.542 -5.32826e-14 685.072 -2.0984e-14 2509.17)
(10119.6 -658.121 4.59661e-28 845.386 1.90456e-28 2530.38)
(10065 -498.521 3.64463e-14 983.964 1.90517e-14 2549.77)
(10026.6 -306.629 -1.55455e-14 1094.33 -5.10717e-15 2566.37)
(10006.9 -62.7599 -5.1245e-15 1166.47 -4.89881e-15 2578.46)
(12746.6 8.48202 2.87681e-14 -1496.48 2.83986e-14 2596.19)
(12592.5 -179.873 4.98754e-14 -1535.98 2.79719e-14 2551.5)
(12365.3 -374.703 3.1136e-14 -1541.79 2.80298e-14 2497.72)
(12133.8 -549.75 1.68815e-28 -1488.26 3.39203e-29 2456.67)
(11903.7 -697.496 6.53644e-14 -1387.85 3.78715e-14 2426.73)
(11680.7 -816.321 -1.57544e-14 -1252.13 1.93651e-15 2406.59)
(11468.8 -907.002 -1.496e-14 -1090.9 1.86596e-15 2394.9)
(11270.4 -971.248 3.31187e-14 -912.149 2.29159e-14 2390.38)
(11086.8 -1011.01 3.01668e-14 -722.286 9.5351e-15 2391.81)
(10918.3 -1028.16 4.60675e-14 -526.491 1.95196e-14 2398.1)
(10764.6 -1024.29 3.288e-14 -328.982 1.89932e-14 2408.23)
(10625.4 -1000.6 -1.21074e-14 -133.302 -5.50527e-16 2421.26)
(10500 -957.874 4.54839e-15 57.419 6.89114e-15 2436.32)
(10387.7 -896.409 1.61614e-14 240.201 7.67578e-15 2452.59)
(10288.2 -816.004 5.92383e-14 411.952 2.46688e-14 2469.27)
(10201.6 -715.933 1.59445e-14 569.188 6.64874e-15 2485.56)
(10128.2 -594.832 5.87611e-30 707.732 2.59793e-30 2500.61)
(10069.7 -450.213 5.76191e-14 822.334 2.43129e-14 2513.54)
(10028.4 -276.42 3.11273e-14 906.116 1.12219e-14 2523.36)
(10005.4 -56.4849 1.02729e-14 948.089 1.0961e-14 2527.73)