/*--------------------------------*- C++ -*----------------------------------*\
  =========                 |
  \\      /  F ield         | OpenFOAM: The Open Source CFD Toolbox
   \\    /   O peration     | Website:  https://openfoam.org
    \\  /    A nd           | Version:  9
     \\/     M anipulation  |
\*---------------------------------------------------------------------------*/
FoamFile
{
    format      ascii;
    class       volScalarField;
    location    "140";
    object      sigmaEq;
}
// * * * * * * * * * * * * * * * * * * * * * * * * * * * * * * * * * * * * * //

dimensions      [1 -1 -2 0 0 0 0];

internalField   nonuniform List<scalar> 
1000
(
10600.9
11713.2
13297.3
14295.2
14803
14987.8
14970.9
14832.3
14632.4
14364.4
13567.2
13301.8
14113.5
14731.8
15039.6
15111.5
15027.8
14849.5
14624.3
14337.3
16433.3
14883.9
14862.3
15031.3
15094.5
15029.7
14869
14648.9
14401.9
14114.7
19124
16399.6
15535.7
15210.9
14994.2
14771.1
14522.6
14256.1
13986.4
13698
21571.2
17796.9
16126.3
15292.2
14772.8
14374.3
14027.4
13708.9
13414.4
13124.8
23713.5
19030.6
16627.8
15300.3
14472.2
13888.8
13435.9
13060.9
12740.1
12448.9
25496.4
20063.1
17035.4
15262.1
14140.7
13374.7
12814.3
12381.2
12033.4
11739.6
26872.2
20864.8
17345.7
15204
13828.2
12897.8
12238.1
11750.4
11377.1
11080.3
27795.9
21412
17553.4
15145.8
13580.2
12523.6
11786
11255
10862.1
10563.1
28254.1
21690.5
17634.5
15077
13406.8
12281.1
11501.2
10947.3
10545.7
10250.7
10525.3
6742.54
4677.5
3712.63
3395.35
3449.49
3697.98
4035.01
4402.65
4770.97
10212.4
6611.27
5050.59
4524.63
4450.39
4572.77
4786.58
5043.27
5315.84
5590.21
9292.78
6438.39
5728.68
5764.67
5955.09
6156.78
6347.66
6528.47
6700.69
6870.74
7918.09
6261.01
6586.37
7140.4
7550.47
7821.79
8002.17
8127.97
8221.04
8303.79
6160.52
6181.6
7539.61
8516.97
9098.11
9423.68
9596.35
9679.11
9708.87
9719.59
4123.52
6330.1
8535.12
9821.9
10525.1
10886.4
11048.5
11093.9
11070.6
11020.4
2170.23
6810.05
9539.91
11013
11786.6
12162.3
12307.3
12317.3
12247.7
12144.5
2330.68
7649.91
10532.4
12065.5
12855.6
13221.7
13340.8
13314.7
13203.2
13052.6
4748.87
8803.38
11497.1
12966
13717
14048.6
14132.1
14068.7
13919.4
13727.3
7620.88
10187.1
12422.2
13708.9
14365.5
14637
14676
14575.8
14396.6
14193.5
5112
5419.45
5698.5
5949.85
6173.47
6369.58
6538.66
6681.22
6797.71
6888.37
6953.2
6991.84
7003.58
6987.3
6941.49
6864.3
6753.75
6608.78
6432
6253.63
5803.16
5975.36
6150.34
6320.13
6478.91
6623.06
6750.19
6858.66
6947.29
7015.06
7060.98
7084
7082.83
7056.03
7001.88
6918.58
6804.29
6656.92
6471.96
6261.11
6930.74
6926.1
6949.15
6990.81
7042.23
7096.86
7149.5
7195.99
7232.95
7257.56
7267.39
7260.18
7233.75
7185.93
7114.47
7017.05
6891.04
6733.08
6538.16
6322.7
8227.15
8058.41
7929.63
7835.88
7768.01
7718.81
7681.89
7651.58
7622.94
7591.65
7553.89
7506.24
7445.53
7368.75
7272.94
7155.09
7012.01
6840.25
6636.26
6418.82
9530.56
9228.45
8967.38
8750.63
8569.88
8418.57
8290.48
8179.62
8080.37
7987.54
7896.42
7802.69
7702.37
7591.73
7467.2
7325.33
7162.8
6976.61
6764.39
6545.19
10744.6
10345.9
9979.51
9660.65
9382.43
9139.68
8927.22
8739.62
8571.34
8417.01
8271.54
8130.11
7988.26
7841.81
7686.85
7519.79
7337.43
7137.35
6918.12
6698.6
11808.3
11352.3
10910.9
10514.6
10158.6
9839.78
9554.52
9298.6
9067.24
8855.42
8658.13
8470.53
8287.99
8106.22
7921.25
7729.61
7528.48
7316.06
7092.02
6875.14
12682.2
12208.8
11724
11276.6
10864.6
10487.4
10143.6
9830.61
9544.9
9282.25
9038.21
8808.23
8587.92
8373.12
8160.13
7945.83
7728.03
7505.81
7280.14
7069.86
13339.3
12883.7
12385.7
11913.3
11468.2
11052.5
10666.9
10310.8
9982.09
9677.85
9394.49
9128.13
8874.88
8631.04
8393.41
8159.51
7928.03
7699.3
7476.03
7276.99
13787.6
13352
12859.5
12386.2
11932.6
11500.7
11092.9
10710.3
10352.6
10018.5
9705.62
9411.09
9131.84
8864.94
8607.9
8359.13
8118.42
7887.68
7672.07
7492.16
14088.8
13570.7
13093
12633
12187.3
11758.1
11348.2
10959.1
10591.7
10245.5
9919.23
9610.91
9318.47
9039.9
8773.7
8519.33
8277.78
8052.48
7850.76
7693.61
13759.7
13445.4
13053.1
12648.7
12243.1
11843.1
11453.6
11077.9
10718.2
10375.3
10049.1
9739.01
9444.08
9163.48
8896.84
8644.79
8409.57
8195.9
8012.61
7879.71
13419
13202.3
12895.3
12554.3
12196.4
11833.3
11472.3
11118.4
10774.8
10443.6
10125.8
9821.76
9531.75
9255.99
8995.23
8751.22
8527.3
8329.34
8167.17
8058.76
13065.7
12912.4
12672
12390
12081.3
11758.5
11430.3
11103
10780.8
10466.8
10162.8
9870.35
9590.53
9324.57
9074.19
8842.13
8632.66
8452.45
8311.79
8226.5
12701.3
12596.4
12408.3
12177.5
11915.3
11633
11339.5
11041.7
10744.5
10451.6
10165.7
9889.16
9623.76
9371.6
9135.23
8918.15
8725.36
8564
8444.44
8380.49
12332.7
12265.9
12120.8
11933.6
11713.3
11469.7
11211
10944
10673.8
10404.8
10140.2
9882.72
9634.99
9399.72
9180.09
8980.2
8805.48
8663.28
8563.82
8518.97
11966.3
11929.6
11820.2
11670.2
11487.3
11279.6
11054.5
10818.4
10576.4
10332.9
10091.5
9855.46
9627.78
9411.63
9210.68
9029.38
8873.4
8750.06
8669.2
8640.87
11607.4
11594.1
11514.3
11396.3
11246.5
11071.7
10878.4
10672.4
10458.7
10241.5
10024.7
9811.57
9605.5
9409.97
9228.88
9066.91
8929.73
8824.47
8760.37
8745.8
11259.4
11264.1
11208.9
11118.4
10997.8
10853
10689.5
10512.5
10326.6
10136
9944.23
9754.86
9571.31
9397.21
9236.57
9094.07
8975.28
8886.93
8837.55
8833.97
10924.4
10942.8
10908.1
10841.2
10746.5
10628.9
10493.3
10344
10185.2
10020.7
9854.12
9688.76
9528.07
9375.65
9235.5
9112.18
9010.97
8938.12
8901.33
8906.08
10603.2
10632.1
10614.6
10568.2
10496.7
10404.1
10294.3
10171.3
10038.6
9899.68
9757.87
9616.33
9478.36
9347.43
9227.39
9122.55
9037.84
8978.93
8952.64
8963.25
10295.9
10333.1
10330.3
10302.2
10251.7
10182
10096.4
9998.15
9890.45
9776.27
9658.58
9540.31
9424.53
9314.52
9213.85
9126.53
9057.04
9010.42
8992.61
9006.89
10001.9
10046.2
10056.7
10045.2
10014
9965.58
9902.69
9827.97
9744.06
9653.56
9559.06
9463.2
9368.77
9278.75
9196.43
9125.42
9069.73
9033.77
9022.57
9038.61
9720.47
9771.8
9794.77
9798.95
9785.97
9757.72
9716.29
9663.8
9602.44
9534.4
9461.91
9387.31
9313.06
9241.85
9176.6
9120.53
9077.14
9050.21
9043.94
9060.13
9451.18
9510.24
9545.93
9565.57
9570.25
9561.29
9540.23
9508.73
9468.57
9421.56
9369.64
9314.83
9259.3
9205.41
9155.73
9113.07
9080.42
9060.97
9058.14
9073.18
9194.07
9262.56
9311.98
9347.55
9369.82
9379.58
9377.92
9366.12
9345.59
9317.91
9284.74
9247.86
9209.22
9170.87
9135.03
9104.09
9080.6
9067.18
9066.54
9079.46
8950.21
9030.82
9095.85
9148.45
9188.61
9216.71
9233.44
9239.81
9237.04
9226.5
9209.74
9188.44
9164.36
9139.37
9115.38
9094.39
9078.46
9069.74
9070.32
9080.61
8722.26
8818.78
8902.16
8973.4
9032.02
9078.03
9111.92
9134.53
9147.01
9150.75
9147.33
9138.47
9125.96
9111.59
9097.11
9084.19
9074.4
9069.31
9070.47
9078.24
8515.59
8633.08
8738.27
8830.08
8907.67
8970.9
9020.15
9056.31
9080.64
9094.75
9100.47
9099.81
9094.8
9087.45
9079.58
9072.72
9068.03
9066.3
9068.16
9074.14
8343.98
8487.63
8617.28
8730.59
8826.68
8905.32
8966.97
9012.71
9044.16
9063.35
9072.62
9074.53
9071.67
9066.55
9061.47
9058.28
9058.12
9061.17
9066.19
9070.1
10023.5
10308.1
10792.2
11415
12090.9
12743.4
13309.1
13739.3
14000.1
14070.8
9829.81
10076.1
10507.1
11072
11698.1
12320.2
12883.1
13343.4
13669
13795.6
9666.2
9879.2
10258.1
10761.9
11329.4
11904.7
12440.3
12898.2
13247.9
13416.8
9526.55
9711.39
10043.5
10490.7
11001.7
11529
12031.6
12475.8
12832.6
13032.8
9403.74
9564.25
9854.43
10249.4
10706.5
11185.4
11650.7
12072.9
12424.8
12644.8
9291.69
9431.12
9684.17
10031.6
10438.2
10869.8
11295.9
11690.7
12029.4
12258.4
9185.53
9306.77
9527.22
9832.16
10192.3
10578.9
10965.8
11330.4
11650.5
11879.7
9081.35
9186.96
9379.04
9646.35
9964.55
10309.3
10658.3
10991.7
11289.9
11513
8975.92
9068.17
9235.72
9470.04
9750.81
10057.5
10370.7
10673.5
10948.4
11161.1
8866.44
8947.32
9093.78
9299.43
9547.19
9819.58
10100
10373.6
10625.1
10824.9
8750.29
8821.59
8950.06
9131.01
9349.98
9592.04
9842.86
10089.4
10318.4
10504.4
8624.92
8688.23
8801.53
8961.44
9155.62
9371.24
9595.88
9818.11
10026.3
10198.7
8487.62
8544.44
8645.15
8787.43
8960.63
9153.67
9355.72
9556.71
9746.47
9906.3
8335.46
8387.22
8477.79
8605.63
8761.49
8935.81
9119.07
9302.28
9476.48
9625.74
8165.11
8213.31
8296.09
8412.5
8554.59
8714.14
8882.66
9052.04
9214.18
9355.63
7972.74
8019.07
8096.25
8204.08
8336.04
8485.03
8643.34
8803.4
8957.77
9095.1
7754.06
7800.37
7873.74
7975.77
8101.57
8244.78
8398.09
8554.22
8706.09
8844.11
7505.06
7551.96
7622.49
7721.94
7846.47
7989.65
8144.19
8302.91
8458.91
8603.97
7224.92
7264.83
7333.51
7435.63
7565.52
7715.92
7879.39
8048.81
8217.39
8378.14
6933.73
6931.4
7005.55
7119.07
7262.25
7428.07
7609.47
7799.26
7990.44
8178.43
)
;

boundaryField
{
    left
    {
        type            symmetryPlane;
    }
    right
    {
        type            calculated;
        value           nonuniform List<scalar> 
30
(
6242.48
6244.47
6306.21
6402.97
6529.85
6683.74
6860.84
7056.24
7264.23
7481.23
7684.07
7871.57
8052.04
8221.05
8376.19
8515.7
8638.51
8744.22
8833.02
8905.64
8963.2
9007.12
9039.02
9060.63
9073.69
9079.95
9081.08
9078.78
9074.86
9070.34
)
;
    }
    down
    {
        type            symmetryPlane;
    }
    up
    {
        type            calculated;
        value           nonuniform List<scalar> 
30
(
6927.14
6921.7
6995.99
7109.93
7253.45
7419.57
7601.32
7791.49
7983.11
8171.97
8338.26
8482.58
8612.92
8726.84
8823.48
8902.62
8964.7
9010.81
9042.57
9062.01
9071.51
9073.62
9070.94
9066
9061.11
9058.1
9058.12
9061.26
9066.13
9069.28
)
;
    }
    hole
    {
        type            calculated;
        value           nonuniform List<scalar> 
20
(
10633.6
13714.5
16679.4
19456.9
21980.1
24187.1
26023
27438.6
28387
28860
10743.4
10426.9
9467.83
8023.08
6154.56
3915.5
1363.3
1438.4
4420.59
7510.56
)
;
    }
    frontAndBack
    {
        type            empty;
    }
}


// ************************************************************************* //
