/*--------------------------------*- C++ -*----------------------------------*\
  =========                 |
  \\      /  F ield         | OpenFOAM: The Open Source CFD Toolbox
   \\    /   O peration     | Website:  https://openfoam.org
    \\  /    A nd           | Version:  9
     \\/     M anipulation  |
\*---------------------------------------------------------------------------*/
FoamFile
{
    format      ascii;
    class       volScalarField;
    location    "140";
    object      sigmayz;
}
// * * * * * * * * * * * * * * * * * * * * * * * * * * * * * * * * * * * * * //

dimensions      [1 -1 -2 0 0 0 0];

internalField   nonuniform List<scalar> 
1000
(
6.05592e-14
8.15498e-14
-2.36403e-14
-1.92192e-14
-1.80825e-14
7.08338e-15
-8.51369e-14
5.86688e-14
-3.05259e-14
0
1.80668e-14
0
6.68356e-14
-1.22582e-13
-5.59e-14
5.5086e-14
4.44753e-14
1.00919e-13
0
0
0
0
6.69682e-14
1.1984e-14
1.06344e-16
-5.30337e-14
4.36476e-14
-3.96879e-14
-4.12902e-15
-1.5116e-14
6.89516e-15
-1.57272e-14
-3.1928e-14
7.37743e-15
5.71228e-14
-4.73938e-14
-4.2521e-14
-9.54888e-14
-1.23543e-14
1.76502e-14
5.8301e-16
1.74712e-16
-8.57687e-14
-1.66161e-15
1.71212e-15
4.34838e-14
-1.12756e-15
3.71617e-14
-1.78418e-15
-2.40717e-14
1.09604e-14
-7.68588e-17
2.42299e-17
2.56735e-16
-4.24268e-14
1.05274e-16
3.45312e-14
7.51468e-14
1.4055e-14
-2.16639e-14
-1.47455e-14
9.73251e-15
2.04074e-14
-2.15081e-15
3.12587e-14
-2.78828e-14
8.86997e-15
-2.53837e-14
-6.79976e-15
-1.844e-14
-2.33149e-14
-2.92773e-14
4.15798e-16
6.99344e-15
4.63301e-14
-4.61298e-15
-2.16472e-16
-2.23216e-14
3.60125e-15
6.46525e-15
-2.0966e-14
-2.85068e-14
1.26091e-14
1.33163e-14
-7.08255e-15
8.38141e-15
5.9036e-15
2.27605e-14
5.21957e-15
-1.20232e-14
-2.93184e-14
-2.10613e-14
1.65362e-14
1.00114e-14
-3.34504e-16
-2.94924e-15
6.50065e-15
2.3768e-15
-8.15309e-15
-5.09569e-15
-6.71255e-14
5.22748e-15
-1.62651e-14
0
-1.76704e-15
-1.03716e-14
5.48728e-16
-7.18036e-15
3.21569e-15
8.92618e-15
-6.18689e-14
3.19747e-14
-2.07081e-14
-3.76873e-15
0
-1.18899e-14
1.63424e-15
1.96571e-18
3.82969e-16
4.56957e-15
-3.64934e-14
3.79593e-14
1.63096e-14
-6.05616e-15
0
-1.46517e-14
-1.84488e-14
1.11105e-14
-1.83448e-19
-8.08918e-15
4.24454e-14
-1.77948e-14
1.78879e-14
0
-1.12725e-14
1.00041e-14
-3.29364e-15
-1.68251e-15
6.11451e-15
1.10458e-14
-3.83898e-15
1.38536e-14
-2.1393e-14
2.0373e-14
1.88415e-16
1.47457e-14
9.53859e-15
0
-7.04199e-15
6.47785e-15
-1.26676e-13
-4.55717e-14
-3.98836e-14
-1.08836e-14
3.16076e-14
-1.88832e-14
2.84019e-17
-2.19968e-14
-5.87695e-19
-2.11498e-14
-4.86189e-14
-1.00419e-15
-9.42021e-16
-5.63451e-14
1.5681e-14
-3.28374e-14
5.77299e-14
4.20209e-18
1.21422e-14
-1.72613e-14
-3.19027e-14
-4.87508e-14
1.84045e-14
-1.12339e-14
7.12481e-16
2.81315e-14
-4.46153e-15
9.13384e-16
-8.7393e-16
9.93783e-15
8.13878e-14
1.09522e-13
-9.22421e-16
4.22337e-14
4.83057e-14
4.20226e-14
4.48929e-15
-5.02763e-14
3.21037e-14
1.35404e-14
8.42672e-15
2.40859e-14
-3.41908e-14
8.55719e-14
-2.02814e-16
-4.65298e-14
-3.54923e-14
-1.8333e-14
3.55024e-15
6.72247e-15
3.10329e-15
5.65139e-15
2.44671e-15
-1.25147e-16
-8.09671e-15
0
0
2.51523e-16
2.3051e-15
6.90589e-16
5.79504e-15
-1.68973e-15
4.18663e-15
-1.80013e-15
3.12785e-17
2.77246e-18
-8.75396e-16
9.69567e-16
-7.2002e-15
2.55232e-15
3.83383e-15
6.40711e-15
2.68447e-15
7.45498e-15
-2.8608e-15
-4.58729e-15
5.58823e-15
0
2.47071e-15
4.67215e-15
1.16647e-14
4.76751e-17
1.45564e-15
1.76957e-15
2.04587e-15
-2.2758e-15
-2.58349e-15
-5.80929e-15
-1.76432e-17
1.46422e-14
1.24913e-15
3.97781e-15
-2.87472e-15
-2.89352e-15
9.72445e-15
-6.41214e-15
-1.35239e-15
2.67305e-15
2.73443e-15
-3.64649e-15
3.78567e-15
6.66813e-15
8.07767e-17
-2.89276e-15
3.20864e-15
1.2845e-17
-4.20096e-15
5.37894e-15
1.24341e-14
-1.9341e-17
0
4.90835e-15
1.79343e-15
2.07828e-15
0
2.40584e-15
-9.26358e-15
-3.91898e-15
-3.72965e-15
-1.25491e-15
-2.89276e-15
5.41573e-15
3.32883e-15
1.98399e-15
3.02852e-15
-4.98782e-15
-1.7792e-17
1.9636e-14
-8.39578e-15
-2.03616e-14
-4.14008e-15
-6.48823e-15
-1.19736e-14
7.58652e-15
2.09818e-14
-2.68306e-15
0
2.66033e-15
-1.19428e-14
-7.05083e-15
2.55896e-16
-4.9912e-15
3.90337e-15
1.21724e-14
2.01315e-15
-4.63122e-15
1.74259e-15
2.07138e-16
1.68374e-14
3.18002e-14
2.96474e-15
4.06554e-16
-1.16725e-14
-2.5173e-14
9.12435e-15
7.16978e-15
-3.37564e-15
-2.03373e-15
1.89428e-14
-1.12225e-14
-4.72938e-15
1.5222e-14
-1.18914e-14
-1.68392e-14
-3.79221e-15
-1.84739e-14
-2.60124e-16
2.79927e-14
1.05514e-14
-2.3027e-15
-4.57596e-15
6.64652e-15
9.47195e-15
-5.39309e-15
-1.52961e-14
7.13921e-15
1.84542e-14
-2.79614e-14
-1.80042e-14
2.61103e-14
-1.00812e-14
1.55079e-14
1.47059e-14
-1.4778e-14
3.52381e-15
6.41022e-16
-3.05205e-14
1.00155e-14
1.21126e-14
-5.51329e-16
9.08895e-16
-8.52254e-15
2.61809e-15
0
0
-2.02391e-14
1.43177e-14
3.44726e-14
-2.2473e-14
-2.35424e-14
1.0773e-14
-3.26286e-16
1.57538e-14
2.79359e-14
9.71894e-16
-7.29092e-15
0
-4.42991e-15
1.25903e-15
4.71173e-16
-1.20708e-15
1.35429e-14
-1.35853e-14
-1.26222e-14
3.0854e-14
2.28243e-14
-2.51904e-14
5.51932e-15
2.2221e-15
-3.42742e-15
-2.35059e-14
5.77787e-16
-1.351e-14
-9.33567e-16
9.61433e-15
-6.6968e-16
3.51308e-14
-2.71355e-15
-5.29882e-14
-2.97823e-14
-3.64309e-15
-1.80095e-14
1.34975e-14
-2.69585e-14
-2.89815e-14
1.06619e-14
8.4074e-15
2.02742e-14
-2.3081e-14
-8.0889e-16
1.54724e-15
-1.96792e-14
0
-1.27835e-14
8.10096e-17
-1.59146e-14
9.92118e-15
7.55613e-15
7.89789e-17
-3.56207e-15
1.89011e-14
-2.04529e-14
-7.52332e-15
1.74985e-14
-3.76338e-14
-2.39735e-14
-2.07786e-14
5.89846e-15
4.10705e-14
-1.0988e-15
2.03158e-14
-8.78901e-16
0
-7.18146e-15
6.4078e-15
-5.13308e-16
-4.756e-15
2.75285e-16
1.18602e-16
-7.55957e-17
2.01152e-14
0
-1.16438e-14
2.26782e-28
7.96453e-29
2.36452e-28
1.95568e-28
-7.57169e-15
0
7.17667e-15
-3.92358e-29
-7.35389e-15
7.64563e-15
1.0272e-28
-8.64555e-15
-6.4994e-29
1.02674e-14
1.13638e-14
-7.28646e-29
-8.65029e-29
-1.34469e-15
-1.55687e-14
-2.73742e-14
0
-3.65978e-15
-1.67907e-14
-2.11584e-14
-3.14808e-14
8.09811e-15
-1.99989e-14
-9.25325e-15
-1.70646e-14
-1.56801e-14
-7.17952e-15
-1.31088e-14
-1.19397e-14
-1.08039e-14
-4.95603e-15
-4.555e-15
-4.25707e-15
7.65218e-14
1.48867e-14
-3.99444e-14
5.40971e-28
8.11707e-15
0
1.22609e-14
-1.82761e-14
5.14123e-28
1.73797e-14
-9.40849e-15
-5.73206e-29
-3.70899e-28
7.45064e-15
-2.03107e-28
-2.0984e-14
1.90456e-28
1.90517e-14
-5.10717e-15
-4.89881e-15
2.83986e-14
2.79719e-14
2.80298e-14
3.39203e-29
3.78715e-14
1.93651e-15
1.86596e-15
2.29159e-14
9.5351e-15
1.95196e-14
1.89932e-14
-5.50527e-16
6.89114e-15
7.67578e-15
2.46688e-14
6.64874e-15
2.59793e-30
2.43129e-14
1.12219e-14
1.0961e-14
-1.70084e-14
-1.34783e-14
-1.31638e-14
0
1.18476e-14
2.36465e-14
-2.26564e-14
-1.04277e-14
1.01579e-14
1.01175e-14
1.63318e-28
8.94437e-15
0
-7.85638e-15
0
6.92889e-15
-1.20624e-14
8.72181e-29
4.17306e-29
-1.03045e-29
1.72498e-14
1.27953e-14
-1.32799e-14
3.5064e-28
2.44016e-31
1.19898e-14
1.15573e-14
-1.09608e-14
0
2.05939e-14
-3.18365e-28
-1.57507e-15
1.07038e-14
7.99533e-15
-1.13207e-14
7.16925e-15
1.23711e-14
1.3069e-14
-4.44672e-29
-1.47178e-28
1.19903e-14
1.21443e-14
1.21731e-14
0
1.18756e-14
0
1.12258e-14
0
0
0
9.4372e-15
0
0
8.09643e-15
0
0
0
6.89994e-15
6.80355e-15
6.83539e-15
-2.73553e-14
0
-1.15923e-14
0
-1.13957e-14
-1.11672e-14
0
0
0
-9.74917e-15
-9.33902e-15
-8.93092e-15
0
0
0
-7.53701e-15
0
-7.15304e-15
-7.09436e-15
-7.15763e-15
-4.42885e-14
-1.09639e-14
7.34953e-30
1.15708e-29
1.2857e-14
-2.33469e-14
-2.2867e-14
0
1.19794e-14
2.30178e-15
2.28291e-29
-2.07075e-14
-1.19352e-14
-8.20309e-15
1.23354e-14
-7.66976e-15
5.42829e-29
1.34494e-14
5.13054e-29
-4.83715e-29
1.32632e-14
5.34647e-29
-1.32837e-14
0
1.29744e-14
1.27802e-14
-1.25889e-14
-1.24176e-14
1.22799e-14
-2.95177e-28
-1.25623e-28
2.20639e-29
5.8318e-29
3.71886e-28
-3.17957e-29
6.16648e-29
-1.31484e-14
-5.18671e-29
-1.47414e-28
-5.24997e-29
-4.17418e-14
-1.48184e-28
-7.06436e-29
9.3562e-29
1.30563e-14
-1.29182e-14
-1.27733e-14
0
1.25267e-14
1.24498e-14
-6.04435e-29
-1.24296e-14
-1.24951e-14
8.66448e-29
1.27807e-14
-2.88562e-30
2.94242e-30
1.35412e-14
-1.48102e-28
-5.35844e-29
-9.61508e-16
-9.51592e-15
-1.3167e-14
0
1.31092e-14
2.25808e-14
-2.23705e-14
-3.14439e-14
1.27243e-14
8.96573e-15
1.17935e-28
8.57202e-15
-1.67564e-14
-8.19705e-15
-1.60739e-14
7.90681e-15
-1.33278e-14
0
-9.48047e-29
0
1.34074e-14
9.11311e-15
-1.31015e-14
2.40767e-29
3.19253e-29
9.2077e-15
3.51723e-14
-1.29437e-14
-2.5754e-14
2.15979e-14
-1.77779e-28
2.1285e-14
1.287e-14
8.16994e-15
-1.3071e-14
-1.84868e-14
1.3382e-14
1.3559e-14
4.71889e-29
-4.78218e-29
-4.32699e-29
8.74669e-15
1.22567e-28
0
-1.21503e-28
-8.88182e-15
8.838e-15
1.75407e-14
0
-8.5822e-15
-1.19485e-28
-8.35709e-15
1.64877e-14
8.13768e-15
1.60891e-14
-7.97108e-15
0
1.09794e-28
2.98147e-28
1.65705e-29
-1.24744e-14
4.39467e-29
-4.69427e-29
2.83876e-29
1.31382e-14
-1.31484e-14
-1.31302e-14
0
1.30651e-14
1.30413e-14
-1.91704e-28
-1.30497e-14
-1.30894e-14
0
1.32376e-14
6.11506e-30
-1.0632e-28
1.35422e-14
3.78127e-29
7.46269e-30
8.01246e-15
0
8.04368e-29
0
-2.4366e-29
-3.29482e-29
0
0
0
-1.01863e-28
9.77782e-30
-5.62458e-29
0
0
0
-5.50402e-29
0
2.89046e-28
5.50546e-29
5.54053e-29
-2.37639e-14
4.72026e-15
1.61973e-29
-2.61208e-29
1.3073e-14
-2.12408e-14
-2.12814e-14
0
1.31262e-14
4.97855e-15
-9.92633e-30
-2.1248e-14
-1.31882e-14
-8.04496e-15
1.3314e-14
-8.00072e-15
-3.62851e-29
1.35205e-14
-1.12886e-28
-1.78544e-30
4.60907e-15
-7.65386e-15
-4.98342e-15
0
2.0925e-14
1.30801e-14
-2.11139e-14
-1.31197e-14
1.31218e-14
-2.68128e-28
8.05339e-15
-2.92301e-30
-5.51969e-29
-8.02225e-15
-5.5028e-29
6.47576e-29
-1.34657e-14
7.99661e-15
8.00618e-15
8.0269e-15
-6.19024e-15
-4.12562e-15
-4.21252e-15
0
4.316e-15
4.34166e-15
-4.35614e-15
-4.36368e-15
4.36806e-15
-5.05405e-29
3.0142e-29
8.20201e-30
1.83457e-29
4.87814e-29
1.83214e-29
4.90714e-29
-4.48929e-15
0
0
0
1.3438e-14
9.94724e-15
-6.78481e-15
2.22001e-15
-1.29719e-14
-3.55762e-15
4.27804e-14
-1.25517e-14
-1.76363e-14
0
6.28179e-15
2.93426e-14
3.02637e-14
4.18047e-14
-1.39173e-14
-2.60255e-14
-4.89499e-14
5.15086e-14
-1.94664e-14
1.90212e-14
-1.34724e-14
-2.2347e-14
-2.06608e-14
2.65846e-14
3.27324e-14
2.64227e-14
-5.5943e-15
-1.05963e-14
-1.91495e-15
1.93084e-14
-1.36722e-48
-4.21567e-15
-2.69947e-14
-3.88924e-14
2.25504e-14
-2.60734e-14
2.11051e-14
3.28525e-14
-2.86735e-15
3.90967e-14
8.08959e-16
1.91333e-14
0
-1.80103e-14
-9.19795e-15
1.31135e-14
-2.8706e-14
-3.02409e-14
-1.73897e-14
-6.4574e-14
-1.5326e-15
1.20492e-14
2.37748e-14
-7.25893e-15
-1.99986e-14
2.49308e-14
1.30765e-14
-7.29775e-16
4.39527e-14
-1.72362e-14
-1.11979e-48
-2.60979e-14
1.42475e-14
6.42627e-15
-2.63622e-14
-8.26399e-15
2.26997e-14
-1.6092e-14
2.996e-14
6.16658e-14
-8.00641e-15
-9.20605e-15
3.03069e-16
9.72397e-15
-2.94948e-14
-1.32835e-14
-9.67419e-16
-3.95589e-14
-6.21487e-14
1.74151e-14
1.79218e-14
2.49021e-14
-4.12091e-15
1.85611e-14
1.97582e-14
-3.8286e-14
4.67664e-14
1.64842e-15
-6.41856e-14
-8.13568e-14
2.77339e-14
3.31697e-14
2.37178e-15
-1.21757e-14
5.46106e-14
2.01474e-14
2.41862e-14
6.92006e-14
3.48766e-14
-1.85663e-14
-4.70228e-14
-2.14488e-14
-2.5463e-15
-6.39696e-15
-3.45064e-14
5.01776e-14
1.93032e-14
3.36029e-14
3.35395e-14
2.86106e-16
-2.04095e-14
-3.32136e-14
-3.84846e-15
-5.08574e-15
-4.50068e-14
-1.59185e-14
9.45828e-15
1.07698e-14
2.85519e-14
1.57115e-15
2.95982e-14
1.1735e-14
6.17031e-15
2.83917e-16
-2.39907e-14
-1.92881e-14
-4.27698e-15
-5.16957e-17
-5.39971e-17
1.62557e-14
-5.87962e-49
9.78704e-15
9.89707e-15
4.99424e-15
9.76849e-15
3.54891e-16
9.62271e-15
-1.0017e-14
-1.96952e-14
2.28757e-14
-5.1447e-49
0
-2.94447e-14
0
-3.23066e-14
2.08129e-14
3.58869e-14
2.06147e-14
-1.32085e-14
-4.58992e-14
-9.6264e-15
5.82406e-15
1.89108e-14
5.88763e-16
-1.28621e-14
-3.98493e-14
4.4505e-14
9.001e-15
2.84704e-14
1.18514e-14
-4.66911e-16
-5.51816e-15
2.91232e-14
-2.01732e-14
2.89376e-14
-3.33542e-14
7.74587e-16
2.76331e-14
-9.01295e-15
-8.66488e-15
3.3607e-17
1.86362e-14
-3.76082e-14
-9.87097e-15
-1.6241e-14
0
-1.8474e-14
9.27823e-15
2.04956e-14
-1.3127e-14
1.67984e-14
-5.38621e-15
8.52065e-15
1.49143e-14
-1.43626e-14
-9.06472e-15
0
-8.80704e-15
8.55019e-15
-6.52678e-17
9.10094e-15
-7.65387e-15
7.8282e-15
4.29249e-15
-1.23925e-15
-5.05402e-15
6.43664e-17
-2.93825e-15
3.29605e-15
-2.36748e-15
)
;

boundaryField
{
    left
    {
        type            symmetryPlane;
    }
    right
    {
        type            calculated;
        value           nonuniform List<scalar> 
30
(
2.55232e-15
1.46422e-14
-1.9341e-17
-2.03616e-14
3.18002e-14
-2.3027e-15
-5.51329e-16
4.71173e-16
-2.97823e-14
-3.56207e-15
-7.55957e-17
-8.65029e-29
-4.25707e-15
-4.89881e-15
1.0961e-14
-1.03045e-29
-1.47178e-28
6.83539e-15
-7.15763e-15
-4.83715e-29
-5.24997e-29
-5.35844e-29
0
-4.78218e-29
1.65705e-29
7.46269e-30
5.54053e-29
-1.78544e-30
8.0269e-15
0
)
;
    }
    down
    {
        type            symmetryPlane;
    }
    up
    {
        type            calculated;
        value           nonuniform List<scalar> 
30
(
-4.25025e-19
5.12128e-19
-4.89004e-19
-4.60672e-20
2.40515e-19
-2.79296e-20
4.08952e-21
9.23018e-20
2.33473e-19
3.82348e-19
-1.96965e-19
-3.06258e-19
-3.18458e-19
0
3.41976e-19
3.52748e-19
-3.63112e-19
-3.73602e-19
3.84942e-19
-5.68314e-33
2.84869e-33
-3.86386e-34
-6.46327e-34
2.62892e-33
-8.506e-34
3.09908e-33
-7.70099e-19
0
0
0
)
;
    }
    hole
    {
        type            calculated;
        value           nonuniform List<scalar> 
20
(
6.37852e-14
6.41333e-14
0
2.72691e-14
1.68953e-14
3.88084e-14
-4.56089e-14
-5.79363e-14
-2.07778e-14
-7.47867e-15
-6.72796e-14
-6.05918e-14
-3.42308e-14
3.42767e-14
7.68935e-15
-9.72648e-14
-4.97221e-14
-7.85371e-14
2.8143e-14
8.69222e-15
)
;
    }
    frontAndBack
    {
        type            empty;
    }
}


// ************************************************************************* //
