/*--------------------------------*- C++ -*----------------------------------*\
  =========                 |
  \\      /  F ield         | OpenFOAM: The Open Source CFD Toolbox
   \\    /   O peration     | Website:  https://openfoam.org
    \\  /    A nd           | Version:  9
     \\/     M anipulation  |
\*---------------------------------------------------------------------------*/
FoamFile
{
    format      ascii;
    class       volScalarField;
    location    "140";
    object      sigmaxz;
}
// * * * * * * * * * * * * * * * * * * * * * * * * * * * * * * * * * * * * * //

dimensions      [1 -1 -2 0 0 0 0];

internalField   nonuniform List<scalar> 
1000
(
-7.19843e-14
-1.13563e-13
1.41184e-13
2.26853e-14
-1.31804e-13
-1.03028e-15
-1.53803e-13
9.22772e-14
-9.27385e-14
0
-1.17672e-13
0
1.3287e-13
-2.2895e-13
-9.894e-14
8.51157e-14
7.7843e-14
1.6276e-13
0
0
0
0
1.2911e-13
-2.53523e-14
-1.8945e-16
-8.20313e-14
7.18047e-14
-6.84306e-14
1.56557e-14
-1.10679e-14
-7.25429e-14
6.10715e-14
-6.26569e-14
-2.37609e-14
8.16043e-14
-8.28039e-14
-7.34442e-14
-1.64712e-13
-4.34901e-14
4.55973e-14
-4.41704e-14
-1.59988e-15
-1.91422e-13
1.11628e-14
-1.28317e-14
7.52138e-14
1.10911e-15
5.9669e-14
-5.78087e-14
-4.41426e-14
-1.38924e-13
-1.41658e-15
8.6152e-16
9.939e-15
-8.75504e-14
2.28161e-16
6.75184e-14
1.54078e-13
2.728e-14
-5.60644e-14
1.70424e-13
3.8209e-14
6.08956e-14
-9.09499e-15
7.45201e-14
-6.96224e-14
-1.50084e-15
-5.80401e-14
7.14215e-15
-2.74305e-14
2.98155e-13
-1.50606e-13
8.17257e-16
1.30283e-14
1.56703e-13
-2.75355e-15
1.63354e-17
-5.41526e-14
-2.50296e-15
2.3091e-15
1.75526e-13
-1.60607e-13
1.19345e-14
1.19406e-14
-4.79545e-15
6.71714e-14
-1.87298e-16
1.08527e-13
2.45409e-14
1.88611e-14
1.89463e-13
-5.77522e-15
6.24535e-14
2.77382e-15
-7.09146e-17
6.71457e-14
-4.10028e-17
5.32771e-14
1.04617e-15
-3.66897e-16
6.5639e-15
8.23379e-15
-6.85148e-15
0
-1.32065e-14
-4.3325e-15
2.27778e-14
1.04333e-14
1.94757e-14
5.9418e-15
-3.61819e-15
1.82885e-14
-1.70236e-14
-3.98799e-15
0
-2.03501e-14
2.31691e-14
1.01001e-16
-7.04048e-14
9.05288e-15
-4.56632e-15
2.65398e-14
2.37601e-14
-2.9931e-15
0
-3.53039e-14
-4.77811e-14
4.18737e-14
2.0425e-17
-4.24822e-14
1.92977e-14
1.80687e-15
3.26189e-14
0
-4.45589e-14
2.21471e-14
-1.98172e-14
-3.91406e-14
1.71439e-14
3.25328e-14
-3.94212e-14
-5.43114e-14
-4.04034e-14
-2.21856e-16
8.79005e-17
4.63244e-14
2.52725e-14
0
-5.36465e-14
1.74419e-14
-1.89611e-14
1.78883e-14
-4.1692e-14
2.03317e-15
7.6323e-14
-5.82398e-14
1.08214e-16
-6.66733e-14
1.77447e-17
-5.52502e-14
2.64679e-14
5.39957e-16
4.6846e-16
-9.11428e-14
4.58853e-17
-7.61842e-14
1.36857e-13
7.5599e-17
1.44161e-14
-4.16284e-14
1.22273e-13
3.39424e-14
-1.20589e-14
5.83347e-15
-1.38602e-16
7.63682e-14
-1.26008e-14
1.83454e-14
1.30634e-14
4.25356e-14
4.53577e-14
3.29252e-15
7.69607e-16
1.17445e-13
9.63368e-14
8.57432e-14
1.14581e-14
-1.03881e-13
3.94853e-14
2.81589e-14
-8.32222e-15
-2.65392e-14
-6.22237e-14
2.53092e-13
1.24116e-16
-8.80215e-14
-6.52983e-14
-3.65886e-14
-3.21026e-14
6.64393e-14
4.87645e-14
3.75945e-15
-7.83758e-14
-2.80573e-14
-4.6755e-15
0
0
3.18197e-14
1.39136e-15
6.59377e-14
3.77089e-15
-1.42732e-15
3.35457e-15
-1.03048e-13
3.34271e-14
1.22975e-16
-3.4168e-14
3.37452e-14
-6.49143e-14
-3.33941e-14
7.9018e-14
1.12335e-14
-2.23206e-14
9.67859e-14
-2.40611e-15
-9.67168e-14
9.39701e-15
0
3.46886e-15
7.96729e-15
5.03814e-14
7.15927e-16
-2.89696e-14
3.41275e-14
3.46984e-14
-3.41059e-14
-3.40591e-14
-6.73117e-14
-6.03429e-16
1.99054e-14
2.68696e-14
1.08076e-14
-8.66851e-14
1.8086e-14
1.07321e-13
-1.00729e-13
-3.4009e-14
6.48423e-14
-5.15554e-14
-6.81147e-14
6.54212e-14
1.00645e-13
7.37381e-16
-3.40692e-14
3.34856e-14
1.1776e-16
-3.38218e-14
2.92598e-14
1.41545e-14
2.50314e-17
0
1.35224e-14
3.08582e-14
3.51227e-14
0
-2.05458e-14
-5.20498e-14
-6.54083e-14
-1.20262e-14
5.01511e-14
1.76554e-14
1.75054e-14
-1.09159e-14
2.62148e-14
2.72633e-14
-3.35135e-14
-1.04876e-16
9.37e-14
-2.66137e-14
-3.57853e-14
3.69058e-14
-1.88054e-14
-8.38182e-14
4.46244e-14
1.13494e-13
-3.46182e-14
0
3.31103e-14
-3.37688e-14
-4.52527e-14
-4.39928e-14
-5.90215e-14
6.77029e-14
9.1214e-14
9.05315e-15
-2.44561e-14
1.5982e-14
7.61709e-15
7.76043e-14
2.98594e-14
3.25404e-14
1.98467e-15
-5.47003e-14
-1.40977e-13
4.74154e-14
7.02693e-14
-3.38657e-14
1.72247e-14
7.95145e-14
-9.79344e-14
-3.60013e-14
1.40679e-13
-2.37559e-14
-9.81244e-14
-2.22961e-14
-8.62657e-14
-1.28087e-15
1.04531e-13
2.33527e-14
5.16173e-15
-3.50143e-14
3.59546e-14
2.53325e-14
-3.64966e-14
-4.05642e-14
1.92398e-14
7.44557e-14
-1.22576e-13
-7.55652e-14
1.16409e-13
-2.99082e-14
9.6825e-14
6.20574e-14
-8.18807e-14
2.37056e-14
2.68809e-15
-1.15987e-13
3.10756e-14
4.09566e-14
3.11308e-15
2.96426e-15
-3.72759e-14
-1.34619e-14
0
0
-9.44788e-14
9.69851e-14
1.95225e-13
-1.53667e-13
-1.2211e-13
6.41682e-14
1.33633e-14
4.87688e-14
1.0914e-13
3.66338e-15
-2.27487e-14
0
-2.50889e-14
1.11585e-14
1.05803e-14
-3.46587e-15
2.94227e-14
-3.15134e-14
-3.02432e-14
9.41825e-14
5.88418e-14
-8.19156e-14
-2.30092e-14
1.94448e-14
2.46907e-14
-6.58558e-14
2.09266e-15
-7.27487e-14
-3.25728e-15
3.10737e-14
-2.31856e-15
1.01558e-13
-1.27797e-14
-1.2873e-13
-2.33678e-14
-4.93115e-15
-3.29435e-14
4.05065e-14
-1.12742e-13
-1.09003e-13
7.06901e-14
7.51295e-14
9.61795e-14
-8.20552e-14
1.65865e-17
-1.94374e-15
-8.79763e-14
0
-2.83142e-14
-1.13502e-16
-5.12652e-14
2.83634e-14
3.07124e-14
1.11384e-15
-8.05085e-15
5.10998e-14
-3.47989e-14
-2.28983e-14
3.16389e-14
-4.82693e-14
-3.45529e-14
-5.75634e-14
-4.03854e-15
1.02108e-13
-5.58122e-15
4.86808e-14
-4.15885e-15
0
-1.87771e-14
1.78536e-14
-1.52748e-15
-9.6446e-15
2.97273e-16
-2.96512e-16
-2.91578e-16
4.30014e-14
0
-3.48135e-14
6.38037e-28
7.69531e-29
4.82047e-28
5.58928e-28
-3.02258e-14
0
2.89157e-14
-2.26239e-28
-2.78555e-14
2.74029e-14
2.97213e-28
-2.66246e-14
-1.82365e-28
2.59944e-14
2.57357e-14
-1.19637e-28
-3.97947e-29
1.83657e-14
-1.84308e-14
-5.34533e-14
0
1.45027e-14
-4.50461e-15
-4.94175e-14
-6.62291e-14
2.98799e-14
-3.45557e-14
-1.70117e-14
-3.35208e-14
-3.30549e-14
-1.63138e-14
-3.2237e-14
-3.18769e-14
-2.61736e-14
-1.56024e-14
-1.54306e-14
-5.08094e-15
1.60561e-13
1.66254e-14
-8.62792e-14
1.31987e-27
4.87195e-14
0
1.73188e-14
-6.15253e-14
1.47729e-27
5.89137e-14
-1.67682e-14
-1.89155e-28
-1.14791e-27
1.62865e-14
-5.56445e-28
-5.32826e-14
4.59661e-28
3.64463e-14
-1.55455e-14
-5.1245e-15
2.87681e-14
4.98754e-14
3.1136e-14
1.68815e-28
6.53644e-14
-1.57544e-14
-1.496e-14
3.31187e-14
3.01668e-14
4.60675e-14
3.288e-14
-1.21074e-14
4.54839e-15
1.61614e-14
5.92383e-14
1.59445e-14
5.87611e-30
5.76191e-14
3.11273e-14
1.02729e-14
-1.58191e-14
-1.36755e-14
-3.37092e-14
0
3.25794e-14
4.74845e-14
-4.70868e-14
-3.07337e-14
3.01383e-14
1.60418e-14
3.17598e-28
1.60464e-14
0
-1.59624e-14
0
1.58187e-14
-2.65732e-14
1.98001e-28
1.0671e-28
5.38041e-30
3.60033e-14
1.25247e-14
-3.30989e-14
7.07889e-28
-1.84044e-28
1.46866e-14
1.5003e-14
-3.05591e-14
0
4.50533e-14
-8.05674e-28
-1.28109e-14
2.80604e-14
1.57111e-14
-2.72712e-14
1.56335e-14
2.66599e-14
2.64403e-14
-1.05864e-28
-9.50786e-29
1.0765e-14
1.15718e-14
1.22935e-14
0
1.34774e-14
0
1.43281e-14
0
0
0
1.52303e-14
0
0
1.5427e-14
0
0
0
1.52956e-14
1.52113e-14
5.03743e-15
-4.35038e-14
0
-1.15374e-14
0
-1.27847e-14
-1.32933e-14
0
0
0
-1.46347e-14
-1.48236e-14
-1.49654e-14
0
0
0
-1.51565e-14
0
-1.50811e-14
-1.5013e-14
-4.97713e-15
-9.58772e-14
-1.01976e-14
6.47238e-29
1.2573e-28
3.05978e-14
-4.30534e-14
-4.31965e-14
0
2.92829e-14
1.46993e-14
1.31537e-30
-4.282e-14
-2.78691e-14
-1.48276e-14
2.72655e-14
-1.48959e-14
1.08212e-28
2.66414e-14
1.03507e-28
-2.92658e-29
3.03729e-14
-7.15239e-29
-3.03331e-14
0
3.00212e-14
2.97983e-14
-2.9542e-14
-2.9261e-14
2.89634e-14
-5.81656e-28
-1.97222e-28
9.17659e-29
9.91661e-29
7.7362e-28
-8.70482e-29
1.35574e-28
-2.68157e-14
-1.00633e-28
-2.83079e-28
-3.33363e-29
-8.99648e-14
-1.99382e-28
-7.31571e-29
2.10069e-28
2.94429e-14
-2.92815e-14
-2.90871e-14
0
2.86284e-14
2.83778e-14
-9.34229e-29
-2.78669e-14
-2.76186e-14
1.88115e-28
2.7167e-14
-5.98998e-30
5.955e-30
2.67025e-14
-2.81882e-28
-3.28774e-29
-3.11115e-16
-9.27053e-15
-2.89663e-14
0
2.88735e-14
4.04846e-14
-4.08253e-14
-5.36956e-14
2.82889e-14
1.32859e-14
1.80258e-28
1.3752e-14
-2.78297e-14
-1.40357e-14
-2.82372e-14
1.4168e-14
-2.6813e-14
0
-1.83181e-28
0
2.81723e-14
9.23039e-15
-2.83165e-14
1.16637e-28
9.83577e-29
1.15763e-14
6.84158e-14
-2.8083e-14
-5.59096e-14
4.09047e-14
-2.7521e-28
4.10459e-14
2.73349e-14
1.38325e-14
-2.70347e-14
-3.98426e-14
2.68004e-14
2.67237e-14
9.16539e-29
-3.05439e-29
-9.424e-29
9.32008e-15
1.38007e-28
0
-1.50974e-28
-1.15377e-14
1.1969e-14
2.46996e-14
0
-1.29643e-14
-2.86028e-28
-1.33958e-14
2.70988e-14
1.36658e-14
2.74972e-14
-1.38018e-14
0
1.92051e-28
5.58747e-28
2.83106e-30
-2.67741e-14
9.2808e-29
-1.84026e-29
1.08091e-28
2.73084e-14
-2.73582e-14
-2.73781e-14
0
2.73403e-14
2.729e-14
-3.70776e-28
-2.71478e-14
-2.70649e-14
0
2.68987e-14
-4.21481e-30
-1.82215e-28
2.67198e-14
8.75387e-29
3.68344e-31
9.31029e-15
0
1.19837e-28
0
-4.86637e-29
-1.04297e-28
0
0
0
-1.81631e-28
-5.8425e-30
-9.09936e-29
0
0
0
-9.33425e-29
0
5.55426e-28
9.36842e-29
3.1233e-29
-4.8946e-14
1.54175e-14
3.35436e-29
-3.59731e-29
2.64814e-14
-3.86413e-14
-3.90293e-14
0
2.68607e-14
1.39706e-14
3.89318e-30
-4.00555e-14
-2.68444e-14
-1.33724e-14
2.67779e-14
-1.34857e-14
-8.80862e-29
2.67002e-14
-1.90974e-28
-1.00299e-30
1.4368e-14
-1.11215e-14
-1.41457e-14
0
3.83173e-14
2.63629e-14
-3.90838e-14
-2.66228e-14
2.6699e-14
-5.46355e-28
1.30841e-14
-5.94409e-30
-9.10439e-29
-1.33241e-14
-9.1959e-29
1.37664e-28
-2.66918e-14
1.35004e-14
1.35113e-14
4.50629e-15
-3.44245e-14
-2.49621e-14
-2.53456e-14
0
2.59653e-14
2.61981e-14
-2.63808e-14
-2.65165e-14
2.661e-14
-3.19211e-28
1.83753e-28
3.93019e-29
9.08199e-29
2.74873e-28
9.16755e-29
2.75597e-28
-2.66557e-14
0
0
0
4.58477e-14
-3.95559e-15
-4.2212e-14
7.03308e-15
-1.22141e-14
2.81337e-14
5.20445e-14
-1.76591e-14
-3.15591e-14
0
1.19217e-15
5.3073e-14
5.52271e-14
4.9589e-14
-1.25537e-14
-6.40326e-14
-4.7297e-14
7.7611e-14
-2.14127e-14
3.87063e-14
-2.10502e-15
-4.77061e-14
-4.73231e-14
6.7795e-14
5.54269e-14
6.59867e-14
-6.75191e-15
-4.89467e-14
-2.42934e-15
8.0299e-15
-5.41435e-47
1.74152e-14
-1.49883e-14
-4.20322e-14
3.23927e-14
-5.13667e-14
-2.43324e-14
5.85309e-14
-3.8527e-15
8.52536e-14
1.95309e-14
2.49143e-14
0
-2.78556e-14
-2.20686e-14
9.83693e-15
-2.30913e-14
-1.0808e-14
-1.64309e-14
-7.65472e-14
-3.85104e-14
2.2631e-14
6.368e-14
-2.12525e-14
-2.89411e-14
1.76905e-14
2.57331e-14
1.44087e-14
3.79954e-14
-3.4973e-14
-5.10822e-47
-6.95758e-15
2.38598e-14
2.02866e-14
-6.6294e-14
-2.02534e-14
6.36627e-14
-4.53888e-14
1.09413e-14
1.04712e-13
1.80053e-14
-2.48934e-15
4.28004e-16
4.46815e-15
-3.36892e-14
7.74653e-15
-1.34271e-15
-7.82957e-14
-4.84327e-14
4.67458e-14
1.45839e-15
-1.23263e-14
-1.90223e-14
6.08794e-14
9.80016e-15
-7.24081e-14
4.90846e-14
4.97915e-14
-5.23773e-14
-1.19144e-13
2.18226e-15
4.36998e-14
5.31518e-14
-4.05871e-14
3.2455e-14
1.1033e-14
5.15659e-14
1.29665e-13
2.73441e-14
-5.34966e-14
-3.63955e-15
4.85373e-14
3.30285e-14
-5.36638e-14
-5.1744e-14
6.47523e-14
4.45441e-14
2.5083e-14
2.6421e-14
2.35594e-16
-3.69742e-14
-4.226e-14
-1.8601e-14
-1.88118e-14
-5.85825e-14
-4.13623e-14
3.86324e-14
3.86788e-14
7.1586e-14
1.22488e-14
1.97393e-14
1.97911e-14
-1.46465e-14
5.37067e-16
-4.67733e-14
-1.11826e-14
4.1664e-14
-4.05225e-17
-4.46211e-17
-3.36904e-15
-4.44661e-47
2.33278e-15
3.7807e-15
1.86841e-14
5.50726e-15
7.84473e-16
6.7501e-15
-2.25077e-14
-1.7003e-14
3.70604e-14
-4.33542e-47
0
-1.18002e-14
0
-5.12407e-14
1.63062e-14
7.11269e-14
5.99237e-14
-2.76347e-14
-8.46737e-14
-8.70084e-16
5.01262e-14
7.31985e-15
1.32457e-15
-3.92847e-14
-7.12982e-14
7.83867e-14
7.83708e-15
2.85272e-14
2.46485e-14
-1.59985e-14
-4.86457e-14
1.38902e-14
1.61825e-14
2.16605e-14
-5.49813e-14
1.59629e-15
5.13391e-14
-9.62693e-15
-9.63095e-15
3.5467e-18
5.83941e-15
2.48323e-14
-7.49969e-15
-5.15514e-14
0
-1.92938e-14
2.11301e-14
4.43131e-14
-2.79584e-14
-4.29525e-14
2.76621e-14
4.57223e-14
-2.70167e-14
-2.50916e-14
-9.69215e-15
0
-1.10891e-14
1.13024e-14
-8.93305e-17
4.57192e-14
1.85064e-14
2.40348e-15
2.31126e-14
6.43977e-15
-2.7684e-14
4.54974e-16
-1.27626e-14
2.11455e-14
-6.28826e-15
)
;

boundaryField
{
    left
    {
        type            symmetryPlane;
    }
    right
    {
        type            calculated;
        value           nonuniform List<scalar> 
30
(
2.73854e-19
-2.67332e-19
4.15711e-22
1.22867e-19
-3.25375e-19
2.13415e-19
1.3023e-19
4.53569e-19
-6.93866e-20
-3.70928e-19
-1.90953e-20
1.27903e-33
-2.68629e-19
-2.78615e-19
5.75571e-19
2.20538e-33
-1.77841e-33
3.16662e-19
-3.2801e-19
2.63321e-34
-2.44333e-33
-2.55668e-33
0
2.7676e-34
6.81162e-33
3.74076e-33
4.37831e-33
-2.38179e-34
2.36344e-18
0
)
;
    }
    down
    {
        type            symmetryPlane;
    }
    up
    {
        type            calculated;
        value           nonuniform List<scalar> 
30
(
4.57192e-14
1.85064e-14
2.40348e-15
2.31126e-14
6.43977e-15
-2.7684e-14
4.54974e-16
-1.27626e-14
2.11455e-14
-6.28826e-15
-3.44245e-14
-2.49621e-14
-2.53456e-14
0
2.59653e-14
2.61981e-14
-2.63808e-14
-2.65165e-14
2.661e-14
-3.19211e-28
1.83753e-28
3.93019e-29
9.08199e-29
2.74873e-28
9.16755e-29
2.75597e-28
-2.66557e-14
0
0
0
)
;
    }
    hole
    {
        type            calculated;
        value           nonuniform List<scalar> 
20
(
-6.90023e-14
-8.13556e-14
0
-6.26851e-14
-3.66503e-14
-1.29751e-13
1.61719e-13
2.91269e-13
1.75548e-13
1.90321e-13
2.64387e-15
7.17138e-15
6.80863e-15
-9.66621e-15
-5.14267e-15
4.48374e-14
2.72967e-14
5.24798e-14
-2.21828e-14
-8.03501e-15
)
;
    }
    frontAndBack
    {
        type            empty;
    }
}


// ************************************************************************* //
