/*--------------------------------*- C++ -*----------------------------------*\
  =========                 |
  \\      /  F ield         | OpenFOAM: The Open Source CFD Toolbox
   \\    /   O peration     | Website:  https://openfoam.org
    \\  /    A nd           | Version:  9
     \\/     M anipulation  |
\*---------------------------------------------------------------------------*/
FoamFile
{
    format      ascii;
    class       volVectorField;
    location    "12";
    object      ddtCorrDdt0(hU);
}
// * * * * * * * * * * * * * * * * * * * * * * * * * * * * * * * * * * * * * //

dimensions      [0 2 -2 0 0 0 0];

internalField   nonuniform List<vector> 
400
(
(-3.97257e-07 -1.80013e-07 0)
(5.08233e-07 -4.62128e-08 0)
(4.62347e-07 8.08269e-08 0)
(-4.75101e-07 3.62094e-08 0)
(-9.84765e-07 -1.81794e-07 0)
(-4.99311e-07 -1.11025e-07 0)
(4.55717e-07 5.82656e-08 0)
(1.17599e-06 2.04081e-07 0)
(1.43246e-06 1.8604e-07 0)
(1.27759e-06 5.817e-08 0)
(9.51372e-07 -5.53886e-09 0)
(5.56372e-07 1.38233e-07 0)
(1.62613e-07 1.75988e-07 0)
(-2.79922e-07 1.37724e-07 0)
(-5.3077e-07 1.73196e-09 0)
(-3.72123e-07 -3.09427e-08 0)
(1.10776e-07 1.11697e-08 0)
(4.75537e-07 3.88712e-08 0)
(7.28874e-07 8.48089e-08 0)
(4.1112e-07 8.37658e-08 0)
(-3.92047e-07 -4.9451e-07 0)
(4.40802e-07 -6.90331e-08 0)
(4.5563e-07 3.45375e-07 0)
(-4.57846e-07 9.77001e-08 0)
(-8.77813e-07 -3.65725e-07 0)
(-5.12134e-07 -2.96161e-07 0)
(3.38328e-07 2.26708e-07 0)
(1.09628e-06 6.66896e-07 0)
(1.31696e-06 5.59879e-07 0)
(1.16203e-06 2.32237e-07 0)
(7.84782e-07 1.42126e-07 0)
(4.97452e-07 4.94919e-07 0)
(1.04318e-07 6.38401e-07 0)
(-2.37373e-07 4.85323e-07 0)
(-3.46216e-07 1.12164e-07 0)
(-1.44702e-07 -6.1749e-08 0)
(1.68664e-07 3.33842e-08 0)
(4.83349e-07 1.56299e-07 0)
(7.3122e-07 3.66665e-07 0)
(4.17216e-07 2.47707e-07 0)
(-3.88214e-07 -6.74579e-07 0)
(5.09425e-07 3.81152e-08 0)
(4.812e-07 6.70749e-07 0)
(-2.85973e-07 2.08454e-07 0)
(-7.53392e-07 -4.14436e-07 0)
(-5.40073e-07 -3.88525e-07 0)
(2.05934e-07 4.3528e-07 0)
(8.84334e-07 1.11083e-06 0)
(1.16903e-06 8.70953e-07 0)
(9.87497e-07 2.77666e-07 0)
(7.10338e-07 1.92637e-07 0)
(2.65462e-07 6.40834e-07 0)
(-1.39548e-08 9.96316e-07 0)
(-1.27678e-07 7.01651e-07 0)
(-1.70898e-07 1.33374e-07 0)
(6.02189e-08 -1.86483e-07 0)
(4.03952e-07 -1.19481e-07 0)
(5.85869e-07 1.62567e-07 0)
(7.53713e-07 4.27722e-07 0)
(4.11508e-07 3.56301e-07 0)
(-3.61751e-07 -7.20159e-07 0)
(6.02651e-07 2.46485e-07 0)
(5.25233e-07 9.16819e-07 0)
(-1.27017e-07 3.59118e-07 0)
(-5.90618e-07 -4.43998e-07 0)
(-5.34223e-07 -3.5916e-07 0)
(2.15218e-08 6.81237e-07 0)
(5.897e-07 1.42961e-06 0)
(8.638e-07 1.06772e-06 0)
(7.84679e-07 9.82674e-08 0)
(4.27042e-07 -1.28017e-07 0)
(8.22475e-08 3.75492e-07 0)
(-1.28803e-07 9.15825e-07 0)
(-1.77717e-07 6.67002e-07 0)
(3.93263e-08 4.56578e-08 0)
(3.8285e-07 -3.5823e-07 0)
(6.11496e-07 -2.46706e-07 0)
(6.75377e-07 1.11975e-07 0)
(7.58038e-07 5.83028e-07 0)
(5.78826e-07 5.14141e-07 0)
(-2.24324e-07 -6.61705e-07 0)
(5.99244e-07 4.7134e-07 0)
(5.1988e-07 1.0418e-06 0)
(6.21141e-08 4.98573e-07 0)
(-3.78317e-07 -3.41889e-07 0)
(-4.82003e-07 -2.09935e-07 0)
(-1.90953e-07 9.43382e-07 0)
(2.58117e-07 1.6381e-06 0)
(4.88701e-07 1.04639e-06 0)
(4.61618e-07 -1.59838e-07 0)
(1.50555e-07 -5.00382e-07 0)
(-7.73343e-08 6.67839e-08 0)
(-9.34071e-08 6.11745e-07 0)
(2.06741e-08 4.80782e-07 0)
(3.70075e-07 -1.02251e-07 0)
(7.7883e-07 -5.15844e-07 0)
(9.84585e-07 -3.87363e-07 0)
(9.13989e-07 -3.43335e-08 0)
(8.86415e-07 5.90287e-07 0)
(4.619e-07 5.2865e-07 0)
(-5.92117e-08 -5.04724e-07 0)
(4.96275e-07 6.5853e-07 0)
(5.56904e-07 1.07961e-06 0)
(3.44711e-07 6.18667e-07 0)
(-1.08996e-07 -1.19553e-07 0)
(-4.17674e-07 2.49861e-08 0)
(-4.12962e-07 1.12613e-06 0)
(-1.51964e-07 1.72325e-06 0)
(1.08172e-07 8.9518e-07 0)
(1.21747e-07 -3.69613e-07 0)
(-2.1467e-07 -7.83169e-07 0)
(-3.92232e-07 -3.46574e-08 0)
(-1.91605e-07 5.71506e-07 0)
(2.35233e-07 4.62452e-07 0)
(7.53655e-07 -1.78303e-07 0)
(1.19056e-06 -6.49654e-07 0)
(1.28284e-06 -6.66119e-07 0)
(1.01376e-06 -3.07474e-07 0)
(9.75922e-07 3.83876e-07 0)
(6.98034e-07 4.96414e-07 0)
(1.47426e-07 -3.21367e-07 0)
(3.14052e-07 7.58514e-07 0)
(6.04924e-07 1.01998e-06 0)
(6.36186e-07 6.59554e-07 0)
(1.43777e-07 9.90761e-08 0)
(-3.54597e-07 2.8222e-07 0)
(-5.86795e-07 1.2028e-06 0)
(-5.24437e-07 1.59207e-06 0)
(-2.96915e-07 7.44729e-07 0)
(-2.45767e-07 -3.94008e-07 0)
(-1.48067e-07 -7.08682e-07 0)
(-3.11116e-07 -3.24754e-07 0)
(-2.17676e-07 3.67668e-07 0)
(2.87616e-07 4.00556e-07 0)
(9.33049e-07 -1.29099e-07 0)
(1.49672e-06 -6.2541e-07 0)
(1.49109e-06 -6.57854e-07 0)
(1.28674e-06 -3.31707e-07 0)
(1.18229e-06 3.10416e-07 0)
(7.40498e-07 4.46314e-07 0)
(3.77499e-07 -1.2185e-07 0)
(1.15284e-07 7.08406e-07 0)
(6.53069e-07 8.05143e-07 0)
(9.20761e-07 5.90854e-07 0)
(3.98132e-07 2.46488e-07 0)
(-2.46139e-07 4.43324e-07 0)
(-7.76837e-07 1.17186e-06 0)
(-8.75942e-07 1.42593e-06 0)
(-6.04325e-07 6.47174e-07 0)
(-2.32667e-07 -4.46885e-07 0)
(-3.94786e-07 -1.0733e-06 0)
(-6.53234e-07 -4.58736e-07 0)
(-7.01233e-08 1.68755e-07 0)
(5.48954e-07 1.95833e-07 0)
(1.25083e-06 -2.41734e-07 0)
(1.82073e-06 -6.36059e-07 0)
(1.7793e-06 -6.81769e-07 0)
(1.2339e-06 -4.12189e-07 0)
(1.03013e-06 1.23933e-07 0)
(8.56037e-07 3.03053e-07 0)
(5.06373e-07 3.20156e-09 0)
(-1.31502e-07 5.18126e-07 0)
(7.06226e-07 5.20683e-07 0)
(1.19096e-06 3.77365e-07 0)
(6.28062e-07 2.50043e-07 0)
(-1.3162e-07 4.13404e-07 0)
(-8.06829e-07 8.34767e-07 0)
(-1.12102e-06 9.57283e-07 0)
(-1.00443e-06 4.51884e-07 0)
(-9.76282e-07 -3.62675e-07 0)
(-6.53148e-07 -8.85334e-07 0)
(-4.43241e-08 -3.76266e-07 0)
(-3.70771e-08 1.84e-07 0)
(5.33481e-07 1.8562e-07 0)
(1.35506e-06 -2.90748e-07 0)
(1.97884e-06 -5.9521e-07 0)
(1.86432e-06 -3.66005e-07 0)
(1.29497e-06 -2.83215e-07 0)
(1.16562e-06 -1.26119e-07 0)
(1.04901e-06 1.26104e-07 0)
(5.95154e-07 1.41647e-08 0)
(-2.50436e-07 1.99486e-07 0)
(7.50646e-07 1.73612e-07 0)
(1.3535e-06 8.54761e-08 0)
(7.52573e-07 4.86449e-08 0)
(-1.28199e-07 1.15737e-07 0)
(-8.75219e-07 2.36084e-07 0)
(-1.23252e-06 2.76551e-07 0)
(-1.15488e-06 1.77268e-07 0)
(-7.20918e-07 -9.09013e-09 0)
(-5.96308e-07 -8.37007e-08 0)
(-3.78034e-07 -1.78178e-07 0)
(1.45874e-07 5.48537e-08 0)
(8.77834e-07 1.16641e-08 0)
(1.51792e-06 -2.75342e-07 0)
(1.60888e-06 -3.13291e-07 0)
(1.68575e-06 1.27193e-08 0)
(1.75565e-06 -1.43268e-07 0)
(1.34339e-06 -2.72347e-07 0)
(8.83994e-07 2.48473e-08 0)
(5.84065e-07 9.22572e-09 0)
(-2.27549e-07 -1.96566e-07 0)
(7.61252e-07 -2.32871e-07 0)
(1.35687e-06 -2.16221e-07 0)
(7.42298e-07 -2.37149e-07 0)
(-1.26291e-07 -3.26356e-07 0)
(-8.54547e-07 -3.76877e-07 0)
(-1.20086e-06 -2.26322e-07 0)
(-1.13406e-06 -1.43482e-08 0)
(-7.73266e-07 1.62619e-07 0)
(-6.2839e-07 3.82623e-07 0)
(-3.23306e-07 1.32845e-07 0)
(1.10597e-07 -1.79727e-07 0)
(8.6779e-07 -2.29579e-07 0)
(1.52027e-06 -3.40646e-09 0)
(1.59513e-06 -5.97562e-08 0)
(1.65885e-06 -3.65576e-07 0)
(1.83206e-06 -1.32463e-07 0)
(1.3955e-06 2.17016e-07 0)
(8.97407e-07 7.15166e-08 0)
(5.01098e-07 2.2636e-08 0)
(-8.57218e-08 -5.51706e-07 0)
(7.40406e-07 -6.12977e-07 0)
(1.21594e-06 -5.33068e-07 0)
(6.21761e-07 -4.57334e-07 0)
(-1.3896e-07 -6.48538e-07 0)
(-7.82765e-07 -1.00151e-06 0)
(-1.09592e-06 -9.92566e-07 0)
(-1.00796e-06 -3.64603e-07 0)
(-6.53457e-07 4.23076e-07 0)
(-1.53827e-06 7.05498e-07 0)
(-3.97311e-07 3.62409e-07 0)
(6.586e-08 -3.04064e-07 0)
(6.1188e-07 -3.54878e-07 0)
(1.35905e-06 7.93723e-08 0)
(1.92586e-06 3.52699e-07 0)
(1.8428e-06 1.60511e-07 0)
(1.35325e-06 1.22195e-07 0)
(1.27692e-06 4.80133e-08 0)
(1.09508e-06 -6.74286e-08 0)
(3.43081e-07 1.30746e-07 0)
(1.44273e-07 -7.53544e-07 0)
(7.11622e-07 -9.24378e-07 0)
(9.40819e-07 -7.77228e-07 0)
(3.73248e-07 -4.95699e-07 0)
(-2.62617e-07 -7.0482e-07 0)
(-7.361e-07 -1.36321e-06 0)
(-8.10906e-07 -1.52347e-06 0)
(-5.88867e-07 -6.32849e-07 0)
(-6.54853e-07 4.97703e-07 0)
(4.51993e-07 8.86277e-07 0)
(-4.13205e-07 4.7921e-07 0)
(-6.47734e-08 -2.06772e-07 0)
(6.36275e-07 -3.01776e-07 0)
(1.31675e-06 3.2084e-08 0)
(1.81695e-06 4.23913e-07 0)
(1.73207e-06 5.03701e-07 0)
(1.25553e-06 3.09451e-07 0)
(1.11744e-06 -2.12581e-07 0)
(9.98206e-07 -2.78813e-07 0)
(1.355e-07 3.00594e-07 0)
(3.5101e-07 -7.9108e-07 0)
(6.55644e-07 -1.13201e-06 0)
(6.45224e-07 -8.50499e-07 0)
(1.12571e-07 -3.46691e-07 0)
(-3.76918e-07 -5.08086e-07 0)
(-5.764e-07 -1.37377e-06 0)
(-5.16236e-07 -1.69938e-06 0)
(-3.39767e-07 -7.92152e-07 0)
(-2.49805e-07 5.25181e-07 0)
(-2.84111e-07 1.05282e-06 0)
(-3.4248e-07 3.5236e-07 0)
(-6.6039e-08 -3.57293e-07 0)
(3.63871e-07 -5.09631e-07 0)
(9.6555e-07 -6.81449e-08 0)
(1.49465e-06 3.75678e-07 0)
(1.51712e-06 4.85006e-07 0)
(1.19849e-06 2.40366e-07 0)
(1.13392e-06 -2.93184e-07 0)
(9.09199e-07 -3.52486e-07 0)
(-7.02664e-08 5.16628e-07 0)
(5.44467e-07 -6.98619e-07 0)
(6.01581e-07 -1.20168e-06 0)
(3.43266e-07 -7.98886e-07 0)
(-1.57593e-07 -1.10348e-07 0)
(-4.72193e-07 -2.15343e-07 0)
(-4.30233e-07 -1.2706e-06 0)
(-1.54027e-07 -1.8065e-06 0)
(1.29465e-07 -9.55551e-07 0)
(1.0596e-07 4.14355e-07 0)
(-1.69237e-07 8.57045e-07 0)
(-3.03077e-07 1.35298e-07 0)
(-1.58896e-07 -6.72585e-07 0)
(2.45113e-07 -6.65472e-07 0)
(7.79527e-07 -3.81262e-08 0)
(1.24334e-06 4.58273e-07 0)
(1.30571e-06 5.2315e-07 0)
(1.0275e-06 2.41937e-07 0)
(1.00491e-06 -3.43397e-07 0)
(7.70245e-07 -3.83974e-07 0)
(-2.57113e-07 6.59759e-07 0)
(6.01544e-07 -5.34981e-07 0)
(5.58187e-07 -1.17006e-06 0)
(7.3157e-08 -6.92092e-07 0)
(-3.97992e-07 1.25353e-07 0)
(-5.36321e-07 3.54391e-08 0)
(-2.42837e-07 -1.05055e-06 0)
(2.2192e-07 -1.70473e-06 0)
(4.8067e-07 -1.0474e-06 0)
(4.79336e-07 1.06463e-07 0)
(1.23342e-07 4.86691e-07 0)
(-1.90402e-07 -1.07594e-07 0)
(-1.51576e-07 -7.15817e-07 0)
(1.29508e-07 -6.3097e-07 0)
(4.84267e-07 -7.59768e-08 0)
(8.62089e-07 3.58679e-07 0)
(1.00498e-06 3.25848e-07 0)
(8.96999e-07 1.26654e-08 0)
(8.97986e-07 -4.73789e-07 0)
(5.79401e-07 -4.13221e-07 0)
(-3.62452e-07 6.649e-07 0)
(5.85406e-07 -3.24528e-07 0)
(5.07496e-07 -1.00975e-06 0)
(-1.27266e-07 -5.18428e-07 0)
(-6.0193e-07 2.66542e-07 0)
(-5.51968e-07 1.91057e-07 0)
(-6.03272e-08 -7.79896e-07 0)
(5.18149e-07 -1.46981e-06 0)
(8.40034e-07 -9.99933e-07 0)
(7.41719e-07 -4.34014e-08 0)
(4.53872e-07 1.67251e-07 0)
(1.65741e-07 -3.59808e-07 0)
(-2.37119e-08 -8.4482e-07 0)
(-4.79519e-08 -7.03221e-07 0)
(1.53459e-07 -1.52877e-07 0)
(4.86621e-07 2.07296e-07 0)
(6.85426e-07 9.92207e-08 0)
(7.05326e-07 -1.97408e-07 0)
(7.85642e-07 -5.81349e-07 0)
(4.69444e-07 -4.28841e-07 0)
(-4.02223e-07 6.00986e-07 0)
(5.3429e-07 -1.17147e-07 0)
(4.95005e-07 -7.42098e-07 0)
(-3.13886e-07 -3.39226e-07 0)
(-7.86687e-07 3.23114e-07 0)
(-5.34673e-07 2.56056e-07 0)
(1.61369e-07 -5.13732e-07 0)
(8.22991e-07 -1.09503e-06 0)
(1.08463e-06 -8.33683e-07 0)
(1.06681e-06 -1.92186e-07 0)
(7.29783e-07 1.22211e-09 0)
(3.48306e-07 -4.7226e-07 0)
(4.77374e-08 -8.30221e-07 0)
(-1.01191e-07 -6.08127e-07 0)
(-8.58613e-08 -1.17314e-07 0)
(1.20082e-07 1.0993e-07 0)
(3.98188e-07 -2.84373e-08 0)
(5.88067e-07 -2.51566e-07 0)
(7.32803e-07 -4.85933e-07 0)
(4.15755e-07 -3.41582e-07 0)
(-3.80245e-07 4.3745e-07 0)
(5.13167e-07 -5.68957e-08 0)
(4.59094e-07 -4.59954e-07 0)
(-4.12156e-07 -1.7184e-07 0)
(-9.04105e-07 2.35279e-07 0)
(-5.63148e-07 2.23121e-07 0)
(3.31056e-07 -2.64105e-07 0)
(1.02709e-06 -6.69803e-07 0)
(1.28378e-06 -5.85028e-07 0)
(1.22001e-06 -2.46278e-07 0)
(9.11321e-07 -2.51817e-07 0)
(5.60521e-07 -4.78242e-07 0)
(1.87467e-07 -6.24902e-07 0)
(-1.74861e-07 -4.23153e-07 0)
(-3.3199e-07 -9.35228e-08 0)
(-1.58832e-07 4.23472e-08 0)
(2.02731e-07 -6.81202e-08 0)
(5.32068e-07 -2.11217e-07 0)
(7.03122e-07 -3.63141e-07 0)
(3.95245e-07 -2.26686e-07 0)
(-4.49705e-07 1.68599e-07 0)
(4.09243e-07 -3.93811e-08 0)
(5.40089e-07 -1.62806e-07 0)
(-4.67394e-07 -3.62164e-08 0)
(-9.71682e-07 6.42038e-08 0)
(-5.15659e-07 8.48965e-08 0)
(4.04621e-07 -7.43442e-08 0)
(1.10792e-06 -2.31524e-07 0)
(1.35047e-06 -2.17025e-07 0)
(1.18798e-06 -1.24201e-07 0)
(1.05017e-06 -1.91234e-07 0)
(7.87015e-07 -2.28858e-07 0)
(2.98461e-07 -2.61361e-07 0)
(-1.58007e-07 -1.76493e-07 0)
(-4.08788e-07 -4.44178e-08 0)
(-2.90099e-07 6.93653e-09 0)
(1.08496e-07 -4.36311e-08 0)
(4.83456e-07 -9.02412e-08 0)
(7.12625e-07 -1.42442e-07 0)
(4.08044e-07 -7.32722e-08 0)
)
;

boundaryField
{
    sides
    {
        type            calculated;
        value           nonuniform List<vector> 
40
(
(-4.49705e-07 0 0)
(4.09243e-07 0 0)
(5.40089e-07 0 0)
(-4.67394e-07 0 0)
(-9.71682e-07 0 0)
(-5.15659e-07 0 0)
(4.04621e-07 0 0)
(1.10792e-06 0 0)
(1.35047e-06 0 0)
(1.18798e-06 0 0)
(1.05017e-06 0 0)
(7.87015e-07 0 0)
(2.98461e-07 0 0)
(-1.58007e-07 0 0)
(-4.08788e-07 0 0)
(-2.90099e-07 0 0)
(1.08496e-07 0 0)
(4.83456e-07 0 0)
(7.12625e-07 0 0)
(4.08044e-07 0 0)
(-3.97257e-07 0 0)
(5.08233e-07 0 0)
(4.62347e-07 0 0)
(-4.75101e-07 0 0)
(-9.84765e-07 0 0)
(-4.99311e-07 0 0)
(4.55717e-07 0 0)
(1.17599e-06 0 0)
(1.43246e-06 0 0)
(1.27759e-06 0 0)
(9.51372e-07 0 0)
(5.56372e-07 0 0)
(1.62613e-07 0 0)
(-2.79922e-07 0 0)
(-5.3077e-07 0 0)
(-3.72123e-07 0 0)
(1.10776e-07 0 0)
(4.75537e-07 0 0)
(7.28874e-07 0 0)
(4.1112e-07 0 0)
)
;
    }
    inlet
    {
        type            calculated;
        value           uniform (0 0 0);
    }
    outlet
    {
        type            calculated;
        value           nonuniform List<vector> 
20
(
(4.1112e-07 8.37658e-08 0)
(4.17216e-07 2.47707e-07 0)
(4.11508e-07 3.56301e-07 0)
(5.78826e-07 5.14141e-07 0)
(4.619e-07 5.2865e-07 0)
(6.98034e-07 4.96414e-07 0)
(7.40498e-07 4.46314e-07 0)
(8.56037e-07 3.03053e-07 0)
(1.04901e-06 1.26104e-07 0)
(8.83994e-07 2.48473e-08 0)
(8.97407e-07 7.15166e-08 0)
(1.09508e-06 -6.74286e-08 0)
(9.98206e-07 -2.78813e-07 0)
(9.09199e-07 -3.52486e-07 0)
(7.70245e-07 -3.83974e-07 0)
(5.79401e-07 -4.13221e-07 0)
(4.69444e-07 -4.28841e-07 0)
(4.15755e-07 -3.41582e-07 0)
(3.95245e-07 -2.26686e-07 0)
(4.08044e-07 -7.32722e-08 0)
)
;
    }
    frontAndBack
    {
        type            empty;
    }
}


// ************************************************************************* //
