/*--------------------------------*- C++ -*----------------------------------*\
  =========                 |
  \\      /  F ield         | OpenFOAM: The Open Source CFD Toolbox
   \\    /   O peration     | Website:  https://openfoam.org
    \\  /    A nd           | Version:  9
     \\/     M anipulation  |
\*---------------------------------------------------------------------------*/
FoamFile
{
    format      ascii;
    class       volScalarField;
    location    "12";
    object      h_0;
}
// * * * * * * * * * * * * * * * * * * * * * * * * * * * * * * * * * * * * * //

dimensions      [0 1 0 0 0 0 0];

internalField   nonuniform List<scalar> 
400
(
0.0100007
0.00999988
0.00999901
0.00999835
0.00999826
0.00999894
0.00999965
0.0099998
0.00999947
0.00999927
0.00999948
0.00999985
0.00999968
0.00999918
0.00999887
0.00999903
0.00999937
0.00999972
0.01
0.0100001
0.0100007
0.00999985
0.009999
0.00999833
0.0099983
0.00999887
0.00999954
0.00999963
0.00999919
0.00999886
0.00999903
0.00999933
0.00999928
0.00999891
0.00999877
0.00999894
0.00999924
0.00999958
0.00999994
0.01
0.0100009
0.00999988
0.00999902
0.00999847
0.00999843
0.00999894
0.00999945
0.00999938
0.00999881
0.00999829
0.00999826
0.00999847
0.00999859
0.00999853
0.00999865
0.00999893
0.0099992
0.00999959
0.00999996
0.0100001
0.0100009
0.0099999
0.00999907
0.00999862
0.00999856
0.00999893
0.0099993
0.00999903
0.00999824
0.00999749
0.00999723
0.00999743
0.00999774
0.00999814
0.00999863
0.00999902
0.00999925
0.00999947
0.00999991
0.01
0.0100009
0.0099999
0.00999916
0.0099988
0.00999871
0.0099989
0.00999902
0.00999858
0.00999759
0.00999666
0.00999615
0.00999629
0.00999687
0.00999785
0.00999884
0.00999942
0.00999955
0.00999967
0.00999991
0.01
0.0100006
0.00999992
0.00999933
0.009999
0.00999884
0.00999882
0.0099987
0.00999807
0.00999692
0.00999584
0.00999507
0.00999509
0.00999605
0.00999765
0.00999914
0.00999982
0.00999977
0.00999966
0.00999988
0.01
0.0100002
0.00999994
0.00999955
0.00999922
0.00999895
0.00999877
0.0099985
0.00999773
0.00999621
0.00999425
0.00999286
0.00999314
0.0099955
0.0099986
0.0100007
0.010001
0.0100003
0.00999973
0.00999976
0.00999997
0.00999975
0.00999998
0.00999984
0.0099995
0.00999913
0.00999883
0.00999858
0.00999795
0.00999633
0.00999325
0.00998913
0.00998893
0.00999329
0.00999932
0.0100027
0.0100025
0.0100009
0.00999975
0.00999968
0.00999997
0.00999929
0.01
0.0100001
0.00999988
0.00999957
0.00999937
0.00999906
0.00999774
0.00999434
0.00998878
0.00998599
0.00998858
0.00999689
0.0100028
0.0100039
0.0100021
0.0100002
0.00999952
0.00999978
0.0100001
0.00999898
0.00999998
0.0100003
0.0100001
0.0100002
0.0100012
0.0100032
0.0100059
0.0100037
0.00897768
0.00895156
0.00997481
0.0100077
0.010017
0.0100099
0.010002
0.00999885
0.00999918
0.0100002
0.0100003
0.00999894
0.00999992
0.0100002
0.0100001
0.0100001
0.0100011
0.0100032
0.0100058
0.0100037
0.00897764
0.00895162
0.00997479
0.0100077
0.0100169
0.0100099
0.010002
0.00999891
0.00999922
0.0100002
0.0100003
0.00999916
0.00999983
0.00999995
0.00999968
0.00999939
0.00999924
0.00999893
0.00999756
0.00999413
0.00998863
0.00998559
0.00998856
0.00999691
0.0100028
0.0100038
0.0100021
0.0100002
0.00999959
0.00999983
0.0100001
0.00999953
0.00999972
0.00999955
0.0099992
0.00999885
0.00999861
0.00999838
0.0099977
0.00999609
0.0099931
0.00998934
0.00998888
0.00999324
0.00999919
0.0100026
0.0100025
0.0100009
0.00999979
0.00999974
0.01
0.0099999
0.00999959
0.00999918
0.00999884
0.0099986
0.00999848
0.00999824
0.00999746
0.00999591
0.00999399
0.00999261
0.00999303
0.00999536
0.00999844
0.0100006
0.0100009
0.0100002
0.00999969
0.0099998
0.01
0.0100002
0.00999946
0.00999887
0.00999854
0.00999841
0.00999844
0.00999836
0.00999774
0.00999661
0.00999548
0.00999483
0.00999489
0.00999587
0.00999747
0.00999895
0.00999966
0.00999964
0.00999959
0.00999985
0.01
0.0100003
0.00999935
0.00999863
0.00999827
0.00999821
0.00999842
0.00999859
0.00999818
0.00999725
0.00999629
0.00999575
0.00999595
0.00999663
0.00999762
0.00999859
0.00999917
0.00999931
0.00999946
0.00999982
0.01
0.0100003
0.00999925
0.00999846
0.00999803
0.00999798
0.00999836
0.00999876
0.00999853
0.00999778
0.00999708
0.00999689
0.00999708
0.00999744
0.00999786
0.00999836
0.00999876
0.00999898
0.00999928
0.00999974
0.00999997
0.0100001
0.00999914
0.00999832
0.00999779
0.00999773
0.00999825
0.00999881
0.00999878
0.00999818
0.00999766
0.00999763
0.00999791
0.00999804
0.00999807
0.00999824
0.00999854
0.00999886
0.00999926
0.00999974
0.00999997
0.0099999
0.00999902
0.0099982
0.0099976
0.00999753
0.00999814
0.0099988
0.00999889
0.00999851
0.00999822
0.00999833
0.00999863
0.00999859
0.00999829
0.0099982
0.00999846
0.00999886
0.00999931
0.00999975
0.00999998
0.00999969
0.00999894
0.00999809
0.0099974
0.00999733
0.00999796
0.00999868
0.00999887
0.00999859
0.0099984
0.00999869
0.009999
0.00999883
0.00999832
0.0099981
0.00999834
0.00999879
0.00999924
0.00999969
0.00999992
)
;

boundaryField
{
    sides
    {
        type            zeroGradient;
    }
    inlet
    {
        type            zeroGradient;
    }
    outlet
    {
        type            fixedValue;
        value           uniform 0.01;
    }
    frontAndBack
    {
        type            empty;
    }
}


// ************************************************************************* //
