/*--------------------------------*- C++ -*----------------------------------*\
  =========                 |
  \\      /  F ield         | OpenFOAM: The Open Source CFD Toolbox
   \\    /   O peration     | Website:  https://openfoam.org
    \\  /    A nd           | Version:  9
     \\/     M anipulation  |
\*---------------------------------------------------------------------------*/
FoamFile
{
    format      ascii;
    class       volScalarField;
    location    "12";
    object      hTotal;
}
// * * * * * * * * * * * * * * * * * * * * * * * * * * * * * * * * * * * * * //

dimensions      [0 1 0 0 0 0 0];

internalField   nonuniform List<scalar> 
400
(
0.0100001
0.00999934
0.00999847
0.00999811
0.0099985
0.00999953
0.0100003
0.0100005
0.0100004
0.0100003
0.0100004
0.01
0.00999913
0.00999835
0.00999827
0.00999874
0.00999935
0.00999991
0.0100003
0.0100002
0.0100001
0.00999925
0.00999845
0.00999812
0.00999854
0.0099994
0.0100001
0.0100002
0.00999993
0.00999979
0.00999976
0.0099995
0.00999878
0.00999822
0.00999829
0.00999875
0.00999928
0.00999986
0.0100003
0.0100002
0.0100002
0.00999923
0.00999856
0.00999833
0.00999865
0.00999933
0.00999983
0.00999971
0.00999925
0.00999888
0.00999883
0.00999861
0.00999826
0.00999812
0.00999839
0.00999885
0.00999939
0.00999997
0.0100004
0.0100003
0.0100002
0.00999929
0.00999872
0.00999855
0.00999876
0.00999923
0.00999945
0.00999904
0.00999833
0.00999777
0.00999755
0.00999751
0.00999759
0.00999796
0.00999858
0.00999913
0.00999956
0.0100001
0.0100004
0.0100003
0.0100002
0.00999939
0.00999893
0.00999881
0.00999888
0.00999908
0.00999899
0.00999834
0.00999741
0.00999668
0.00999626
0.00999635
0.00999691
0.00999792
0.00999902
0.00999972
0.0100001
0.0100004
0.0100006
0.0100003
0.0100002
0.00999959
0.00999922
0.00999906
0.00999899
0.0099989
0.00999856
0.00999772
0.0099966
0.00999557
0.00999489
0.00999504
0.00999618
0.00999794
0.00999953
0.0100003
0.0100005
0.0100006
0.0100007
0.0100003
0.0100002
0.00999986
0.00999955
0.00999928
0.00999905
0.00999881
0.00999838
0.00999743
0.00999581
0.00999384
0.00999261
0.0099931
0.0099957
0.00999904
0.0100013
0.0100018
0.0100012
0.0100008
0.0100006
0.0100003
0.0100001
0.0100002
0.00999991
0.00999952
0.00999916
0.00999888
0.00999858
0.00999779
0.00999595
0.00999278
0.00998889
0.00998881
0.00999353
0.00999985
0.0100035
0.0100036
0.0100021
0.0100008
0.0100004
0.0100002
0.01
0.0100005
0.0100003
0.00999984
0.00999954
0.00999945
0.00999919
0.00999777
0.00999408
0.00998832
0.00998544
0.00998849
0.00999715
0.0100034
0.0100048
0.0100032
0.0100015
0.0100006
0.0100005
0.0100003
0.00999995
0.0100006
0.0100004
0.0100001
0.0100001
0.0100013
0.0100035
0.0100061
0.0100036
0.00997727
0.00995112
0.00997465
0.010008
0.0100176
0.0100108
0.0100032
0.0100002
0.0100003
0.0100009
0.0100006
0.00999989
0.0100005
0.0100003
0.01
0.0100001
0.0100012
0.0100034
0.010006
0.0100035
0.00997726
0.00995112
0.00997465
0.010008
0.0100176
0.0100108
0.0100033
0.0100002
0.0100003
0.0100009
0.0100006
0.00999988
0.0100003
0.0100001
0.00999966
0.0099994
0.00999934
0.00999906
0.00999759
0.00999392
0.00998823
0.00998516
0.00998841
0.00999718
0.0100034
0.0100047
0.0100032
0.0100015
0.0100007
0.0100006
0.0100003
0.00999987
0.0099999
0.00999961
0.00999924
0.00999893
0.0099987
0.00999839
0.00999756
0.00999578
0.00999266
0.00998908
0.00998879
0.00999346
0.00999972
0.0100033
0.0100035
0.010002
0.0100009
0.0100005
0.0100003
0.00999982
0.00999949
0.00999916
0.00999892
0.00999875
0.00999856
0.00999813
0.00999715
0.00999553
0.0099936
0.0099924
0.00999295
0.00999555
0.00999887
0.0100012
0.0100017
0.0100012
0.0100007
0.0100006
0.0100003
0.00999974
0.00999912
0.00999875
0.00999862
0.00999859
0.00999854
0.00999823
0.00999741
0.00999626
0.00999524
0.00999473
0.00999487
0.00999598
0.00999772
0.00999933
0.0100002
0.0100004
0.0100005
0.0100006
0.0100003
0.00999963
0.00999884
0.0099984
0.00999829
0.0099984
0.00999861
0.00999857
0.00999798
0.00999707
0.00999627
0.00999579
0.00999599
0.0099966
0.00999765
0.00999874
0.00999945
0.00999984
0.0100002
0.0100005
0.0100003
0.00999953
0.00999865
0.0099981
0.00999796
0.00999818
0.00999867
0.00999891
0.00999855
0.00999788
0.00999735
0.00999718
0.00999716
0.00999728
0.00999767
0.00999827
0.00999882
0.00999929
0.00999986
0.0100003
0.0100002
0.00999941
0.00999852
0.00999787
0.00999763
0.00999794
0.00999868
0.0099992
0.00999908
0.00999859
0.0099983
0.0099982
0.00999806
0.00999773
0.00999763
0.00999793
0.00999843
0.009999
0.00999964
0.0100002
0.0100002
0.0099993
0.00999846
0.00999769
0.00999738
0.00999774
0.00999864
0.00999936
0.00999947
0.00999924
0.0099991
0.00999907
0.00999879
0.0099981
0.0099976
0.00999772
0.00999825
0.00999889
0.00999956
0.0100001
0.0100001
0.00999914
0.00999836
0.00999754
0.00999716
0.00999756
0.00999852
0.00999935
0.00999959
0.0099995
0.00999946
0.00999956
0.00999918
0.00999825
0.00999752
0.00999754
0.00999809
0.00999877
0.00999943
0.00999995
0.0100001
)
;

boundaryField
{
    sides
    {
        type            calculated;
        value           nonuniform List<scalar> 
40
(
0.00999914
0.00999836
0.00999754
0.00999716
0.00999756
0.00999852
0.00999935
0.00999959
0.0099995
0.00999946
0.00999956
0.00999918
0.00999825
0.00999752
0.00999754
0.00999809
0.00999877
0.00999943
0.00999995
0.0100001
0.0100001
0.00999934
0.00999847
0.00999811
0.0099985
0.00999953
0.0100003
0.0100005
0.0100004
0.0100003
0.0100004
0.01
0.00999913
0.00999835
0.00999827
0.00999874
0.00999935
0.00999991
0.0100003
0.0100002
)
;
    }
    inlet
    {
        type            calculated;
        value           nonuniform List<scalar> 
20
(
0.0100001
0.0100001
0.0100002
0.0100002
0.0100002
0.0100002
0.0100002
0.0100001
0.01
0.00999995
0.00999989
0.00999988
0.00999987
0.00999982
0.00999974
0.00999963
0.00999953
0.00999941
0.0099993
0.00999914
)
;
    }
    outlet
    {
        type            calculated;
        value           uniform 0.01;
    }
    frontAndBack
    {
        type            empty;
    }
}


// ************************************************************************* //
