/*--------------------------------*- C++ -*----------------------------------*\
  =========                 |
  \\      /  F ield         | OpenFOAM: The Open Source CFD Toolbox
   \\    /   O peration     | Website:  https://openfoam.org
    \\  /    A nd           | Version:  9
     \\/     M anipulation  |
\*---------------------------------------------------------------------------*/
FoamFile
{
    format      ascii;
    class       volVectorField;
    location    "12";
    object      hU;
}
// * * * * * * * * * * * * * * * * * * * * * * * * * * * * * * * * * * * * * //

dimensions      [0 2 -1 0 0 0 0];

internalField   nonuniform List<vector> 
400
(
(0.00100007 -2.14162e-08 0)
(0.00100052 -7.95281e-10 0)
(0.00100057 -8.48859e-08 0)
(0.0010008 -2.08078e-07 0)
(0.00100118 -2.63453e-07 0)
(0.00100136 -2.3135e-07 0)
(0.00100128 -2.2362e-07 0)
(0.00100119 -2.99428e-07 0)
(0.00100122 -3.81594e-07 0)
(0.00100122 -3.52745e-07 0)
(0.00100103 -2.12395e-07 0)
(0.00100072 -6.59527e-08 0)
(0.00100049 4.24777e-09 0)
(0.00100043 -1.23991e-09 0)
(0.00100041 -3.20599e-08 0)
(0.00100036 -5.98242e-08 0)
(0.00100009 -5.7422e-08 0)
(0.000999786 -9.09348e-08 0)
(0.000999339 -8.95379e-08 0)
(0.000999164 -2.3941e-07 0)
(0.00100008 6.42513e-09 0)
(0.00100052 1.35328e-07 0)
(0.00100058 -3.79059e-08 0)
(0.0010008 -3.26032e-07 0)
(0.00100117 -4.31199e-07 0)
(0.00100134 -3.15066e-07 0)
(0.00100128 -2.48877e-07 0)
(0.00100124 -3.9976e-07 0)
(0.00100133 -5.70414e-07 0)
(0.0010014 -4.57689e-07 0)
(0.00100124 -4.18087e-08 0)
(0.00100094 4.14299e-07 0)
(0.0010007 6.59182e-07 0)
(0.00100058 6.82018e-07 0)
(0.00100049 6.24138e-07 0)
(0.00100036 6.00318e-07 0)
(0.00100009 6.40114e-07 0)
(0.000999764 5.88147e-07 0)
(0.000999379 5.08835e-07 0)
(0.000999078 1.47789e-07 0)
(0.00100008 6.07349e-08 0)
(0.0010005 2.21327e-07 0)
(0.00100058 -9.99523e-08 0)
(0.00100075 -5.87611e-07 0)
(0.00100105 -7.76965e-07 0)
(0.00100122 -6.25838e-07 0)
(0.00100124 -5.5553e-07 0)
(0.0010013 -8.19715e-07 0)
(0.00100146 -1.09869e-06 0)
(0.00100158 -9.2152e-07 0)
(0.0010015 -2.69928e-07 0)
(0.00100126 4.39788e-07 0)
(0.001001 8.08472e-07 0)
(0.00100079 7.97428e-07 0)
(0.00100055 6.63567e-07 0)
(0.00100032 5.86923e-07 0)
(0.000999965 6.04904e-07 0)
(0.000999596 5.58483e-07 0)
(0.000999165 4.71894e-07 0)
(0.000998973 1.30793e-08 0)
(0.00100008 1.59864e-07 0)
(0.00100047 3.22614e-07 0)
(0.00100055 -1.35764e-07 0)
(0.00100068 -7.74475e-07 0)
(0.00100092 -1.01879e-06 0)
(0.0010011 -8.22078e-07 0)
(0.00100121 -7.29695e-07 0)
(0.00100141 -1.05685e-06 0)
(0.00100173 -1.38812e-06 0)
(0.00100199 -1.11867e-06 0)
(0.00100202 -1.80442e-07 0)
(0.00100183 8.43229e-07 0)
(0.00100149 1.43544e-06 0)
(0.00100108 1.46875e-06 0)
(0.00100065 1.23475e-06 0)
(0.00100026 1.02478e-06 0)
(0.000999907 9.36502e-07 0)
(0.000999592 8.11808e-07 0)
(0.000999287 6.95331e-07 0)
(0.00099894 1.40505e-07 0)
(0.00100007 2.78658e-07 0)
(0.00100039 3.9876e-07 0)
(0.00100049 -1.88336e-07 0)
(0.00100056 -9.3877e-07 0)
(0.00100075 -1.25779e-06 0)
(0.00100096 -1.09577e-06 0)
(0.00100119 -1.03719e-06 0)
(0.00100156 -1.42795e-06 0)
(0.00100206 -1.77172e-06 0)
(0.00100254 -1.41641e-06 0)
(0.00100279 -3.16217e-07 0)
(0.0010027 9.66554e-07 0)
(0.00100223 1.75336e-06 0)
(0.00100143 1.85681e-06 0)
(0.00100061 1.56111e-06 0)
(0.000999999 1.26095e-06 0)
(0.000999589 1.1332e-06 0)
(0.000999325 1.02747e-06 0)
(0.000999088 9.37917e-07 0)
(0.000998841 3.41922e-07 0)
(0.00100005 3.81708e-07 0)
(0.00100028 4.3597e-07 0)
(0.00100039 -2.48397e-07 0)
(0.0010004 -1.06552e-06 0)
(0.00100051 -1.46328e-06 0)
(0.00100075 -1.39613e-06 0)
(0.00100113 -1.46832e-06 0)
(0.00100175 -2.00637e-06 0)
(0.00100253 -2.41272e-06 0)
(0.00100323 -1.77773e-06 0)
(0.00100371 -2.03667e-08 0)
(0.00100375 1.94898e-06 0)
(0.00100311 2.91122e-06 0)
(0.00100189 2.56567e-06 0)
(0.00100066 1.56061e-06 0)
(0.00099984 7.62452e-07 0)
(0.000999531 5.12742e-07 0)
(0.000999392 5.66606e-07 0)
(0.00099931 7.00097e-07 0)
(0.000998889 2.08753e-07 0)
(0.00100001 4.35456e-07 0)
(0.00100013 4.11384e-07 0)
(0.00100024 -3.01703e-07 0)
(0.00100016 -1.1491e-06 0)
(0.00100019 -1.61307e-06 0)
(0.00100043 -1.74498e-06 0)
(0.0010009 -2.02024e-06 0)
(0.00100179 -2.89728e-06 0)
(0.00100315 -3.54218e-06 0)
(0.0010047 -3.30208e-06 0)
(0.00100577 -7.50945e-07 0)
(0.00100544 2.86734e-06 0)
(0.00100362 5.22725e-06 0)
(0.00100121 4.95191e-06 0)
(0.000999554 3.13204e-06 0)
(0.000999027 1.54312e-06 0)
(0.000999275 9.62021e-07 0)
(0.000999464 9.39542e-07 0)
(0.000999482 1.1292e-06 0)
(0.000998872 6.76525e-07 0)
(0.000999958 4.00409e-07 0)
(0.000999958 3.38346e-07 0)
(0.00100003 -3.32455e-07 0)
(0.000999858 -1.09635e-06 0)
(0.000999753 -1.72523e-06 0)
(0.000999943 -2.12002e-06 0)
(0.00100035 -2.92749e-06 0)
(0.00100143 -3.86058e-06 0)
(0.00100302 -4.51416e-06 0)
(0.00100593 -2.81401e-06 0)
(0.00100909 7.35012e-07 0)
(0.00100935 4.52876e-06 0)
(0.00100586 4.99749e-06 0)
(0.001001 2.92662e-06 0)
(0.000998198 8.17127e-07 0)
(0.000997959 -3.14122e-08 0)
(0.000998972 1.51919e-07 0)
(0.000999609 5.01284e-07 0)
(0.000999843 6.8927e-07 0)
(0.000999062 2.45081e-07 0)
(0.000999914 2.94191e-07 0)
(0.0009998 2.06016e-07 0)
(0.000999805 -2.42694e-07 0)
(0.000999432 -8.24488e-07 0)
(0.000999087 -1.40188e-06 0)
(0.000999019 -2.29162e-06 0)
(0.000999529 -4.322e-06 0)
(0.00100125 -7.81237e-06 0)
(0.0010048 -1.33033e-05 0)
(0.00100951 -1.50721e-05 0)
(0.00101197 3.82135e-06 0)
(0.00100918 1.89139e-05 0)
(0.0010026 1.59378e-05 0)
(0.000997932 5.72557e-06 0)
(0.000997024 -3.65299e-07 0)
(0.000998122 -1.10307e-06 0)
(0.000999354 1.7384e-07 0)
(0.000999697 8.29606e-07 0)
(0.000999574 9.14292e-07 0)
(0.000998733 3.73702e-07 0)
(0.000999699 9.37129e-08 0)
(0.000999999 5.26296e-08 0)
(0.000999219 -1.32039e-07 0)
(0.000999753 -2.9416e-07 0)
(0.000997276 -5.93233e-07 0)
(0.000998625 -1.01766e-06 0)
(0.000993168 -2.69731e-06 0)
(0.000997388 -5.41674e-06 0)
(0.000991544 -1.14495e-05 0)
(0.000915744 -1.27192e-05 0)
(0.00095146 2.37073e-07 0)
(0.00101054 1.46439e-05 0)
(0.00099147 1.3079e-05 0)
(0.000984397 5.03927e-06 0)
(0.000989618 1.28583e-07 0)
(0.000995844 -6.56742e-07 0)
(0.000998509 2.94321e-08 0)
(0.000998186 2.51895e-07 0)
(0.000997003 3.27806e-07 0)
(0.000996648 -2.36529e-08 0)
(0.0009997 -1.34535e-07 0)
(0.00100001 -1.53881e-07 0)
(0.000999221 1.53169e-08 0)
(0.000999751 2.00918e-07 0)
(0.000997275 5.58798e-07 0)
(0.000998625 1.04653e-06 0)
(0.000993167 2.76664e-06 0)
(0.000997382 5.49295e-06 0)
(0.00099152 1.14492e-05 0)
(0.000915708 1.26309e-05 0)
(0.000951398 -4.5115e-07 0)
(0.0010105 -1.50412e-05 0)
(0.000991472 -1.35901e-05 0)
(0.0009844 -5.62699e-06 0)
(0.000989603 -7.18839e-07 0)
(0.000995812 7.85254e-08 0)
(0.000998473 -5.43077e-07 0)
(0.000998153 -8.58123e-07 0)
(0.00099698 -9.06858e-07 0)
(0.000996602 -8.86936e-07 0)
(0.000999919 -3.31647e-07 0)
(0.000999813 -3.0315e-07 0)
(0.000999809 1.2891e-07 0)
(0.000999428 7.32194e-07 0)
(0.00099907 1.36111e-06 0)
(0.000998997 2.31133e-06 0)
(0.000999508 4.38601e-06 0)
(0.00100125 7.87245e-06 0)
(0.00100481 1.33031e-05 0)
(0.00100955 1.49434e-05 0)
(0.00101197 -4.0901e-06 0)
(0.00100914 -1.93106e-05 0)
(0.00100253 -1.64358e-05 0)
(0.000997833 -6.29438e-06 0)
(0.000996951 -1.66132e-07 0)
(0.000998055 5.68137e-07 0)
(0.000999256 -6.4384e-07 0)
(0.000999573 -1.40007e-06 0)
(0.000999422 -1.46165e-06 0)
(0.000998574 -1.25665e-06 0)
(0.000999963 -4.32121e-07 0)
(0.00099998 -4.25024e-07 0)
(0.00100003 2.23959e-07 0)
(0.000999846 1.00138e-06 0)
(0.000999735 1.67558e-06 0)
(0.000999923 2.13846e-06 0)
(0.00100034 2.99221e-06 0)
(0.00100141 3.91623e-06 0)
(0.00100298 4.48841e-06 0)
(0.00100584 2.67335e-06 0)
(0.00100902 -1.01301e-06 0)
(0.00100928 -4.93116e-06 0)
(0.00100579 -5.47156e-06 0)
(0.00100095 -3.42874e-06 0)
(0.000998109 -1.31458e-06 0)
(0.000997798 -5.06473e-07 0)
(0.000998778 -6.50102e-07 0)
(0.000999378 -1.08143e-06 0)
(0.000999596 -1.2269e-06 0)
(0.000998785 -1.06355e-06 0)
(0.00100001 -4.59624e-07 0)
(0.00100015 -4.79161e-07 0)
(0.00100024 2.07751e-07 0)
(0.00100014 1.05937e-06 0)
(0.00100017 1.56286e-06 0)
(0.0010004 1.75304e-06 0)
(0.00100087 2.06789e-06 0)
(0.00100175 2.92624e-06 0)
(0.00100313 3.50841e-06 0)
(0.0010047 3.17912e-06 0)
(0.00100575 5.46021e-07 0)
(0.00100538 -3.18304e-06 0)
(0.00100354 -5.6348e-06 0)
(0.00100106 -5.45056e-06 0)
(0.000999347 -3.67663e-06 0)
(0.000998772 -2.1041e-06 0)
(0.000999022 -1.46341e-06 0)
(0.000999164 -1.52696e-06 0)
(0.000999194 -1.67609e-06 0)
(0.000998516 -1.52597e-06 0)
(0.00100005 -3.99559e-07 0)
(0.0010003 -4.89823e-07 0)
(0.00100038 1.6691e-07 0)
(0.00100037 9.79422e-07 0)
(0.00100048 1.40825e-06 0)
(0.00100071 1.39556e-06 0)
(0.00100109 1.50722e-06 0)
(0.00100171 2.03705e-06 0)
(0.0010025 2.37496e-06 0)
(0.00100317 1.63693e-06 0)
(0.00100363 -2.27686e-07 0)
(0.00100362 -2.29988e-06 0)
(0.00100293 -3.33812e-06 0)
(0.00100168 -3.04124e-06 0)
(0.00100043 -2.01162e-06 0)
(0.000999557 -1.19966e-06 0)
(0.000999208 -8.83599e-07 0)
(0.000998997 -1.00762e-06 0)
(0.000998902 -1.09026e-06 0)
(0.000998396 -8.95819e-07 0)
(0.00100008 -2.93318e-07 0)
(0.0010004 -4.4213e-07 0)
(0.00100048 1.19453e-07 0)
(0.00100052 8.62824e-07 0)
(0.0010007 1.20672e-06 0)
(0.00100091 1.08812e-06 0)
(0.00100115 1.05979e-06 0)
(0.00100151 1.44224e-06 0)
(0.00100202 1.73917e-06 0)
(0.00100251 1.29291e-06 0)
(0.00100272 9.57044e-08 0)
(0.00100259 -1.2604e-06 0)
(0.00100209 -2.09581e-06 0)
(0.00100124 -2.24615e-06 0)
(0.00100036 -1.95887e-06 0)
(0.000999669 -1.69132e-06 0)
(0.000999236 -1.53869e-06 0)
(0.000998895 -1.5481e-06 0)
(0.000998654 -1.45474e-06 0)
(0.000998252 -1.169e-06 0)
(0.00100009 -1.75838e-07 0)
(0.00100047 -3.53635e-07 0)
(0.00100052 8.49954e-08 0)
(0.00100063 7.11122e-07 0)
(0.00100087 9.80135e-07 0)
(0.00100105 8.3223e-07 0)
(0.00100115 7.69915e-07 0)
(0.00100136 1.09197e-06 0)
(0.00100168 1.39857e-06 0)
(0.00100191 1.08413e-06 0)
(0.00100192 9.52883e-08 0)
(0.00100169 -9.85363e-07 0)
(0.00100129 -1.60861e-06 0)
(0.00100081 -1.67777e-06 0)
(0.00100032 -1.44716e-06 0)
(0.000999832 -1.26914e-06 0)
(0.000999418 -1.14922e-06 0)
(0.000998987 -1.11013e-06 0)
(0.000998658 -9.46673e-07 0)
(0.000998205 -6.40122e-07 0)
(0.00100009 -7.5803e-08 0)
(0.0010005 -2.49604e-07 0)
(0.00100054 5.40073e-08 0)
(0.00100069 5.26492e-07 0)
(0.00100101 7.11927e-07 0)
(0.00100118 5.59321e-07 0)
(0.00100119 4.95214e-07 0)
(0.00100125 7.5051e-07 0)
(0.00100144 9.88335e-07 0)
(0.00100158 7.45823e-07 0)
(0.00100146 2.83739e-08 0)
(0.00100116 -7.47612e-07 0)
(0.00100084 -1.15391e-06 0)
(0.00100053 -1.18734e-06 0)
(0.00100023 -1.05902e-06 0)
(0.00099988 -1.01169e-06 0)
(0.000999507 -1.00736e-06 0)
(0.000999027 -1.04754e-06 0)
(0.000998617 -9.50686e-07 0)
(0.000998151 -7.59224e-07 0)
(0.00100008 -9.98021e-09 0)
(0.00100051 -1.2727e-07 0)
(0.00100054 6.25254e-08 0)
(0.00100072 3.71855e-07 0)
(0.00100107 5.01009e-07 0)
(0.00100124 4.18625e-07 0)
(0.0010012 3.93565e-07 0)
(0.00100117 5.72565e-07 0)
(0.00100125 7.47939e-07 0)
(0.00100127 6.17078e-07 0)
(0.00100109 1.74336e-07 0)
(0.00100075 -2.89549e-07 0)
(0.00100044 -5.36432e-07 0)
(0.00100023 -5.54736e-07 0)
(0.00100008 -4.72105e-07 0)
(0.000999844 -4.55547e-07 0)
(0.00099951 -4.62664e-07 0)
(0.000999021 -4.8754e-07 0)
(0.000998586 -3.8788e-07 0)
(0.000998112 -2.49237e-07 0)
(0.00100007 -1.16807e-08 0)
(0.00100052 -8.46105e-08 0)
(0.00100055 -4.84243e-08 0)
(0.00100075 2.93467e-08 0)
(0.00100115 5.45807e-08 0)
(0.00100133 1.81101e-08 0)
(0.00100124 -7.60302e-09 0)
(0.00100115 2.99399e-08 0)
(0.0010012 6.9833e-08 0)
(0.00100121 2.10386e-08 0)
(0.001001 -1.21654e-07 0)
(0.00100061 -2.91849e-07 0)
(0.00100032 -3.84684e-07 0)
(0.00100016 -3.94217e-07 0)
(0.00100006 -3.75035e-07 0)
(0.000999848 -3.94416e-07 0)
(0.000999563 -4.08149e-07 0)
(0.000999052 -4.3921e-07 0)
(0.00099864 -3.93953e-07 0)
(0.000998056 -4.00372e-07 0)
)
;

boundaryField
{
    sides
    {
        type            slip;
    }
    inlet
    {
        type            fixedValue;
        value           uniform (0.001 0 0);
    }
    outlet
    {
        type            zeroGradient;
    }
    frontAndBack
    {
        type            empty;
    }
}


// ************************************************************************* //
