/*--------------------------------*- C++ -*----------------------------------*\
  =========                 |
  \\      /  F ield         | OpenFOAM: The Open Source CFD Toolbox
   \\    /   O peration     | Website:  https://openfoam.org
    \\  /    A nd           | Version:  9
     \\/     M anipulation  |
\*---------------------------------------------------------------------------*/
FoamFile
{
    format      ascii;
    class       volVectorField;
    location    "12";
    object      hU_0;
}
// * * * * * * * * * * * * * * * * * * * * * * * * * * * * * * * * * * * * * //

dimensions      [0 2 -1 0 0 0 0];

internalField   nonuniform List<vector> 
400
(
(0.00100011 -7.73917e-09 0)
(0.00100048 1.82515e-09 0)
(0.00100053 -9.3378e-08 0)
(0.00100087 -2.1157e-07 0)
(0.00100131 -2.46471e-07 0)
(0.00100144 -2.22578e-07 0)
(0.00100126 -2.33239e-07 0)
(0.0010011 -3.25787e-07 0)
(0.0010011 -4.09719e-07 0)
(0.0010011 -3.66918e-07 0)
(0.00100089 -2.21227e-07 0)
(0.0010006 -8.04831e-08 0)
(0.00100042 -1.07456e-08 0)
(0.00100044 -9.35362e-09 0)
(0.00100048 -2.64677e-08 0)
(0.00100043 -5.15542e-08 0)
(0.00100012 -5.50938e-08 0)
(0.000999762 -8.98705e-08 0)
(0.000999272 -9.47975e-08 0)
(0.000999106 -2.4726e-07 0)
(0.00100012 4.47766e-08 0)
(0.00100048 1.41031e-07 0)
(0.00100055 -6.74491e-08 0)
(0.00100086 -3.34269e-07 0)
(0.00100129 -3.97997e-07 0)
(0.00100142 -2.92172e-07 0)
(0.00100127 -2.81096e-07 0)
(0.00100116 -4.83284e-07 0)
(0.00100122 -6.52984e-07 0)
(0.00100128 -5.08236e-07 0)
(0.00100112 -7.39379e-08 0)
(0.00100084 3.63305e-07 0)
(0.00100064 6.05971e-07 0)
(0.00100059 6.51927e-07 0)
(0.00100054 6.27789e-07 0)
(0.0010004 6.17245e-07 0)
(0.0010001 6.48787e-07 0)
(0.000999737 5.838e-07 0)
(0.000999307 4.81886e-07 0)
(0.000999015 1.25029e-07 0)
(0.00100013 1.172e-07 0)
(0.00100047 2.24529e-07 0)
(0.00100055 -1.54795e-07 0)
(0.0010008 -6.0623e-07 0)
(0.00100114 -7.4025e-07 0)
(0.00100129 -5.93736e-07 0)
(0.00100124 -6.11079e-07 0)
(0.00100123 -9.55656e-07 0)
(0.00100136 -1.22341e-06 0)
(0.00100148 -9.87767e-07 0)
(0.00100141 -3.10835e-07 0)
(0.00100119 3.73978e-07 0)
(0.00100097 7.26649e-07 0)
(0.0010008 7.49592e-07 0)
(0.00100058 6.67582e-07 0)
(0.00100034 6.20074e-07 0)
(0.000999949 6.32434e-07 0)
(0.000999554 5.61955e-07 0)
(0.000999087 4.40844e-07 0)
(0.000998906 -1.82113e-08 0)
(0.00100013 2.30025e-07 0)
(0.00100043 3.14272e-07 0)
(0.00100052 -2.13347e-07 0)
(0.0010007 -8.09456e-07 0)
(0.00100099 -9.80743e-07 0)
(0.00100116 -7.91635e-07 0)
(0.00100121 -8.07859e-07 0)
(0.00100136 -1.2251e-06 0)
(0.00100166 -1.53329e-06 0)
(0.00100192 -1.1662e-06 0)
(0.00100196 -1.91695e-07 0)
(0.00100179 8.05258e-07 0)
(0.00100148 1.36391e-06 0)
(0.0010011 1.42233e-06 0)
(0.00100067 1.24785e-06 0)
(0.00100024 1.07836e-06 0)
(0.000999869 9.81576e-07 0)
(0.000999535 8.23694e-07 0)
(0.000999201 6.53481e-07 0)
(0.000998851 9.3331e-08 0)
(0.00100011 3.57144e-07 0)
(0.00100036 3.76927e-07 0)
(0.00100046 -2.78635e-07 0)
(0.00100057 -9.88768e-07 0)
(0.00100079 -1.23062e-06 0)
(0.001001 -1.07951e-06 0)
(0.0010012 -1.13555e-06 0)
(0.00100154 -1.60794e-06 0)
(0.00100202 -1.90661e-06 0)
(0.0010025 -1.43794e-06 0)
(0.00100276 -2.92542e-07 0)
(0.0010027 9.57277e-07 0)
(0.00100223 1.70745e-06 0)
(0.00100144 1.82863e-06 0)
(0.00100059 1.58873e-06 0)
(0.000999943 1.33123e-06 0)
(0.000999509 1.19787e-06 0)
(0.000999241 1.05363e-06 0)
(0.00099898 8.9665e-07 0)
(0.000998751 2.92323e-07 0)
(0.00100006 4.59287e-07 0)
(0.00100025 4.03786e-07 0)
(0.00100035 -3.42914e-07 0)
(0.00100037 -1.13017e-06 0)
(0.00100052 -1.45886e-06 0)
(0.00100078 -1.39986e-06 0)
(0.00100115 -1.57564e-06 0)
(0.00100176 -2.18088e-06 0)
(0.00100252 -2.52355e-06 0)
(0.00100322 -1.77307e-06 0)
(0.00100373 3.92364e-08 0)
(0.0010038 1.9537e-06 0)
(0.00100315 2.8645e-06 0)
(0.00100189 2.53391e-06 0)
(0.00100061 1.59278e-06 0)
(0.000999743 8.48412e-07 0)
(0.000999419 6.0181e-07 0)
(0.000999288 6.19076e-07 0)
(0.000999188 6.75144e-07 0)
(0.000998772 1.61999e-07 0)
(0.000999997 5.05647e-07 0)
(0.0010001 3.73806e-07 0)
(0.00100019 -3.92156e-07 0)
(0.0010001 -1.22128e-06 0)
(0.00100017 -1.63236e-06 0)
(0.00100044 -1.76999e-06 0)
(0.00100094 -2.12569e-06 0)
(0.00100183 -3.04721e-06 0)
(0.00100317 -3.62893e-06 0)
(0.00100473 -3.28158e-06 0)
(0.0010058 -6.84188e-07 0)
(0.00100549 2.90105e-06 0)
(0.00100367 5.20036e-06 0)
(0.00100122 4.92178e-06 0)
(0.00099949 3.15839e-06 0)
(0.000998902 1.62799e-06 0)
(0.000999137 1.05094e-06 0)
(0.000999332 9.87043e-07 0)
(0.000999332 1.10295e-06 0)
(0.000998744 6.31309e-07 0)
(0.00099992 4.52137e-07 0)
(0.000999938 3.02582e-07 0)
(0.000999959 -4.05302e-07 0)
(0.000999761 -1.16297e-06 0)
(0.000999703 -1.75843e-06 0)
(0.000999954 -2.15898e-06 0)
(0.00100041 -3.02643e-06 0)
(0.0010015 -3.98783e-06 0)
(0.00100307 -4.58041e-06 0)
(0.00100596 -2.78031e-06 0)
(0.00100914 8.25348e-07 0)
(0.00100944 4.57781e-06 0)
(0.0010059 4.98758e-06 0)
(0.00100099 2.91384e-06 0)
(0.000998111 8.51636e-07 0)
(0.000997805 4.9432e-08 0)
(0.000998798 2.39648e-07 0)
(0.000999463 5.51837e-07 0)
(0.000999701 6.75738e-07 0)
(0.000998927 2.13141e-07 0)
(0.000999854 3.23323e-07 0)
(0.000999791 1.7808e-07 0)
(0.000999723 -2.90411e-07 0)
(0.000999302 -8.68492e-07 0)
(0.000999013 -1.43159e-06 0)
(0.000999021 -2.32828e-06 0)
(0.000999593 -4.38989e-06 0)
(0.00100134 -7.8915e-06 0)
(0.00100488 -1.33426e-05 0)
(0.00100959 -1.50401e-05 0)
(0.00101206 3.89919e-06 0)
(0.00100922 1.89548e-05 0)
(0.00100265 1.59236e-05 0)
(0.000997922 5.70966e-06 0)
(0.000996931 -3.31573e-07 0)
(0.000997953 -1.03367e-06 0)
(0.00099917 2.21712e-07 0)
(0.00099954 8.6068e-07 0)
(0.000999417 9.26473e-07 0)
(0.000998583 3.60917e-07 0)
(0.000999626 1.02276e-07 0)
(0.000999993 4.10388e-08 0)
(0.000999126 -1.48166e-07 0)
(0.000999604 -3.04905e-07 0)
(0.000997189 -5.98983e-07 0)
(0.000998628 -1.02647e-06 0)
(0.000993243 -2.7141e-06 0)
(0.000997488 -5.43582e-06 0)
(0.000991635 -1.1462e-05 0)
(0.000915811 -1.27164e-05 0)
(0.000951534 2.47026e-07 0)
(0.00101061 1.46601e-05 0)
(0.000991503 1.3075e-05 0)
(0.000984356 5.0377e-06 0)
(0.000989507 1.58012e-07 0)
(0.00099571 -6.20661e-07 0)
(0.000998343 3.16313e-08 0)
(0.000997984 2.64617e-07 0)
(0.000996824 3.54874e-07 0)
(0.000996512 -2.52435e-08 0)
(0.000999629 -1.47532e-07 0)
(0.000999998 -1.43966e-07 0)
(0.000999127 3.65811e-08 0)
(0.000999602 2.25516e-07 0)
(0.000997189 5.85106e-07 0)
(0.000998628 1.07863e-06 0)
(0.00099324 2.79849e-06 0)
(0.000997478 5.50925e-06 0)
(0.000991609 1.14496e-05 0)
(0.000915773 1.26177e-05 0)
(0.000951482 -4.88953e-07 0)
(0.00101058 -1.50573e-05 0)
(0.000991506 -1.3574e-05 0)
(0.000984361 -5.60416e-06 0)
(0.000989492 -7.19896e-07 0)
(0.000995677 7.74431e-08 0)
(0.000998311 -5.12045e-07 0)
(0.000997947 -8.42076e-07 0)
(0.000996795 -9.25297e-07 0)
(0.000996463 -8.93896e-07 0)
(0.00099986 -3.63983e-07 0)
(0.0009998 -2.74241e-07 0)
(0.000999724 1.84572e-07 0)
(0.000999297 7.91579e-07 0)
(0.000998996 1.4129e-06 0)
(0.000998999 2.37288e-06 0)
(0.000999569 4.47216e-06 0)
(0.00100134 7.95689e-06 0)
(0.00100489 1.33373e-05 0)
(0.00100961 1.49034e-05 0)
(0.00101204 -4.1485e-06 0)
(0.00100922 -1.93489e-05 0)
(0.00100256 -1.64117e-05 0)
(0.000997816 -6.26261e-06 0)
(0.000996855 -1.79709e-07 0)
(0.000997892 5.23527e-07 0)
(0.000999076 -6.70099e-07 0)
(0.000999415 -1.41414e-06 0)
(0.000999255 -1.46437e-06 0)
(0.000998416 -1.24864e-06 0)
(0.000999928 -4.84542e-07 0)
(0.000999958 -3.85905e-07 0)
(0.000999961 3.0725e-07 0)
(0.000999749 1.08539e-06 0)
(0.000999688 1.73359e-06 0)
(0.000999935 2.20408e-06 0)
(0.00100039 3.11159e-06 0)
(0.00100148 4.05362e-06 0)
(0.00100303 4.55232e-06 0)
(0.00100591 2.63165e-06 0)
(0.00100908 -1.09003e-06 0)
(0.00100934 -4.98006e-06 0)
(0.00100583 -5.45883e-06 0)
(0.00100092 -3.40686e-06 0)
(0.000998015 -1.3294e-06 0)
(0.000997642 -5.64224e-07 0)
(0.000998609 -7.16628e-07 0)
(0.000999233 -1.12113e-06 0)
(0.000999447 -1.20723e-06 0)
(0.000998637 -1.03422e-06 0)
(0.00100001 -5.28002e-07 0)
(0.00100012 -4.37674e-07 0)
(0.00100019 3.09102e-07 0)
(0.00100008 1.14958e-06 0)
(0.00100015 1.60537e-06 0)
(0.00100042 1.80011e-06 0)
(0.0010009 2.19153e-06 0)
(0.00100179 3.08798e-06 0)
(0.00100316 3.59626e-06 0)
(0.00100473 3.14804e-06 0)
(0.00100578 4.50335e-07 0)
(0.00100543 -3.22129e-06 0)
(0.00100357 -5.60911e-06 0)
(0.00100105 -5.41198e-06 0)
(0.000999281 -3.68485e-06 0)
(0.000998649 -2.16431e-06 0)
(0.000998882 -1.5337e-06 0)
(0.000999034 -1.56531e-06 0)
(0.000999051 -1.65133e-06 0)
(0.000998377 -1.49025e-06 0)
(0.00100007 -4.77621e-07 0)
(0.00100026 -4.52634e-07 0)
(0.00100034 2.73411e-07 0)
(0.00100034 1.06149e-06 0)
(0.00100049 1.42563e-06 0)
(0.00100075 1.41776e-06 0)
(0.00100112 1.62975e-06 0)
(0.00100172 2.22259e-06 0)
(0.00100248 2.49177e-06 0)
(0.00100317 1.62534e-06 0)
(0.00100365 -2.99663e-07 0)
(0.00100366 -2.31474e-06 0)
(0.00100296 -3.28604e-06 0)
(0.00100168 -2.99174e-06 0)
(0.00100037 -2.02408e-06 0)
(0.000999457 -1.26673e-06 0)
(0.000999093 -9.59778e-07 0)
(0.000998894 -1.05089e-06 0)
(0.000998779 -1.06516e-06 0)
(0.000998273 -8.58353e-07 0)
(0.00100011 -3.69661e-07 0)
(0.00100037 -4.13636e-07 0)
(0.00100044 2.2131e-07 0)
(0.00100053 9.30698e-07 0)
(0.00100075 1.19966e-06 0)
(0.00100096 1.0893e-06 0)
(0.00100116 1.16883e-06 0)
(0.00100149 1.62834e-06 0)
(0.00100198 1.87619e-06 0)
(0.00100246 1.31738e-06 0)
(0.00100271 6.79991e-08 0)
(0.0010026 -1.24983e-06 0)
(0.0010021 -2.04049e-06 0)
(0.00100124 -2.20247e-06 0)
(0.00100033 -1.9698e-06 0)
(0.000999606 -1.7484e-06 0)
(0.000999155 -1.59591e-06 0)
(0.000998813 -1.5722e-06 0)
(0.000998547 -1.42167e-06 0)
(0.000998151 -1.13072e-06 0)
(0.00100013 -2.40287e-07 0)
(0.00100043 -3.36381e-07 0)
(0.00100049 1.72004e-07 0)
(0.00100066 7.60073e-07 0)
(0.00100094 9.58329e-07 0)
(0.00100111 8.19965e-07 0)
(0.00100116 8.58561e-07 0)
(0.00100131 1.26194e-06 0)
(0.00100161 1.53589e-06 0)
(0.00100184 1.13046e-06 0)
(0.00100186 1.06597e-07 0)
(0.00100165 -9.47152e-07 0)
(0.00100128 -1.53989e-06 0)
(0.00100081 -1.62786e-06 0)
(0.00100032 -1.45016e-06 0)
(0.000999806 -1.3084e-06 0)
(0.000999372 -1.1814e-06 0)
(0.00099893 -1.11412e-06 0)
(0.00099857 -9.05786e-07 0)
(0.000998123 -6.02107e-07 0)
(0.00100013 -1.25304e-07 0)
(0.00100047 -2.42707e-07 0)
(0.00100051 1.18656e-07 0)
(0.00100074 5.57604e-07 0)
(0.00100111 6.83938e-07 0)
(0.00100126 5.38937e-07 0)
(0.00100119 5.58937e-07 0)
(0.00100118 8.85518e-07 0)
(0.00100135 1.10852e-06 0)
(0.00100148 8.02404e-07 0)
(0.00100136 5.22584e-08 0)
(0.00100107 -6.98693e-07 0)
(0.0010008 -1.08773e-06 0)
(0.00100053 -1.14805e-06 0)
(0.00100025 -1.06356e-06 0)
(0.000999892 -1.03622e-06 0)
(0.000999492 -1.02108e-06 0)
(0.000998986 -1.04146e-06 0)
(0.000998541 -9.16942e-07 0)
(0.000998083 -7.29646e-07 0)
(0.00100012 -4.32055e-08 0)
(0.00100047 -1.24111e-07 0)
(0.0010005 1.02516e-07 0)
(0.00100078 3.88361e-07 0)
(0.00100118 4.80501e-07 0)
(0.00100133 4.00184e-07 0)
(0.0010012 4.28886e-07 0)
(0.00100109 6.58548e-07 0)
(0.00100114 8.34608e-07 0)
(0.00100116 6.66205e-07 0)
(0.00100097 2.14259e-07 0)
(0.00100064 -2.40376e-07 0)
(0.00100037 -4.86341e-07 0)
(0.00100024 -5.28307e-07 0)
(0.00100013 -4.73939e-07 0)
(0.000999887 -4.67176e-07 0)
(0.000999518 -4.64916e-07 0)
(0.000998989 -4.77972e-07 0)
(0.000998517 -3.60746e-07 0)
(0.000998054 -2.2849e-07 0)
(0.00100011 -2.48002e-08 0)
(0.00100049 -8.312e-08 0)
(0.0010005 -3.45942e-08 0)
(0.00100081 3.35725e-08 0)
(0.00100127 4.93184e-08 0)
(0.00100141 1.20616e-08 0)
(0.00100123 3.37369e-09 0)
(0.00100107 5.97316e-08 0)
(0.00100109 1.01605e-07 0)
(0.00100109 4.31962e-08 0)
(0.00100086 -9.65019e-08 0)
(0.00100047 -2.67649e-07 0)
(0.00100024 -3.62442e-07 0)
(0.00100015 -3.81638e-07 0)
(0.00100012 -3.74136e-07 0)
(0.000999907 -3.97078e-07 0)
(0.000999583 -4.06543e-07 0)
(0.000999026 -4.34013e-07 0)
(0.000998574 -3.82647e-07 0)
(0.000997998 -3.93038e-07 0)
)
;

boundaryField
{
    sides
    {
        type            slip;
    }
    inlet
    {
        type            fixedValue;
        value           uniform (0.001 0 0);
    }
    outlet
    {
        type            zeroGradient;
    }
    frontAndBack
    {
        type            empty;
    }
}


// ************************************************************************* //
