/*--------------------------------*- C++ -*----------------------------------*\
  =========                 |
  \\      /  F ield         | OpenFOAM: The Open Source CFD Toolbox
   \\    /   O peration     | Website:  https://openfoam.org
    \\  /    A nd           | Version:  9
     \\/     M anipulation  |
\*---------------------------------------------------------------------------*/
FoamFile
{
    format      ascii;
    class       volVectorField;
    location    "53";
    object      ddtCorrDdt0(hU);
}
// * * * * * * * * * * * * * * * * * * * * * * * * * * * * * * * * * * * * * //

dimensions      [0 2 -2 0 0 0 0];

internalField   nonuniform List<vector> 
400
(
(3.22541e-09 1.44975e-09 0)
(7.05721e-09 -3.09863e-09 0)
(9.64524e-09 -4.64763e-09 0)
(1.01949e-08 -2.71678e-09 0)
(7.91687e-09 -2.61484e-09 0)
(3.35123e-09 -1.49289e-09 0)
(-1.26745e-09 -3.19205e-09 0)
(-3.05411e-09 -3.78009e-09 0)
(-9.04705e-10 -4.94825e-09 0)
(-2.87705e-09 -1.47251e-09 0)
(-5.74766e-09 2.24097e-09 0)
(-1.07094e-08 9.69195e-10 0)
(-9.49886e-09 5.10142e-10 0)
(-4.50568e-09 -2.6606e-09 0)
(-2.48765e-09 -1.57168e-09 0)
(-3.77002e-09 1.40487e-09 0)
(-1.0737e-08 3.99395e-09 0)
(-1.37979e-08 3.60937e-09 0)
(-5.74936e-09 3.25832e-10 0)
(-3.45217e-09 -5.83576e-10 0)
(-4.48161e-10 2.74697e-09 0)
(4.40682e-09 -7.37309e-09 0)
(8.27442e-09 -1.04588e-08 0)
(9.63111e-09 -7.85158e-09 0)
(8.12562e-09 -6.90194e-09 0)
(3.9722e-09 -4.25791e-09 0)
(4.47555e-11 -6.71572e-09 0)
(-2.46787e-09 -1.06938e-08 0)
(-2.1328e-09 -1.06402e-08 0)
(1.12228e-10 -5.01347e-09 0)
(-7.05402e-09 5.12817e-09 0)
(-8.62992e-09 4.13746e-09 0)
(-9.26169e-09 -1.72681e-09 0)
(-6.68734e-09 -6.72313e-09 0)
(-2.28896e-09 -5.26715e-09 0)
(-3.46478e-09 1.87777e-09 0)
(-7.77445e-09 9.43874e-09 0)
(-1.08323e-08 4.68002e-09 0)
(-7.9037e-09 -5.6495e-09 0)
(-5.05862e-09 -2.53491e-09 0)
(-2.19488e-09 -5.36957e-10 0)
(1.05107e-09 -9.65348e-09 0)
(5.2746e-09 -1.219e-08 0)
(7.56359e-09 -1.09671e-08 0)
(7.15856e-09 -7.27843e-09 0)
(5.7059e-09 -4.19196e-09 0)
(8.58586e-10 -8.79716e-09 0)
(-2.17712e-10 -1.70336e-08 0)
(-2.41936e-09 -1.61133e-08 0)
(-2.43584e-10 -3.57389e-09 0)
(-2.37241e-09 2.38957e-09 0)
(-1.30235e-08 1.20009e-08 0)
(-9.73861e-09 -2.96538e-09 0)
(-8.33491e-09 -8.927e-09 0)
(-4.61802e-09 -5.56123e-09 0)
(-1.93186e-09 2.15126e-09 0)
(-6.43509e-09 9.37706e-09 0)
(-1.39613e-08 3.57049e-09 0)
(-1.03691e-08 -5.81955e-09 0)
(-4.19146e-09 -2.42898e-09 0)
(-1.17694e-09 -6.045e-09 0)
(5.40811e-10 -1.18213e-08 0)
(3.70267e-09 -1.30674e-08 0)
(5.15704e-09 -1.12971e-08 0)
(6.50787e-09 -4.58361e-09 0)
(4.63689e-09 -2.54352e-09 0)
(2.31942e-09 -1.28133e-08 0)
(-2.21057e-09 -1.96687e-08 0)
(5.52307e-09 -2.1151e-08 0)
(-8.0229e-09 4.46065e-09 0)
(3.13538e-09 1.09532e-08 0)
(-7.3571e-09 9.34226e-09 0)
(-2.17088e-08 8.29816e-09 0)
(-9.97041e-09 -5.75702e-09 0)
(-8.95789e-09 -2.97634e-09 0)
(-7.12624e-09 6.9358e-09 0)
(-4.3421e-09 1.1269e-08 0)
(-7.11996e-09 -6.46144e-11 0)
(-1.09636e-08 -9.42974e-09 0)
(-1.01207e-08 -2.40753e-09 0)
(8.58779e-10 -8.63538e-09 0)
(2.93806e-09 -1.36713e-08 0)
(3.2044e-09 -1.44106e-08 0)
(3.46536e-09 -1.05379e-08 0)
(4.1356e-09 -2.40961e-09 0)
(3.46876e-09 -3.98798e-09 0)
(1.57023e-09 -1.23967e-08 0)
(2.23801e-09 -2.25624e-08 0)
(2.52598e-09 -3.24729e-09 0)
(1.20307e-08 -7.51719e-09 0)
(-2.6152e-08 3.00825e-08 0)
(8.24316e-09 2.73327e-09 0)
(-1.20584e-08 2.69629e-09 0)
(-2.89344e-08 5.36536e-09 0)
(-1.44608e-08 4.5822e-09 0)
(-9.90139e-09 1.15998e-08 0)
(-1.06061e-08 1.42949e-08 0)
(-1.19291e-08 -1.25395e-09 0)
(-9.73988e-09 -1.32302e-08 0)
(-7.5686e-09 -3.37025e-09 0)
(2.40747e-09 -7.10623e-09 0)
(5.43377e-09 -1.39322e-08 0)
(3.60222e-09 -1.59195e-08 0)
(1.66348e-09 -1.05543e-08 0)
(1.50552e-09 -4.05743e-09 0)
(1.80172e-09 -4.252e-09 0)
(1.01076e-09 -1.11533e-08 0)
(1.36884e-08 -1.11418e-08 0)
(-5.95599e-09 -1.74159e-09 0)
(1.53528e-08 -4.98096e-09 0)
(-1.31382e-09 -7.69479e-09 0)
(-2.75635e-08 2.398e-08 0)
(1.98676e-08 -1.64792e-08 0)
(-1.02057e-08 -6.97369e-09 0)
(-3.00377e-08 8.21158e-09 0)
(-2.1305e-08 1.55073e-08 0)
(-1.40274e-08 1.76431e-08 0)
(-1.07573e-08 4.51383e-09 0)
(-1.14356e-08 -7.38408e-09 0)
(-1.12181e-08 -1.88404e-09 0)
(2.58371e-09 -3.28492e-09 0)
(6.42693e-09 -1.16097e-08 0)
(2.75481e-09 -1.58523e-08 0)
(-5.62559e-10 -1.23017e-08 0)
(-4.89829e-10 -7.09467e-09 0)
(2.84289e-10 -3.53744e-09 0)
(9.29806e-09 -4.24931e-09 0)
(6.10153e-09 -3.96572e-09 0)
(1.74905e-08 -1.90584e-08 0)
(-4.87462e-08 2.97734e-08 0)
(7.36957e-08 -6.38392e-08 0)
(7.76075e-09 5.94559e-09 0)
(-2.02334e-08 8.11556e-10 0)
(1.30332e-08 -1.93415e-08 0)
(-9.1904e-09 -3.27834e-09 0)
(-2.29472e-08 1.45322e-08 0)
(-1.86669e-08 2.04538e-08 0)
(-1.38802e-08 8.85263e-09 0)
(-1.36805e-08 -4.37659e-09 0)
(-1.34495e-08 -2.96338e-10 0)
(1.89561e-09 1.31634e-11 0)
(5.20844e-09 -7.96393e-09 0)
(5.40251e-10 -1.36718e-08 0)
(-2.97936e-09 -1.30597e-08 0)
(-1.26028e-09 -7.93935e-09 0)
(3.97089e-09 -9.43318e-10 0)
(8.34961e-09 2.14674e-09 0)
(8.31202e-09 -1.15096e-08 0)
(2.11069e-08 -1.88521e-08 0)
(-3.09966e-08 -3.34695e-08 0)
(-4.99785e-07 7.73053e-08 0)
(1.21275e-07 -1.20612e-08 0)
(8.13533e-09 -1.65303e-08 0)
(-1.19712e-08 -1.81147e-08 0)
(-3.55744e-09 -1.6805e-08 0)
(-1.27588e-08 3.16241e-09 0)
(-1.50383e-08 1.67691e-08 0)
(-1.3183e-08 1.03575e-08 0)
(-1.68385e-08 1.09129e-10 0)
(-1.77231e-08 4.70218e-10 0)
(7.85336e-10 1.14127e-09 0)
(3.37725e-09 -4.72472e-09 0)
(-2.25485e-09 -1.01595e-08 0)
(-4.9064e-09 -1.0146e-08 0)
(-2.75028e-10 -5.33707e-09 0)
(6.08388e-09 2.10867e-09 0)
(6.91133e-09 2.82737e-09 0)
(3.97372e-09 -1.24915e-08 0)
(-1.88446e-08 -1.90444e-08 0)
(3.076e-08 -3.19239e-08 0)
(5.04913e-07 7.0989e-08 0)
(-1.27596e-07 -9.35635e-09 0)
(-8.7564e-09 -1.2168e-08 0)
(6.99738e-09 -1.78167e-08 0)
(-1.23841e-09 -1.64134e-08 0)
(1.55229e-09 -5.32754e-09 0)
(-2.8372e-09 6.84969e-09 0)
(-9.92298e-09 4.58838e-09 0)
(-1.82394e-08 6.96046e-10 0)
(-1.88962e-08 3.23843e-09 0)
(2.10136e-10 5.09143e-10 0)
(1.74059e-09 -2.12504e-09 0)
(-3.70105e-09 -5.43265e-09 0)
(-5.68018e-09 -4.82104e-09 0)
(9.58602e-10 -4.60409e-10 0)
(8.05394e-09 1.4662e-09 0)
(4.09103e-09 1.67768e-10 0)
(4.3366e-10 -2.57807e-09 0)
(-1.04804e-08 -1.31083e-08 0)
(3.67376e-08 4.0373e-08 0)
(-7.05601e-08 -6.55888e-08 0)
(-9.89467e-09 1.53248e-08 0)
(5.06546e-09 1.93262e-08 0)
(-2.28654e-08 -7.00578e-09 0)
(-4.39684e-09 -3.31093e-09 0)
(3.55521e-09 -3.00185e-09 0)
(-1.80001e-09 -2.46562e-09 0)
(-6.20402e-09 -2.39147e-09 0)
(-1.35025e-08 -2.66443e-10 0)
(-2.1785e-08 3.33775e-09 0)
(2.95428e-10 -3.24614e-10 0)
(1.37379e-09 8.67631e-10 0)
(-4.02089e-09 4.1327e-10 0)
(-5.07087e-09 1.00875e-09 0)
(9.90774e-10 1.82715e-09 0)
(6.81675e-09 -4.03348e-10 0)
(6.6494e-09 -2.94169e-09 0)
(-5.12318e-09 5.07397e-09 0)
(1.79688e-08 1.61005e-08 0)
(-1.0014e-08 -5.08272e-09 0)
(-5.43213e-08 3.80841e-08 0)
(4.59993e-08 1.75289e-08 0)
(-4.31082e-08 -5.16077e-09 0)
(-2.04241e-08 9.31482e-09 0)
(-4.99977e-10 5.5658e-09 0)
(-3.73797e-09 -1.51131e-09 0)
(-5.66296e-09 -5.65896e-09 0)
(-6.17567e-09 -4.1072e-09 0)
(-1.29313e-08 1.65015e-09 0)
(-1.85364e-08 2.2225e-09 0)
(1.25301e-09 -1.87948e-10 0)
(2.02177e-09 4.33243e-09 0)
(-3.24395e-09 6.50274e-09 0)
(-4.53996e-09 5.37119e-09 0)
(6.23948e-10 2.17984e-09 0)
(4.96561e-09 -2.87803e-09 0)
(5.90231e-09 1.97924e-09 0)
(6.85793e-09 1.30963e-08 0)
(-1.06809e-08 2.40794e-08 0)
(4.50387e-08 -5.34746e-09 0)
(4.29211e-07 -4.62429e-08 0)
(-9.44777e-08 -2.05694e-08 0)
(2.6325e-09 -7.81161e-09 0)
(5.89933e-10 1.08478e-08 0)
(-1.12723e-08 7.1507e-09 0)
(-1.00886e-08 -1.5494e-09 0)
(-9.95445e-09 -6.7714e-09 0)
(-8.93124e-09 -3.87789e-09 0)
(-1.29413e-08 5.1588e-09 0)
(-1.75133e-08 4.64663e-09 0)
(2.3673e-09 1.72997e-09 0)
(2.97303e-09 7.54836e-09 0)
(-2.03769e-09 1.11435e-08 0)
(-3.79871e-09 7.90593e-09 0)
(-4.08947e-10 1.66246e-09 0)
(5.74898e-09 -2.97018e-09 0)
(1.06137e-08 3.13633e-09 0)
(6.38468e-09 2.01799e-08 0)
(1.44476e-08 1.78713e-08 0)
(-6.64906e-08 6.92599e-10 0)
(-3.92825e-07 -3.93305e-08 0)
(8.74707e-08 -2.38026e-08 0)
(-1.03812e-09 -2.55834e-10 0)
(4.76542e-09 7.74724e-09 0)
(-1.16241e-09 5.69202e-09 0)
(-1.18687e-08 -5.52525e-09 0)
(-1.59674e-08 -1.19836e-08 0)
(-1.32189e-08 -3.82328e-09 0)
(-1.35061e-08 8.95231e-09 0)
(-1.70692e-08 5.8616e-09 0)
(2.56741e-09 4.44717e-09 0)
(3.02848e-09 9.72956e-09 0)
(-1.18722e-09 1.28782e-08 0)
(-2.78544e-09 9.048e-09 0)
(-2.17911e-10 2.18623e-09 0)
(4.9185e-09 -8.59344e-10 0)
(1.08927e-08 2.28107e-09 0)
(1.19133e-08 1.19004e-08 0)
(-1.11731e-08 1.94246e-08 0)
(1.38454e-08 2.02331e-09 0)
(3.03646e-08 5.41541e-08 0)
(-4.36066e-08 -1.5281e-09 0)
(2.48333e-08 1.21235e-08 0)
(1.40097e-08 1.57148e-08 0)
(-4.37764e-09 2.736e-09 0)
(-1.54567e-08 -1.31365e-08 0)
(-1.7595e-08 -1.83634e-08 0)
(-1.34329e-08 -5.84066e-09 0)
(-1.38802e-08 9.10178e-09 0)
(-1.63047e-08 5.39745e-09 0)
(1.67064e-09 5.64898e-09 0)
(1.65468e-09 1.02902e-08 0)
(-3.37629e-10 1.23932e-08 0)
(-7.01038e-10 9.40549e-09 0)
(7.97069e-10 4.34425e-09 0)
(3.31336e-09 3.65887e-09 0)
(8.16981e-09 6.02836e-09 0)
(9.58135e-09 8.52799e-09 0)
(5.72221e-09 8.95516e-09 0)
(5.41521e-09 2.13067e-08 0)
(-5.77058e-09 -2.9098e-08 0)
(1.34717e-08 9.14014e-09 0)
(8.96254e-09 1.76847e-08 0)
(-3.0506e-09 1.0777e-08 0)
(-1.37073e-08 -3.17534e-09 0)
(-1.92859e-08 -1.80188e-08 0)
(-1.80289e-08 -2.19861e-08 0)
(-1.40105e-08 -8.41333e-09 0)
(-1.26399e-08 7.6445e-09 0)
(-1.20816e-08 4.58593e-09 0)
(1.1127e-10 4.13338e-09 0)
(2.99629e-10 1.01038e-08 0)
(9.32108e-10 1.19238e-08 0)
(2.69302e-09 9.1882e-09 0)
(3.34556e-09 5.22611e-09 0)
(2.73127e-09 7.70419e-09 0)
(2.76311e-09 1.23052e-08 0)
(5.90144e-09 1.21743e-08 0)
(4.7092e-09 6.06649e-09 0)
(-4.49127e-09 -5.53993e-09 0)
(-4.79112e-09 -1.2019e-08 0)
(6.47707e-09 -1.01935e-08 0)
(-4.33684e-09 -3.63324e-09 0)
(-1.43857e-08 -4.05602e-10 0)
(-1.79662e-08 -8.1816e-09 0)
(-1.83656e-08 -2.04686e-08 0)
(-1.62434e-08 -2.31758e-08 0)
(-1.26149e-08 -6.79589e-09 0)
(-9.35914e-09 1.03748e-08 0)
(-6.5164e-09 5.50929e-09 0)
(-5.30074e-10 1.23853e-09 0)
(4.48603e-10 9.19275e-09 0)
(3.12723e-09 1.21427e-08 0)
(5.90823e-09 8.22918e-09 0)
(6.74809e-09 4.02066e-09 0)
(2.99791e-09 7.1971e-09 0)
(-3.91656e-10 1.57374e-08 0)
(2.93796e-10 1.88094e-08 0)
(1.91445e-09 1.09805e-08 0)
(2.09049e-09 -2.33608e-09 0)
(-3.80761e-09 -9.43327e-09 0)
(-8.37667e-09 -1.48092e-08 0)
(-1.1111e-08 -8.30565e-09 0)
(-1.44061e-08 -2.46875e-09 0)
(-1.59298e-08 -6.68723e-09 0)
(-1.3625e-08 -1.67191e-08 0)
(-9.47757e-09 -1.85868e-08 0)
(-8.26334e-09 -2.31624e-09 0)
(-6.97308e-09 1.3921e-08 0)
(-4.24306e-09 7.15322e-09 0)
(-3.48674e-10 -2.10815e-10 0)
(2.31288e-09 7.26289e-09 0)
(5.73091e-09 1.0678e-08 0)
(8.81465e-09 7.16154e-09 0)
(9.11766e-09 1.6705e-09 0)
(4.26539e-09 3.49697e-09 0)
(-1.99689e-09 1.28464e-08 0)
(-2.47986e-09 2.05277e-08 0)
(8.32983e-10 1.763e-08 0)
(1.76051e-09 5.53614e-09 0)
(-1.91309e-09 -8.14756e-09 0)
(-7.17554e-09 -9.5181e-09 0)
(-1.22614e-08 -3.11942e-09 0)
(-1.29115e-08 2.73195e-09 0)
(-1.00565e-08 6.02919e-10 0)
(-6.13252e-09 -7.03856e-09 0)
(-4.37482e-09 -1.01297e-08 0)
(-6.26806e-09 1.23016e-09 0)
(-6.1379e-09 1.33255e-08 0)
(-5.52165e-09 6.70607e-09 0)
(-6.79089e-10 -3.95543e-10 0)
(4.29653e-09 4.07434e-09 0)
(8.04383e-09 6.24204e-09 0)
(1.05661e-08 5.27856e-09 0)
(1.01233e-08 1.22147e-09 0)
(4.83134e-09 2.52678e-10 0)
(-1.58127e-09 6.4948e-09 0)
(-3.4753e-09 1.32964e-08 0)
(-3.3104e-10 1.44845e-08 0)
(-3.20547e-10 7.68087e-09 0)
(-4.45995e-09 1.35349e-10 0)
(-8.34759e-09 -2.67514e-09 0)
(-8.30237e-09 1.52672e-09 0)
(-4.85916e-09 6.95001e-09 0)
(-3.22241e-09 6.20558e-09 0)
(-2.74933e-09 2.54948e-10 0)
(-4.14326e-09 -3.43607e-09 0)
(-8.06117e-09 2.42614e-09 0)
(-8.27515e-09 9.03213e-09 0)
(-8.30616e-09 4.17975e-09 0)
(-1.74104e-09 -2.72892e-10 0)
(5.53211e-09 9.92576e-10 0)
(9.82423e-09 1.68118e-09 0)
(1.20769e-08 1.9528e-09 0)
(1.06235e-08 9.61015e-10 0)
(4.7228e-09 -1.69325e-10 0)
(-1.86139e-09 1.55228e-09 0)
(-3.93718e-09 3.62243e-09 0)
(-7.91412e-10 4.95396e-09 0)
(-1.80345e-10 3.27763e-09 0)
(-3.73616e-09 2.19914e-09 0)
(-8.42695e-09 1.59746e-09 0)
(-7.09155e-09 2.93203e-09 0)
(-3.60641e-09 4.18898e-09 0)
(-2.67808e-09 3.24624e-09 0)
(-2.41276e-09 9.81748e-10 0)
(-4.70998e-09 -5.42813e-10 0)
(-9.87978e-09 1.02285e-09 0)
(-1.0852e-08 2.99144e-09 0)
(-1.01675e-08 1.30108e-09 0)
)
;

boundaryField
{
    sides
    {
        type            calculated;
        value           nonuniform List<vector> 
40
(
(-1.74104e-09 0 0)
(5.53211e-09 0 0)
(9.82423e-09 0 0)
(1.20769e-08 0 0)
(1.06235e-08 0 0)
(4.7228e-09 0 0)
(-1.86139e-09 0 0)
(-3.93718e-09 0 0)
(-7.91412e-10 0 0)
(-1.80345e-10 0 0)
(-3.73616e-09 0 0)
(-8.42695e-09 0 0)
(-7.09155e-09 0 0)
(-3.60641e-09 0 0)
(-2.67808e-09 0 0)
(-2.41276e-09 0 0)
(-4.70998e-09 0 0)
(-9.87978e-09 0 0)
(-1.0852e-08 0 0)
(-1.01675e-08 0 0)
(3.22541e-09 0 0)
(7.05721e-09 0 0)
(9.64524e-09 0 0)
(1.01949e-08 0 0)
(7.91687e-09 0 0)
(3.35123e-09 0 0)
(-1.26745e-09 0 0)
(-3.05411e-09 0 0)
(-9.04705e-10 0 0)
(-2.87705e-09 0 0)
(-5.74766e-09 0 0)
(-1.07094e-08 0 0)
(-9.49886e-09 0 0)
(-4.50568e-09 0 0)
(-2.48765e-09 0 0)
(-3.77002e-09 0 0)
(-1.0737e-08 0 0)
(-1.37979e-08 0 0)
(-5.74936e-09 0 0)
(-3.45217e-09 0 0)
)
;
    }
    inlet
    {
        type            calculated;
        value           uniform (0 0 0);
    }
    outlet
    {
        type            calculated;
        value           nonuniform List<vector> 
20
(
(-3.45217e-09 -5.83576e-10 0)
(-5.05862e-09 -2.53491e-09 0)
(-4.19146e-09 -2.42898e-09 0)
(-1.01207e-08 -2.40753e-09 0)
(-7.5686e-09 -3.37025e-09 0)
(-1.12181e-08 -1.88404e-09 0)
(-1.34495e-08 -2.96338e-10 0)
(-1.77231e-08 4.70218e-10 0)
(-1.88962e-08 3.23843e-09 0)
(-2.1785e-08 3.33775e-09 0)
(-1.85364e-08 2.2225e-09 0)
(-1.75133e-08 4.64663e-09 0)
(-1.70692e-08 5.8616e-09 0)
(-1.63047e-08 5.39745e-09 0)
(-1.20816e-08 4.58593e-09 0)
(-6.5164e-09 5.50929e-09 0)
(-4.24306e-09 7.15322e-09 0)
(-5.52165e-09 6.70607e-09 0)
(-8.30616e-09 4.17975e-09 0)
(-1.01675e-08 1.30108e-09 0)
)
;
    }
    frontAndBack
    {
        type            empty;
    }
}


// ************************************************************************* //
