/*--------------------------------*- C++ -*----------------------------------*\
  =========                 |
  \\      /  F ield         | OpenFOAM: The Open Source CFD Toolbox
   \\    /   O peration     | Website:  https://openfoam.org
    \\  /    A nd           | Version:  9
     \\/     M anipulation  |
\*---------------------------------------------------------------------------*/
FoamFile
{
    format      ascii;
    class       volScalarField;
    location    "53";
    object      h_0;
}
// * * * * * * * * * * * * * * * * * * * * * * * * * * * * * * * * * * * * * //

dimensions      [0 1 0 0 0 0 0];

internalField   nonuniform List<scalar> 
400
(
0.0100003
0.0100003
0.0100002
0.0100001
0.00999987
0.00999966
0.00999943
0.00999919
0.00999898
0.00999882
0.00999874
0.00999875
0.00999888
0.00999909
0.00999936
0.00999964
0.00999986
0.01
0.0100001
0.01
0.0100003
0.0100002
0.0100001
0.00999998
0.00999979
0.00999957
0.00999931
0.00999904
0.0099988
0.0099986
0.0099985
0.00999853
0.00999869
0.00999895
0.00999926
0.00999955
0.00999977
0.0099999
0.00999996
0.00999998
0.0100003
0.0100002
0.0100001
0.01
0.0099998
0.00999956
0.00999927
0.00999896
0.00999866
0.00999842
0.00999828
0.0099983
0.00999849
0.00999882
0.00999924
0.00999963
0.00999991
0.01
0.0100001
0.01
0.0100003
0.0100003
0.0100002
0.0100001
0.00999984
0.00999956
0.00999922
0.00999882
0.00999841
0.00999804
0.00999783
0.00999784
0.00999816
0.00999869
0.00999928
0.00999972
0.00999994
0.00999997
0.00999995
0.00999996
0.0100005
0.0100004
0.0100003
0.0100002
0.00999995
0.00999964
0.00999922
0.00999869
0.00999811
0.00999752
0.00999713
0.00999715
0.00999764
0.00999854
0.0099995
0.0100001
0.0100003
0.0100002
0.0100001
0.00999999
0.0100006
0.0100006
0.0100005
0.0100004
0.0100002
0.00999982
0.0099993
0.00999858
0.00999769
0.00999687
0.00999626
0.00999624
0.00999701
0.00999837
0.00999969
0.0100004
0.0100005
0.0100002
0.00999992
0.00999991
0.0100007
0.0100007
0.0100007
0.0100007
0.0100005
0.0100002
0.00999964
0.00999862
0.0099971
0.00999533
0.00999414
0.00999448
0.00999665
0.00999944
0.0100013
0.0100015
0.0100008
0.01
0.00999973
0.00999987
0.0100009
0.0100009
0.010001
0.010001
0.010001
0.0100008
0.0100003
0.00999924
0.00999735
0.00999424
0.0099905
0.00999019
0.00999444
0.0100002
0.0100033
0.010003
0.0100012
0.00999983
0.00999948
0.00999982
0.010001
0.0100011
0.0100013
0.0100015
0.0100018
0.0100019
0.0100014
0.00999946
0.00999548
0.00998973
0.00998672
0.00998971
0.00999801
0.0100036
0.0100044
0.0100024
0.0100003
0.00999932
0.00999942
0.00999987
0.010001
0.0100011
0.0100014
0.0100019
0.0100026
0.010004
0.0100058
0.0100078
0.0100049
0.00897845
0.00895237
0.00997582
0.0100088
0.0100178
0.0100104
0.0100023
0.00999882
0.00999888
0.00999976
0.0100001
0.0100009
0.0100011
0.0100013
0.0100018
0.0100026
0.010004
0.0100058
0.0100077
0.0100048
0.00897839
0.00895238
0.00997576
0.0100087
0.0100177
0.0100104
0.0100023
0.00999882
0.00999886
0.00999973
0.0100001
0.0100008
0.0100009
0.0100011
0.0100013
0.0100016
0.0100017
0.0100012
0.00999927
0.00999529
0.00998952
0.00998652
0.00998954
0.00999788
0.0100035
0.0100043
0.0100022
0.0100002
0.0099993
0.00999944
0.00999988
0.0100005
0.0100006
0.0100007
0.0100007
0.0100007
0.0100005
0.01
0.00999895
0.00999707
0.009994
0.00999027
0.00998995
0.0099942
0.0099999
0.010003
0.0100028
0.0100011
0.00999975
0.00999945
0.00999982
0.0100003
0.0100003
0.0100002
0.0100002
0.0100001
0.00999976
0.00999919
0.00999818
0.00999667
0.00999493
0.0099937
0.00999412
0.00999631
0.00999914
0.010001
0.0100013
0.0100006
0.00999988
0.00999962
0.00999983
0.00999997
0.00999995
0.00999989
0.00999977
0.00999957
0.00999924
0.00999873
0.00999801
0.00999716
0.00999635
0.00999579
0.00999578
0.0099966
0.009998
0.00999936
0.0100001
0.0100002
0.00999997
0.00999981
0.00999988
0.0099997
0.00999966
0.00999958
0.00999944
0.00999922
0.00999892
0.00999852
0.00999801
0.00999743
0.00999687
0.0099965
0.00999655
0.00999709
0.00999802
0.00999902
0.00999972
0.01
0.00999997
0.0099999
0.00999993
0.00999946
0.00999942
0.00999933
0.00999918
0.00999898
0.00999871
0.00999838
0.00999801
0.00999762
0.00999729
0.00999712
0.00999717
0.00999752
0.0099981
0.00999876
0.0099993
0.00999962
0.00999976
0.00999983
0.00999992
0.00999926
0.00999922
0.00999913
0.00999899
0.00999879
0.00999855
0.00999828
0.00999799
0.00999771
0.00999748
0.00999737
0.00999744
0.00999769
0.0099981
0.00999858
0.00999903
0.00999938
0.00999962
0.00999978
0.00999991
0.00999911
0.00999906
0.00999898
0.00999885
0.00999867
0.00999846
0.00999822
0.00999799
0.00999778
0.00999762
0.00999756
0.00999762
0.00999781
0.00999814
0.00999853
0.00999893
0.00999928
0.00999955
0.00999975
0.00999991
0.00999897
0.00999892
0.00999883
0.0099987
0.00999853
0.00999832
0.0099981
0.00999789
0.00999769
0.00999756
0.00999752
0.00999759
0.00999778
0.00999806
0.0099984
0.00999877
0.00999911
0.00999939
0.00999964
0.00999986
)
;

boundaryField
{
    sides
    {
        type            zeroGradient;
    }
    inlet
    {
        type            zeroGradient;
    }
    outlet
    {
        type            fixedValue;
        value           uniform 0.01;
    }
    frontAndBack
    {
        type            empty;
    }
}


// ************************************************************************* //
