/*--------------------------------*- C++ -*----------------------------------*\
  =========                 |
  \\      /  F ield         | OpenFOAM: The Open Source CFD Toolbox
   \\    /   O peration     | Website:  https://openfoam.org
    \\  /    A nd           | Version:  9
     \\/     M anipulation  |
\*---------------------------------------------------------------------------*/
FoamFile
{
    format      ascii;
    class       surfaceScalarField;
    location    "53";
    object      phi;
}
// * * * * * * * * * * * * * * * * * * * * * * * * * * * * * * * * * * * * * //

dimensions      [0 4 -1 0 0 0 0];

internalField   nonuniform List<scalar> 
760
(
5.0001e-06
-9.46127e-11
5.0004e-06
-3.08292e-10
5.00091e-06
-5.10356e-10
5.00161e-06
-6.9742e-10
5.00247e-06
-8.69684e-10
5.00347e-06
-1.00707e-09
5.00454e-06
-1.07188e-09
5.00555e-06
-1.02551e-09
5.00638e-06
-8.38709e-10
5.00688e-06
-5.26607e-10
5.007e-06
-1.30365e-10
5.00661e-06
3.75483e-10
5.00577e-06
8.34508e-10
5.00467e-06
1.09262e-09
5.00349e-06
1.1725e-09
5.00253e-06
9.57017e-10
5.00182e-06
7.12837e-10
5.00159e-06
2.31525e-10
5.00149e-06
1.0187e-10
-3.89336e-10
5.00012e-06
-2.17263e-10
5.00045e-06
-6.37335e-10
5.00098e-06
-1.03974e-09
5.00171e-06
-1.42931e-09
5.00263e-06
-1.79677e-09
5.00372e-06
-2.10088e-09
5.00491e-06
-2.26832e-09
5.00609e-06
-2.21523e-09
5.0071e-06
-1.86371e-09
5.00773e-06
-1.17387e-09
5.0077e-06
-1.1434e-10
5.00721e-06
8.55725e-10
5.00623e-06
1.80536e-09
5.00493e-06
2.39535e-09
5.00365e-06
2.4447e-09
5.00274e-06
1.86388e-09
5.00222e-06
1.23869e-09
5.00189e-06
5.5904e-10
5.00163e-06
3.5901e-10
-1.41478e-10
5.00011e-06
-3.29004e-10
5.00043e-06
-9.57597e-10
5.00096e-06
-1.56793e-09
5.00171e-06
-2.18644e-09
5.0027e-06
-2.79169e-09
5.00392e-06
-3.32314e-09
5.0053e-06
-3.65331e-09
5.0067e-06
-3.62561e-09
5.0079e-06
-3.07779e-09
5.00869e-06
-1.9659e-09
5.00889e-06
-3.28397e-10
5.00822e-06
1.52824e-09
5.00684e-06
3.17797e-09
5.00513e-06
4.1078e-09
5.00348e-06
4.09576e-09
5.00228e-06
3.06901e-09
5.00163e-06
1.88194e-09
5.00146e-06
7.34071e-10
5.00143e-06
3.84385e-10
-2.1536e-10
5.00009e-06
-4.31248e-10
5.0004e-06
-1.26796e-09
5.00094e-06
-2.10194e-09
5.00173e-06
-2.98511e-09
5.00284e-06
-3.89394e-09
5.00426e-06
-4.75655e-09
5.00599e-06
-5.38835e-09
5.00792e-06
-5.56713e-09
5.00981e-06
-4.96794e-09
5.01104e-06
-3.19304e-09
5.01116e-06
-4.40709e-10
5.00995e-06
2.72743e-09
5.00762e-06
5.52594e-09
5.00511e-06
6.61738e-09
5.00345e-06
5.77182e-09
5.00268e-06
3.84863e-09
5.00246e-06
2.10626e-09
5.00229e-06
9.04271e-10
5.00197e-06
6.97031e-10
3.47886e-10
5.00008e-06
-5.1254e-10
5.00033e-06
-1.52683e-09
5.00082e-06
-2.59564e-09
5.00162e-06
-3.78581e-09
5.00284e-06
-5.11427e-09
5.00455e-06
-6.47623e-09
5.00677e-06
-7.61383e-09
5.00939e-06
-8.18936e-09
5.01236e-06
-7.92046e-09
5.01474e-06
-5.58997e-09
5.01479e-06
-4.76956e-10
5.01282e-06
4.71147e-09
5.00863e-06
9.69549e-09
5.00456e-06
1.07028e-08
5.00221e-06
8.14045e-09
5.00171e-06
4.35445e-09
5.00202e-06
1.80762e-09
5.00224e-06
6.90969e-10
5.002e-06
9.43645e-10
6.39335e-10
5.00003e-06
-5.51462e-10
5.00019e-06
-1.68137e-09
5.00052e-06
-2.9363e-09
5.00119e-06
-4.45914e-09
5.00239e-06
-6.31707e-09
5.00449e-06
-8.58938e-09
5.00756e-06
-1.06912e-08
5.01165e-06
-1.22443e-08
5.01549e-06
-1.17824e-08
5.01899e-06
-9.05839e-09
5.02017e-06
-1.6959e-09
5.01599e-06
8.91882e-09
5.00947e-06
1.62093e-08
5.00417e-06
1.59875e-08
5.00214e-06
1.01812e-08
5.00247e-06
4.03365e-09
5.00325e-06
1.04127e-09
5.00337e-06
5.76828e-10
5.00278e-06
1.5455e-09
1.43518e-09
4.99997e-06
-5.28619e-10
4.99992e-06
-1.63682e-09
5.00001e-06
-3.02885e-09
5.00034e-06
-4.79276e-09
5.00119e-06
-7.18082e-09
5.00289e-06
-1.02883e-08
5.00677e-06
-1.45592e-08
5.0139e-06
-1.93613e-08
5.02372e-06
-2.1611e-08
5.03089e-06
-1.62281e-08
5.02873e-06
5.47339e-10
5.0167e-06
2.08807e-08
5.00416e-06
2.87666e-08
4.9987e-06
2.14392e-08
5.00054e-06
8.32874e-09
5.00282e-06
1.75549e-09
5.00369e-06
1.76351e-10
5.00364e-06
6.41976e-10
5.00302e-06
2.1691e-09
1.69464e-09
4.99986e-06
-3.91979e-10
4.99953e-06
-1.32082e-09
4.9991e-06
-2.60304e-09
4.99883e-06
-4.5275e-09
4.9993e-06
-7.65775e-09
5.00033e-06
-1.13086e-08
5.00362e-06
-1.78368e-08
5.00979e-06
-2.55246e-08
5.02487e-06
-3.66813e-08
5.05608e-06
-4.75411e-08
5.05004e-06
5.89996e-09
5.02316e-06
4.77701e-08
4.99814e-06
5.37498e-08
4.99347e-06
2.61113e-08
4.99944e-06
2.34805e-09
5.00405e-06
-2.86167e-09
5.00488e-06
-6.57765e-10
5.0037e-06
1.83331e-09
5.00348e-06
2.39144e-09
9.79998e-10
4.99976e-06
-1.58452e-10
4.99913e-06
-7.0405e-10
4.99789e-06
-1.37362e-09
4.99608e-06
-2.7216e-09
4.99399e-06
-5.5666e-09
4.99372e-06
-1.10231e-08
4.99942e-06
-2.35334e-08
5.0171e-06
-4.32057e-08
5.05565e-06
-7.52387e-08
5.06682e-06
-5.85957e-08
5.04969e-06
2.3708e-08
4.99648e-06
1.00991e-07
4.98929e-06
6.09874e-08
4.99589e-06
1.95248e-08
5.00018e-06
-1.93589e-09
5.00292e-06
-5.60682e-09
5.0025e-06
-2.46073e-10
5.00181e-06
2.52178e-09
5.00251e-06
1.68933e-09
8.66613e-11
4.99984e-06
-1.5421e-11
4.99918e-06
-5.0189e-11
4.99788e-06
-8.33308e-11
4.99527e-06
-1.21092e-10
4.98987e-06
-1.56904e-10
4.97907e-06
-2.05812e-10
4.95579e-06
-2.60948e-10
4.91291e-06
-3.23863e-10
4.8381e-06
-4.0817e-10
4.77996e-06
-4.37654e-10
4.80424e-06
-6.07108e-10
4.90602e-06
-7.08191e-10
4.96775e-06
-7.41123e-10
4.9882e-06
-9.00324e-10
4.98744e-06
-1.15838e-09
4.98326e-06
-1.42078e-09
4.98454e-06
-1.55009e-09
4.98887e-06
-1.81761e-09
4.99244e-06
-1.88252e-09
-2.58413e-09
4.99984e-06
1.27615e-10
4.99918e-06
6.03361e-10
4.99787e-06
1.21206e-09
4.99526e-06
2.48547e-09
4.98985e-06
5.26096e-09
4.97903e-06
1.06209e-08
4.95574e-06
2.30339e-08
4.91285e-06
4.25591e-08
4.83802e-06
7.44798e-08
4.7797e-06
5.78301e-08
4.80424e-06
-2.50913e-08
4.90596e-06
-1.02455e-07
4.96773e-06
-6.25066e-08
4.98805e-06
-2.11886e-08
4.98735e-06
-4.49881e-10
4.98292e-06
2.99837e-09
4.98441e-06
-3.04254e-09
4.98886e-06
-6.26667e-09
4.99231e-06
-5.34238e-09
-4.98647e-09
4.99975e-06
3.60756e-10
4.99912e-06
1.22507e-09
4.99788e-06
2.44228e-09
4.99607e-06
4.29547e-09
4.99399e-06
7.34247e-09
4.99371e-06
1.09096e-08
4.9994e-06
1.73486e-08
5.01704e-06
2.49274e-08
5.05558e-06
3.59246e-08
5.06712e-06
4.63787e-08
5.04941e-06
-6.66884e-09
4.99607e-06
-4.90839e-08
4.98882e-06
-5.52323e-08
4.99566e-06
-2.8028e-08
5.00008e-06
-4.86791e-09
5.0023e-06
7.84172e-10
5.00164e-06
-2.37922e-09
5.00088e-06
-5.50504e-09
5.00165e-06
-6.11802e-09
-5.95742e-09
4.99985e-06
4.98089e-10
4.99952e-06
1.54498e-09
4.99908e-06
2.8765e-09
4.9988e-06
4.57324e-09
4.99925e-06
6.89357e-09
5.00024e-06
9.92063e-09
5.00345e-06
1.41481e-08
5.00957e-06
1.8807e-08
5.02457e-06
2.0937e-08
5.05549e-06
1.53992e-08
5.04978e-06
-1.61499e-09
5.02281e-06
-2.2137e-08
4.99784e-06
-3.02681e-08
4.99313e-06
-2.3315e-08
4.99861e-06
-1.03538e-08
5.00342e-06
-4.03365e-09
5.00371e-06
-2.66157e-09
5.00233e-06
-4.12329e-09
5.00214e-06
-5.92102e-09
-6.54368e-09
4.99997e-06
5.22663e-10
4.99991e-06
1.59635e-09
4.99998e-06
2.79763e-09
5.00028e-06
4.26491e-09
5.0011e-06
6.06566e-09
5.00276e-06
8.26268e-09
5.00666e-06
1.02687e-08
5.01376e-06
1.17056e-08
5.02353e-06
1.11377e-08
5.03069e-06
8.28868e-09
5.02836e-06
6.36665e-10
5.01623e-06
-9.98521e-09
5.00348e-06
-1.75069e-08
4.99774e-06
-1.75913e-08
4.99938e-06
-1.20003e-08
5.00158e-06
-6.23729e-09
5.00238e-06
-3.45523e-09
5.00211e-06
-3.84533e-09
5.00117e-06
-4.98247e-09
-5.98708e-09
5.00003e-06
4.85637e-10
5.00017e-06
1.45275e-09
5.00048e-06
2.4751e-09
5.00113e-06
3.61531e-09
5.00229e-06
4.89198e-09
5.00436e-06
6.18879e-09
5.00739e-06
7.25218e-09
5.01137e-06
7.73296e-09
5.0151e-06
7.39836e-09
5.0185e-06
4.87005e-09
5.01953e-06
-4.02563e-10
5.01521e-06
-5.66586e-09
5.00851e-06
-1.08303e-08
5.00307e-06
-1.21672e-08
5.00084e-06
-9.77345e-09
5.00098e-06
-6.37099e-09
5.00153e-06
-3.9981e-09
5.00129e-06
-3.60491e-09
5.00033e-06
-4.01916e-09
-4.9872e-09
5.00007e-06
4.05965e-10
5.00031e-06
1.20718e-09
5.00078e-06
2.00566e-09
5.00155e-06
2.84288e-09
5.00273e-06
3.70711e-09
5.00438e-06
4.52362e-09
5.00653e-06
5.10261e-09
5.00907e-06
5.19931e-09
5.012e-06
4.46569e-09
5.01437e-06
2.49795e-09
5.01411e-06
-1.31582e-10
5.01205e-06
-3.61022e-09
5.00771e-06
-6.50597e-09
5.00344e-06
-7.90601e-09
5.00088e-06
-7.20859e-09
5.0001e-06
-5.56857e-09
5.00008e-06
-3.97096e-09
4.99986e-06
-3.3766e-09
4.99916e-06
-3.31509e-09
-4.18091e-09
5.00009e-06
3.04887e-10
5.00039e-06
9.08738e-10
5.0009e-06
1.4971e-09
5.00166e-06
2.07873e-09
5.00272e-06
2.64351e-09
5.0041e-06
3.13095e-09
5.00576e-06
3.42352e-09
5.00761e-06
3.35239e-09
5.0093e-06
2.77368e-09
5.01023e-06
1.57468e-09
5.01039e-06
-2.95413e-10
5.00899e-06
-2.20604e-09
5.00646e-06
-3.97656e-09
5.00363e-06
-5.06712e-09
5.0015e-06
-5.06705e-09
5.00031e-06
-4.36218e-09
4.99968e-06
-3.32801e-09
4.99915e-06
-2.84584e-09
4.99844e-06
-2.60172e-09
-3.22222e-09
5.0001e-06
2.00268e-10
5.00041e-06
5.98554e-10
5.00092e-06
9.82484e-10
5.00165e-06
1.34971e-09
5.0026e-06
1.68947e-09
5.00376e-06
1.96048e-09
5.00507e-06
2.09181e-09
5.00643e-06
1.98328e-09
5.00762e-06
1.57186e-09
5.00836e-06
8.34041e-10
5.00817e-06
-1.13378e-10
5.00729e-06
-1.32937e-09
5.00566e-06
-2.34496e-09
5.00365e-06
-3.04833e-09
5.00176e-06
-3.16753e-09
5.0003e-06
-2.89708e-09
4.99929e-06
-2.30931e-09
4.9985e-06
-2.06227e-09
4.99772e-06
-1.8158e-09
-2.28327e-09
5.00008e-06
1.14906e-10
5.00037e-06
3.06697e-10
5.00086e-06
4.91918e-10
5.00153e-06
6.7006e-10
5.00239e-06
8.30853e-10
5.00339e-06
9.52885e-10
5.00446e-06
1.00611e-09
5.00549e-06
9.46597e-10
5.0063e-06
7.43393e-10
5.00676e-06
3.65993e-10
5.00676e-06
-1.34243e-10
5.00603e-06
-6.10844e-10
5.00476e-06
-1.07134e-09
5.00312e-06
-1.41458e-09
5.00145e-06
-1.495e-09
4.99998e-06
-1.43428e-09
4.99885e-06
-1.17786e-09
4.99791e-06
-1.11872e-09
4.99706e-06
-9.67871e-10
-1.42769e-09
5.00012e-06
5.00042e-06
5.00091e-06
5.00157e-06
5.0024e-06
5.00334e-06
5.00434e-06
5.00528e-06
5.00601e-06
5.00636e-06
5.0062e-06
5.00558e-06
5.0045e-06
5.00307e-06
5.00157e-06
5.00013e-06
4.99895e-06
4.99783e-06
4.99686e-06
)
;

boundaryField
{
    sides
    {
        type            calculated;
        value           uniform 0;
    }
    inlet
    {
        type            calculated;
        value           nonuniform List<scalar> 
20
(
-5e-06
-5e-06
-5e-06
-5e-06
-5e-06
-5e-06
-5e-06
-5e-06
-5e-06
-5e-06
-5e-06
-5e-06
-5e-06
-5e-06
-5e-06
-5e-06
-5e-06
-5e-06
-5e-06
-5e-06
)
;
    }
    outlet
    {
        type            calculated;
        value           nonuniform List<scalar> 
20
(
5.00188e-06
5.00138e-06
5.00151e-06
5.00141e-06
5.00171e-06
5.00199e-06
5.00277e-06
5.0042e-06
5.00341e-06
4.9951e-06
4.99472e-06
5.00262e-06
5.00272e-06
5.00061e-06
4.99934e-06
4.99835e-06
4.99748e-06
4.99678e-06
4.9962e-06
4.99543e-06
)
;
    }
    frontAndBack
    {
        type            empty;
        value           nonuniform List<scalar> 0();
    }
}


// ************************************************************************* //
