/*--------------------------------*- C++ -*----------------------------------*\
  =========                 |
  \\      /  F ield         | OpenFOAM: The Open Source CFD Toolbox
   \\    /   O peration     | Website:  https://openfoam.org
    \\  /    A nd           | Version:  9
     \\/     M anipulation  |
\*---------------------------------------------------------------------------*/
FoamFile
{
    format      ascii;
    class       surfaceScalarField;
    location    "53";
    object      phi_0;
}
// * * * * * * * * * * * * * * * * * * * * * * * * * * * * * * * * * * * * * //

dimensions      [0 4 -1 0 0 0 0];

internalField   nonuniform List<scalar> 
760
(
5.00009e-06
-9.57819e-11
5.0004e-06
-3.05713e-10
5.0009e-06
-5.07081e-10
5.0016e-06
-6.94565e-10
5.00247e-06
-8.66554e-10
5.00347e-06
-1.00553e-09
5.00454e-06
-1.06956e-09
5.00555e-06
-1.02236e-09
5.00638e-06
-8.35381e-10
5.00689e-06
-5.24969e-10
5.007e-06
-1.32439e-10
5.00661e-06
3.74066e-10
5.00577e-06
8.34173e-10
5.00467e-06
1.0952e-09
5.00349e-06
1.17442e-09
5.00253e-06
9.5537e-10
5.00182e-06
7.08958e-10
5.0016e-06
2.29931e-10
5.0015e-06
1.03839e-10
-3.88332e-10
5.00012e-06
-2.17532e-10
5.00045e-06
-6.32917e-10
5.00097e-06
-1.03441e-09
5.00171e-06
-1.42396e-09
5.00263e-06
-1.79281e-09
5.00372e-06
-2.09871e-09
5.00491e-06
-2.26505e-09
5.00609e-06
-2.20813e-09
5.0071e-06
-1.85747e-09
5.00773e-06
-1.17145e-09
5.00771e-06
-1.16528e-10
5.00722e-06
8.49992e-10
5.00624e-06
1.80584e-09
5.00493e-06
2.39867e-09
5.00365e-06
2.44758e-09
5.00275e-06
1.86283e-09
5.00222e-06
1.23389e-09
5.00189e-06
5.56917e-10
5.00164e-06
3.61203e-10
-1.40218e-10
5.00011e-06
-3.27006e-10
5.00042e-06
-9.52608e-10
5.00095e-06
-1.56125e-09
5.00171e-06
-2.18013e-09
5.0027e-06
-2.78839e-09
5.00392e-06
-3.32175e-09
5.0053e-06
-3.64759e-09
5.0067e-06
-3.61673e-09
5.0079e-06
-3.06747e-09
5.00869e-06
-1.96787e-09
5.00889e-06
-3.3085e-10
5.00822e-06
1.51959e-09
5.00685e-06
3.17427e-09
5.00513e-06
4.11059e-09
5.00348e-06
4.09675e-09
5.00228e-06
3.06597e-09
5.00164e-06
1.876e-09
5.00146e-06
7.32704e-10
5.00143e-06
3.8885e-10
-2.14212e-10
5.0001e-06
-4.27581e-10
5.0004e-06
-1.26193e-09
5.00094e-06
-2.09468e-09
5.00173e-06
-2.97902e-09
5.00283e-06
-3.89213e-09
5.00426e-06
-4.75434e-09
5.00599e-06
-5.38212e-09
5.00792e-06
-5.55698e-09
5.00981e-06
-4.96319e-09
5.01104e-06
-3.19289e-09
5.01116e-06
-4.5834e-10
5.00996e-06
2.72572e-09
5.00762e-06
5.51959e-09
5.00512e-06
6.61481e-09
5.00345e-06
5.77088e-09
5.00268e-06
3.84379e-09
5.00246e-06
2.09945e-09
5.00229e-06
9.0288e-10
5.00198e-06
7.01132e-10
3.49213e-10
5.00007e-06
-5.08679e-10
5.00033e-06
-1.51988e-09
5.00082e-06
-2.5876e-09
5.00162e-06
-3.78048e-09
5.00284e-06
-5.11211e-09
5.00455e-06
-6.47366e-09
5.00677e-06
-7.60916e-09
5.00938e-06
-8.18221e-09
5.01236e-06
-7.92433e-09
5.01474e-06
-5.58124e-09
5.0148e-06
-4.78667e-10
5.01281e-06
4.70041e-09
5.00864e-06
9.7047e-09
5.00457e-06
1.07044e-08
5.00222e-06
8.13557e-09
5.00172e-06
4.34723e-09
5.00203e-06
1.79857e-09
5.00225e-06
6.88319e-10
5.002e-06
9.48069e-10
6.407e-10
5.00003e-06
-5.4897e-10
5.00018e-06
-1.67456e-09
5.00052e-06
-2.92808e-09
5.00119e-06
-4.4529e-09
5.00239e-06
-6.31364e-09
5.00449e-06
-8.58804e-09
5.00756e-06
-1.06883e-08
5.01163e-06
-1.22483e-08
5.0155e-06
-1.17657e-08
5.01898e-06
-9.07468e-09
5.02017e-06
-1.66467e-09
5.016e-06
8.91067e-09
5.00947e-06
1.62097e-08
5.00418e-06
1.60008e-08
5.00215e-06
1.01847e-08
5.00248e-06
4.0276e-09
5.00326e-06
1.0314e-09
5.00338e-06
5.72427e-10
5.00279e-06
1.54787e-09
1.43578e-09
4.99997e-06
-5.27865e-10
4.99992e-06
-1.63158e-09
5.00001e-06
-3.02078e-09
5.00034e-06
-4.78557e-09
5.00119e-06
-7.17682e-09
5.00289e-06
-1.02885e-08
5.00676e-06
-1.45621e-08
5.0139e-06
-1.93526e-08
5.02371e-06
-2.16111e-08
5.03092e-06
-1.6214e-08
5.0287e-06
4.11362e-10
5.01671e-06
2.09145e-08
5.00416e-06
2.87712e-08
4.9987e-06
2.14443e-08
5.00055e-06
8.3358e-09
5.00283e-06
1.75461e-09
5.0037e-06
1.68644e-10
5.00365e-06
6.37718e-10
5.00303e-06
2.1702e-09
1.69466e-09
4.99985e-06
-3.9229e-10
4.99953e-06
-1.31723e-09
4.9991e-06
-2.59644e-09
4.99883e-06
-4.52084e-09
4.9993e-06
-7.65494e-09
5.00032e-06
-1.13109e-08
5.00361e-06
-1.78368e-08
5.00979e-06
-2.55198e-08
5.02486e-06
-3.66643e-08
5.05611e-06
-4.7528e-08
5.05005e-06
7.63111e-09
5.02313e-06
4.77095e-08
4.99814e-06
5.37565e-08
4.99347e-06
2.61202e-08
4.99944e-06
2.3577e-09
5.00406e-06
-2.85958e-09
5.00489e-06
-6.60678e-10
5.0037e-06
1.8309e-09
5.00349e-06
2.39238e-09
9.79831e-10
4.99976e-06
-1.58742e-10
4.99913e-06
-7.02052e-10
4.99789e-06
-1.36926e-09
4.99608e-06
-2.71804e-09
4.99399e-06
-5.56542e-09
4.99371e-06
-1.10248e-08
4.99942e-06
-2.35334e-08
5.0171e-06
-4.31963e-08
5.05566e-06
-7.52413e-08
5.06679e-06
-5.8586e-08
5.04968e-06
2.35899e-08
4.99651e-06
1.01018e-07
4.98929e-06
6.09835e-08
4.99589e-06
1.95248e-08
5.00018e-06
-1.92966e-09
5.00292e-06
-5.60475e-09
5.00251e-06
-2.60576e-10
5.00182e-06
2.52225e-09
5.00252e-06
1.69018e-09
7.86852e-11
4.99985e-06
-1.5289e-11
4.99918e-06
-4.96277e-11
4.99788e-06
-8.22318e-11
4.99527e-06
-1.20748e-10
4.98987e-06
-1.5762e-10
4.97906e-06
-2.04704e-10
4.95579e-06
-2.59433e-10
4.91291e-06
-3.28597e-10
4.8381e-06
-4.02863e-10
4.77994e-06
-4.58302e-10
4.80428e-06
-5.89132e-10
4.90602e-06
-7.15537e-10
4.96776e-06
-7.50059e-10
4.98821e-06
-8.98358e-10
4.98745e-06
-1.15829e-09
4.98326e-06
-1.42111e-09
4.98454e-06
-1.5498e-09
4.98888e-06
-1.81616e-09
4.99245e-06
-1.88246e-09
-2.58498e-09
4.99984e-06
1.27905e-10
4.99918e-06
6.01929e-10
4.99787e-06
1.20993e-09
4.99526e-06
2.48326e-09
4.98985e-06
5.26056e-09
4.97903e-06
1.06223e-08
4.95574e-06
2.3035e-08
4.91285e-06
4.25525e-08
4.83799e-06
7.44636e-08
4.77972e-06
5.78479e-08
4.80424e-06
-2.49872e-08
4.90595e-06
-1.02468e-07
4.96775e-06
-6.24877e-08
4.98805e-06
-2.11859e-08
4.98735e-06
-4.53072e-10
4.98293e-06
2.99857e-09
4.98441e-06
-3.03986e-09
4.98886e-06
-6.26524e-09
4.99232e-06
-5.34438e-09
-4.98846e-09
4.99975e-06
3.6043e-10
4.99912e-06
1.22148e-09
4.99788e-06
2.43727e-09
4.99607e-06
4.29203e-09
4.99399e-06
7.34223e-09
4.9937e-06
1.09122e-08
4.99939e-06
1.73452e-08
5.01704e-06
2.49212e-08
5.05559e-06
3.59257e-08
5.06708e-06
4.63726e-08
5.04941e-06
-8.31654e-09
4.99609e-06
-4.90513e-08
4.98882e-06
-5.523e-08
4.99566e-06
-2.80283e-08
5.00009e-06
-4.86898e-09
5.0023e-06
7.85312e-10
5.00164e-06
-2.37483e-09
5.00088e-06
-5.50404e-09
5.00166e-06
-6.12221e-09
-5.96043e-09
4.99985e-06
4.96512e-10
4.99952e-06
1.53999e-09
4.99908e-06
2.86976e-09
4.9988e-06
4.5689e-09
4.99925e-06
6.89349e-09
5.00023e-06
9.92274e-09
5.00344e-06
1.41476e-08
5.00957e-06
1.87986e-08
5.02456e-06
2.09249e-08
5.05554e-06
1.54131e-08
5.04976e-06
-1.60655e-09
5.02279e-06
-2.21441e-08
4.99784e-06
-3.02629e-08
4.99313e-06
-2.33193e-08
4.99861e-06
-1.03562e-08
5.00343e-06
-4.03083e-09
5.00372e-06
-2.65555e-09
5.00234e-06
-4.12073e-09
5.00214e-06
-5.92564e-09
-6.54686e-09
4.99997e-06
5.20175e-10
4.99991e-06
1.59103e-09
4.99998e-06
2.79071e-09
5.00028e-06
4.25977e-09
5.00111e-06
6.06402e-09
5.00276e-06
8.2635e-09
5.00665e-06
1.02687e-08
5.01376e-06
1.17013e-08
5.02354e-06
1.1127e-08
5.03067e-06
8.2759e-09
5.02836e-06
6.41679e-10
5.01624e-06
-9.97857e-09
5.00347e-06
-1.7517e-08
4.99773e-06
-1.76004e-08
4.99938e-06
-1.20033e-08
5.00159e-06
-6.2324e-09
5.00239e-06
-3.44605e-09
5.00211e-06
-3.84084e-09
5.00118e-06
-4.98609e-09
-5.98977e-09
5.00003e-06
4.83166e-10
5.00017e-06
1.44795e-09
5.00048e-06
2.46872e-09
5.00113e-06
3.60979e-09
5.0023e-06
4.88849e-09
5.00436e-06
6.1863e-09
5.00738e-06
7.25044e-09
5.01137e-06
7.73054e-09
5.0151e-06
7.39466e-09
5.01849e-06
4.86509e-09
5.01953e-06
-3.97776e-10
5.0152e-06
-5.66987e-09
5.0085e-06
-1.0835e-08
5.00307e-06
-1.21728e-08
5.00084e-06
-9.77311e-09
5.00098e-06
-6.36267e-09
5.00154e-06
-3.9863e-09
5.0013e-06
-3.59926e-09
5.00034e-06
-4.0223e-09
-4.98958e-09
5.00007e-06
4.04506e-10
5.00031e-06
1.20251e-09
5.00078e-06
1.99989e-09
5.00155e-06
2.83793e-09
5.00273e-06
3.70363e-09
5.00438e-06
4.5192e-09
5.00653e-06
5.09686e-09
5.00907e-06
5.19412e-09
5.012e-06
4.46366e-09
5.01437e-06
2.50045e-09
5.01411e-06
-1.23565e-10
5.01204e-06
-3.60457e-09
5.00771e-06
-6.50421e-09
5.00345e-06
-7.90611e-09
5.00089e-06
-7.20495e-09
5.00011e-06
-5.55866e-09
5.00009e-06
-3.95922e-09
4.99986e-06
-3.37242e-09
4.99916e-06
-3.31973e-09
-4.18382e-09
5.00009e-06
3.04477e-10
5.00039e-06
9.04559e-10
5.00089e-06
1.49162e-09
5.00166e-06
2.07532e-09
5.00271e-06
2.64158e-09
5.0041e-06
3.12725e-09
5.00576e-06
3.41579e-09
5.0076e-06
3.34277e-09
5.0093e-06
2.76756e-09
5.01023e-06
1.57579e-09
5.0104e-06
-2.89732e-10
5.009e-06
-2.19687e-09
5.00647e-06
-3.9712e-09
5.00364e-06
-5.06559e-09
5.00151e-06
-5.06415e-09
5.00032e-06
-4.35461e-09
4.99969e-06
-3.31927e-09
4.99916e-06
-2.84451e-09
4.99844e-06
-2.60818e-09
-3.22578e-09
5.0001e-06
1.99912e-10
5.00041e-06
5.95907e-10
5.00091e-06
9.78508e-10
5.00164e-06
1.34689e-09
5.00259e-06
1.68909e-09
5.00376e-06
1.9591e-09
5.00507e-06
2.08616e-09
5.00643e-06
1.97369e-09
5.00762e-06
1.56329e-09
5.00836e-06
8.31572e-10
5.00817e-06
-1.09686e-10
5.00729e-06
-1.3242e-09
5.00567e-06
-2.34283e-09
5.00366e-06
-3.04929e-09
5.00176e-06
-3.16776e-09
5.0003e-06
-2.89392e-09
4.99929e-06
-2.30516e-09
4.99851e-06
-2.06342e-09
4.99772e-06
-1.82213e-09
-2.28646e-09
5.00008e-06
1.14464e-10
5.00037e-06
3.05474e-10
5.00085e-06
4.90127e-10
5.00153e-06
6.6832e-10
5.00238e-06
8.30729e-10
5.00339e-06
9.53108e-10
5.00447e-06
1.00358e-09
5.00549e-06
9.41216e-10
5.0063e-06
7.37301e-10
5.00676e-06
3.6252e-10
5.00676e-06
-1.33795e-10
5.00604e-06
-6.09849e-10
5.00476e-06
-1.07158e-09
5.00313e-06
-1.41672e-09
5.00145e-06
-1.4969e-09
4.99998e-06
-1.43424e-09
4.99885e-06
-1.17704e-09
4.99791e-06
-1.12003e-09
4.99706e-06
-9.71284e-10
-1.42934e-09
5.00012e-06
5.00042e-06
5.0009e-06
5.00156e-06
5.00239e-06
5.00334e-06
5.00434e-06
5.00528e-06
5.00601e-06
5.00636e-06
5.0062e-06
5.00558e-06
5.0045e-06
5.00308e-06
5.00157e-06
5.00013e-06
4.99895e-06
4.99783e-06
4.99687e-06
)
;

boundaryField
{
    sides
    {
        type            calculated;
        value           uniform 0;
    }
    inlet
    {
        type            calculated;
        value           nonuniform List<scalar> 
20
(
-5e-06
-5e-06
-5e-06
-5e-06
-5e-06
-5e-06
-5e-06
-5e-06
-5e-06
-5e-06
-5e-06
-5e-06
-5e-06
-5e-06
-5e-06
-5e-06
-5e-06
-5e-06
-5e-06
-5e-06
)
;
    }
    outlet
    {
        type            calculated;
        value           nonuniform List<scalar> 
20
(
5.00188e-06
5.00139e-06
5.00151e-06
5.00142e-06
5.00171e-06
5.00199e-06
5.00278e-06
5.00421e-06
5.00342e-06
4.99511e-06
4.99472e-06
5.00263e-06
5.00273e-06
5.00062e-06
4.99934e-06
4.99836e-06
4.99748e-06
4.99678e-06
4.9962e-06
4.99544e-06
)
;
    }
    frontAndBack
    {
        type            empty;
        value           nonuniform List<scalar> 0();
    }
}


// ************************************************************************* //
