/*--------------------------------*- C++ -*----------------------------------*\
  =========                 |
  \\      /  F ield         | OpenFOAM: The Open Source CFD Toolbox
   \\    /   O peration     | Website:  https://openfoam.org
    \\  /    A nd           | Version:  9
     \\/     M anipulation  |
\*---------------------------------------------------------------------------*/
FoamFile
{
    format      ascii;
    class       volVectorField;
    location    "53";
    object      U;
}
// * * * * * * * * * * * * * * * * * * * * * * * * * * * * * * * * * * * * * //

dimensions      [0 1 -1 0 0 0 0];

internalField   nonuniform List<vector> 
400
(
(0.0999969 -2.4588e-06 0)
(0.100001 -7.0713e-06 0)
(0.10001 -1.12699e-05 0)
(0.100023 -1.51207e-05 0)
(0.10004 -1.86462e-05 0)
(0.100061 -2.17042e-05 0)
(0.100084 -2.38263e-05 0)
(0.100107 -2.46614e-05 0)
(0.100128 -2.36865e-05 0)
(0.100144 -2.11356e-05 0)
(0.100152 -1.69768e-05 0)
(0.100151 -1.30524e-05 0)
(0.10014 -1.00856e-05 0)
(0.10012 -9.40674e-06 0)
(0.100093 -9.95277e-06 0)
(0.100067 -1.35205e-05 0)
(0.100044 -1.56594e-05 0)
(0.100033 -2.01258e-05 0)
(0.100025 -1.8873e-05 0)
(0.100032 -2.68237e-05 0)
(0.0999975 -2.73585e-06 0)
(0.100002 -7.94131e-06 0)
(0.100012 -1.2732e-05 0)
(0.100026 -1.7162e-05 0)
(0.100044 -2.11597e-05 0)
(0.100066 -2.41278e-05 0)
(0.100091 -2.49416e-05 0)
(0.100117 -2.24067e-05 0)
(0.100141 -1.56404e-05 0)
(0.10016 -4.84551e-06 0)
(0.10017 9.17076e-06 0)
(0.100168 2.42525e-05 0)
(0.100154 3.84046e-05 0)
(0.100129 4.74067e-05 0)
(0.100099 5.05413e-05 0)
(0.100071 4.53267e-05 0)
(0.10005 3.77746e-05 0)
(0.100037 2.53543e-05 0)
(0.100033 2.04263e-05 0)
(0.100028 8.21516e-06 0)
(0.0999973 -5.35858e-06 0)
(0.100002 -1.6002e-05 0)
(0.100011 -2.65512e-05 0)
(0.100026 -3.70323e-05 0)
(0.100045 -4.71153e-05 0)
(0.100069 -5.57002e-05 0)
(0.100097 -6.08944e-05 0)
(0.100127 -6.03424e-05 0)
(0.100156 -5.20903e-05 0)
(0.10018 -3.52626e-05 0)
(0.100193 -1.12815e-05 0)
(0.100192 1.55504e-05 0)
(0.100174 3.93537e-05 0)
(0.100142 5.16213e-05 0)
(0.100102 5.00364e-05 0)
(0.100065 3.56117e-05 0)
(0.100037 2.02312e-05 0)
(0.100025 4.12659e-06 0)
(0.100021 -5.0753e-07 0)
(0.100029 -1.1589e-05 0)
(0.0999967 -7.52205e-06 0)
(0.100001 -2.23514e-05 0)
(0.100011 -3.72864e-05 0)
(0.100025 -5.25944e-05 0)
(0.100046 -6.77263e-05 0)
(0.100073 -8.11669e-05 0)
(0.100107 -8.96035e-05 0)
(0.100146 -8.9301e-05 0)
(0.100186 -7.59166e-05 0)
(0.100222 -4.74827e-05 0)
(0.100243 -2.6672e-06 0)
(0.10024 4.84086e-05 0)
(0.10021 9.27996e-05 0)
(0.100159 0.000113573 0)
(0.100104 0.000105668 0)
(0.100061 7.4697e-05 0)
(0.100041 4.2307e-05 0)
(0.100035 1.6371e-05 0)
(0.10004 9.99205e-06 0)
(0.100035 2.26727e-07 0)
(0.0999957 -9.28826e-06 0)
(0.0999997 -2.79236e-05 0)
(0.100008 -4.74821e-05 0)
(0.100023 -6.8898e-05 0)
(0.100045 -9.16892e-05 0)
(0.100075 -0.000114127 0)
(0.100117 -0.000130677 0)
(0.100168 -0.000134552 0)
(0.100225 -0.00011776 0)
(0.100281 -7.78274e-05 0)
(0.100318 -1.71443e-05 0)
(0.100316 5.70738e-05 0)
(0.100267 0.00012221 0)
(0.100181 0.000150876 0)
(0.100091 0.000137822 0)
(0.100029 9.69585e-05 0)
(0.100009 5.80981e-05 0)
(0.100019 3.06851e-05 0)
(0.100036 2.59644e-05 0)
(0.100043 1.70069e-05 0)
(0.0999943 -1.04966e-05 0)
(0.0999969 -3.19523e-05 0)
(0.100003 -5.59897e-05 0)
(0.100015 -8.39627e-05 0)
(0.100036 -0.000116915 0)
(0.10007 -0.000152751 0)
(0.100121 -0.000186736 0)
(0.100192 -0.000206146 0)
(0.100277 -0.000191297 0)
(0.100357 -0.000119848 0)
(0.100414 8.19718e-06 0)
(0.100415 0.000153612 0)
(0.100339 0.000242462 0)
(0.100207 0.000230256 0)
(0.100084 0.000143475 0)
(0.100014 4.98599e-05 0)
(0.100012 1.41719e-06 0)
(0.100035 -9.0803e-06 0)
(0.100064 5.85404e-06 0)
(0.100055 5.19498e-06 0)
(0.0999927 -1.03704e-05 0)
(0.0999928 -3.34063e-05 0)
(0.0999946 -5.99684e-05 0)
(0.100001 -9.57431e-05 0)
(0.100016 -0.000138949 0)
(0.100046 -0.000194875 0)
(0.100103 -0.000249598 0)
(0.100202 -0.000308997 0)
(0.100349 -0.000323644 0)
(0.100519 -0.000287819 0)
(0.100632 -6.7426e-05 0)
(0.10059 0.000255067 0)
(0.100383 0.000482078 0)
(0.100117 0.000473308 0)
(0.0999475 0.000303195 0)
(0.0999216 0.000127073 0)
(0.0999925 4.32996e-05 0)
(0.100056 3.22087e-05 0)
(0.100095 5.61664e-05 0)
(0.100067 5.36388e-05 0)
(0.0999908 -9.3145e-06 0)
(0.0999873 -2.88918e-05 0)
(0.0999802 -5.75046e-05 0)
(0.0999766 -9.5322e-05 0)
(0.0999771 -0.000157521 0)
(0.100001 -0.000234629 0)
(0.100047 -0.000340636 0)
(0.100159 -0.000412855 0)
(0.100334 -0.000437599 0)
(0.100659 -0.00025548 0)
(0.101006 7.51934e-05 0)
(0.101013 0.00042594 0)
(0.100606 0.000471082 0)
(0.100071 0.000277729 0)
(0.0997818 7.36169e-05 0)
(0.0997967 -2.69201e-05 0)
(0.0999671 -2.82839e-05 0)
(0.100089 -1.15507e-06 0)
(0.100138 2.12869e-05 0)
(0.100086 1.04857e-05 0)
(0.0999898 -4.94087e-06 0)
(0.0999804 -2.03673e-05 0)
(0.0999623 -3.85034e-05 0)
(0.0999372 -7.32435e-05 0)
(0.0999102 -0.00013365 0)
(0.0999016 -0.00024811 0)
(0.0999564 -0.00046883 0)
(0.100144 -0.000807056 0)
(0.100536 -0.00132935 0)
(0.101061 -0.00149325 0)
(0.101323 0.000384329 0)
(0.100997 0.00187378 0)
(0.100241 0.00157752 0)
(0.09972 0.000573451 0)
(0.0996445 -3.16672e-05 0)
(0.0998221 -0.000126059 0)
(0.100024 -9.19287e-06 0)
(0.100107 6.34878e-05 0)
(0.100112 6.53946e-05 0)
(0.100055 2.45346e-05 0)
(0.0999706 -1.96967e-06 0)
(0.100006 -6.63516e-06 0)
(0.0999071 -1.50454e-05 0)
(0.0999711 -2.47039e-05 0)
(0.0997254 -5.90082e-05 0)
(0.0998438 -0.00011294 0)
(0.0992762 -0.000288115 0)
(0.0996744 -0.000558809 0)
(0.0991176 -0.00115378 0)
(0.102003 -0.00141493 0)
(0.10628 3.03189e-05 0)
(0.101267 0.00146752 0)
(0.0990077 0.00130712 0)
(0.0982223 0.000512971 0)
(0.0988554 1.93951e-05 0)
(0.0996053 -7.79932e-05 0)
(0.0999353 -1.09757e-05 0)
(0.099952 2.49983e-05 0)
(0.0998664 1.77033e-05 0)
(0.0998484 -1.84019e-05 0)
(0.0999713 1.33913e-06 0)
(0.100006 4.63e-06 0)
(0.0999077 1.17796e-05 0)
(0.0999716 2.00737e-05 0)
(0.0997258 5.31236e-05 0)
(0.0998439 0.000105395 0)
(0.0992759 0.000278765 0)
(0.0996738 0.00054715 0)
(0.0991165 0.00113936 0)
(0.102001 0.00139778 0)
(0.106277 -5.22326e-05 0)
(0.101265 -0.00149412 0)
(0.0990076 -0.00133949 0)
(0.0982221 -0.000552393 0)
(0.0988538 -6.46969e-05 0)
(0.0996017 2.49122e-05 0)
(0.0999312 -4.70575e-05 0)
(0.0999476 -9.99358e-05 0)
(0.0998653 -9.85552e-05 0)
(0.0998437 -8.8883e-05 0)
(0.0999918 4.31938e-06 0)
(0.0999823 1.84397e-05 0)
(0.0999641 3.53365e-05 0)
(0.0999392 6.87297e-05 0)
(0.099912 0.000127805 0)
(0.0999035 0.000240515 0)
(0.0999579 0.000459392 0)
(0.100146 0.000794819 0)
(0.100537 0.00131418 0)
(0.101064 0.00147336 0)
(0.101325 -0.000407482 0)
(0.100995 -0.00190222 0)
(0.100235 -0.00160943 0)
(0.0997119 -0.000611721 0)
(0.0996384 -8.4e-06 0)
(0.0998173 7.74541e-05 0)
(0.100015 -4.257e-05 0)
(0.100092 -0.000130063 0)
(0.100093 -0.000137558 0)
(0.100037 -0.000125147 0)
(0.0999942 8.71212e-06 0)
(0.0999905 2.70728e-05 0)
(0.0999833 5.44426e-05 0)
(0.0999794 9.09418e-05 0)
(0.0999796 0.000151485 0)
(0.100003 0.000226653 0)
(0.100047 0.000330154 0)
(0.100158 0.000399882 0)
(0.100332 0.000421645 0)
(0.100653 0.000236592 0)
(0.101 -9.83648e-05 0)
(0.101008 -0.000453938 0)
(0.100601 -0.00050158 0)
(0.100067 -0.000312578 0)
(0.0997748 -0.000113176 0)
(0.0997844 -2.53394e-05 0)
(0.0999509 -3.20113e-05 0)
(0.100066 -7.33893e-05 0)
(0.100111 -9.62311e-05 0)
(0.100056 -0.000107512 0)
(0.0999975 9.79161e-06 0)
(0.0999974 3.16553e-05 0)
(0.0999988 5.70729e-05 0)
(0.100005 9.15757e-05 0)
(0.100019 0.00013342 0)
(0.100048 0.000187672 0)
(0.100105 0.000240839 0)
(0.100203 0.00029837 0)
(0.10035 0.000311587 0)
(0.100519 0.000273361 0)
(0.100631 5.1536e-05 0)
(0.100586 -0.000274742 0)
(0.100375 -0.000507007 0)
(0.100104 -0.000506703 0)
(0.09993 -0.000345159 0)
(0.0998986 -0.000179725 0)
(0.099968 -0.000101807 0)
(0.100026 -0.000104984 0)
(0.100065 -0.000130154 0)
(0.100025 -0.000151715 0)
(0.1 9.94779e-06 0)
(0.100003 3.03758e-05 0)
(0.100009 5.34197e-05 0)
(0.10002 8.03058e-05 0)
(0.10004 0.000112129 0)
(0.100073 0.000146533 0)
(0.100124 0.000178913 0)
(0.100193 0.000196017 0)
(0.100276 0.000178543 0)
(0.100353 0.000103491 0)
(0.100407 -2.77799e-05 0)
(0.100405 -0.000177267 0)
(0.100326 -0.000270143 0)
(0.10019 -0.000262926 0)
(0.100064 -0.000178255 0)
(0.0999886 -8.99435e-05 0)
(0.0999833 -4.24882e-05 0)
(0.099998 -4.38513e-05 0)
(0.100023 -6.10551e-05 0)
(0.100001 -8.50235e-05 0)
(0.100003 8.76321e-06 0)
(0.100007 2.65554e-05 0)
(0.100015 4.5286e-05 0)
(0.100029 6.58343e-05 0)
(0.10005 8.76732e-05 0)
(0.10008 0.000108982 0)
(0.10012 0.00012409 0)
(0.100169 0.000126253 0)
(0.100225 0.000107663 0)
(0.100279 6.5556e-05 0)
(0.100314 1.84778e-06 0)
(0.100308 -7.64193e-05 0)
(0.100256 -0.000144298 0)
(0.100165 -0.000177244 0)
(0.100071 -0.000167173 0)
(0.100003 -0.000135206 0)
(0.0999789 -0.000102655 0)
(0.0999765 -9.26984e-05 0)
(0.0999892 -9.39502e-05 0)
(0.0999773 -0.000111018 0)
(0.100006 7.05042e-06 0)
(0.10001 2.11177e-05 0)
(0.100019 3.53159e-05 0)
(0.100033 4.98432e-05 0)
(0.100053 6.42621e-05 0)
(0.100079 7.69732e-05 0)
(0.100111 8.46845e-05 0)
(0.100148 8.34971e-05 0)
(0.100186 6.95056e-05 0)
(0.100218 4.06059e-05 0)
(0.100234 -4.50533e-06 0)
(0.100228 -5.69849e-05 0)
(0.100195 -0.00010287 0)
(0.100138 -0.000127919 0)
(0.100077 -0.000123216 0)
(0.100023 -9.96661e-05 0)
(0.0999947 -6.98465e-05 0)
(0.099976 -5.47495e-05 0)
(0.0999767 -4.82031e-05 0)
(0.0999567 -5.99788e-05 0)
(0.100008 5.13064e-06 0)
(0.100012 1.51036e-05 0)
(0.100021 2.46081e-05 0)
(0.100035 3.36321e-05 0)
(0.100053 4.19999e-05 0)
(0.100076 4.85757e-05 0)
(0.100103 5.15203e-05 0)
(0.100131 4.80166e-05 0)
(0.100159 3.64807e-05 0)
(0.100182 1.56562e-05 0)
(0.100192 -1.13877e-05 0)
(0.100185 -4.14441e-05 0)
(0.100162 -6.74772e-05 0)
(0.100122 -8.3937e-05 0)
(0.100077 -8.50778e-05 0)
(0.100031 -7.71554e-05 0)
(0.100001 -6.35099e-05 0)
(0.0999723 -5.89964e-05 0)
(0.0999648 -5.577e-05 0)
(0.0999394 -6.85824e-05 0)
(0.100009 3.50849e-06 0)
(0.100013 1.05538e-05 0)
(0.100021 1.74221e-05 0)
(0.100034 2.40322e-05 0)
(0.100051 3.01139e-05 0)
(0.100071 3.50852e-05 0)
(0.100094 3.78884e-05 0)
(0.100117 3.72716e-05 0)
(0.100138 3.22047e-05 0)
(0.100153 2.25017e-05 0)
(0.10016 8.79128e-06 0)
(0.100154 -6.62272e-06 0)
(0.100136 -2.01022e-05 0)
(0.100104 -2.94134e-05 0)
(0.100068 -3.11658e-05 0)
(0.100027 -2.81796e-05 0)
(0.0999965 -2.00749e-05 0)
(0.0999654 -1.64521e-05 0)
(0.0999541 -1.16401e-05 0)
(0.0999256 -1.99187e-05 0)
(0.100011 -3.98582e-07 0)
(0.100015 -9.57499e-07 0)
(0.100024 -1.28504e-06 0)
(0.100036 -1.50227e-06 0)
(0.100053 -1.74015e-06 0)
(0.100072 -2.26924e-06 0)
(0.100094 -3.28797e-06 0)
(0.100115 -5.22809e-06 0)
(0.100134 -8.08882e-06 0)
(0.100147 -1.21655e-05 0)
(0.100152 -1.68608e-05 0)
(0.100145 -2.29172e-05 0)
(0.100128 -2.88494e-05 0)
(0.1001 -3.40124e-05 0)
(0.100069 -3.59283e-05 0)
(0.10003 -3.67754e-05 0)
(0.100003 -3.41583e-05 0)
(0.0999665 -3.51359e-05 0)
(0.0999556 -3.27177e-05 0)
(0.0999142 -4.10909e-05 0)
)
;

boundaryField
{
    sides
    {
        type            calculated;
        value           nonuniform List<vector> 
40
(
(0.100011 0 0)
(0.100015 0 0)
(0.100024 0 0)
(0.100036 0 0)
(0.100053 0 0)
(0.100072 0 0)
(0.100094 0 0)
(0.100115 0 0)
(0.100134 0 0)
(0.100147 0 0)
(0.100152 0 0)
(0.100145 0 0)
(0.100128 0 0)
(0.1001 0 0)
(0.100069 0 0)
(0.10003 0 0)
(0.100003 0 0)
(0.0999665 0 0)
(0.0999556 0 0)
(0.0999142 0 0)
(0.0999969 0 0)
(0.100001 0 0)
(0.10001 0 0)
(0.100023 0 0)
(0.10004 0 0)
(0.100061 0 0)
(0.100084 0 0)
(0.100107 0 0)
(0.100128 0 0)
(0.100144 0 0)
(0.100152 0 0)
(0.100151 0 0)
(0.10014 0 0)
(0.10012 0 0)
(0.100093 0 0)
(0.100067 0 0)
(0.100044 0 0)
(0.100033 0 0)
(0.100025 0 0)
(0.100032 0 0)
)
;
    }
    inlet
    {
        type            calculated;
        value           nonuniform List<vector> 
20
(
(0.0999967 0 0)
(0.0999972 0 0)
(0.0999971 0 0)
(0.0999965 0 0)
(0.0999955 0 0)
(0.0999941 0 0)
(0.0999926 0 0)
(0.0999911 0 0)
(0.0999902 0 0)
(0.0999901 0 0)
(0.0999908 0 0)
(0.0999922 0 0)
(0.0999945 0 0)
(0.0999973 0 0)
(0.1 0 0)
(0.100003 0 0)
(0.100005 0 0)
(0.100007 0 0)
(0.100009 0 0)
(0.10001 0 0)
)
;
    }
    outlet
    {
        type            calculated;
        value           nonuniform List<vector> 
20
(
(0.100033 -2.68238e-05 0)
(0.100028 8.21515e-06 0)
(0.100029 -1.15891e-05 0)
(0.100034 2.26726e-07 0)
(0.100043 1.70069e-05 0)
(0.100054 5.19494e-06 0)
(0.100065 5.36381e-05 0)
(0.100085 1.04855e-05 0)
(0.100054 2.45343e-05 0)
(0.0998499 -1.84022e-05 0)
(0.0998449 -8.88841e-05 0)
(0.100036 -0.000125146 0)
(0.100055 -0.00010751 0)
(0.100023 -0.000151713 0)
(0.1 -8.50225e-05 0)
(0.0999765 -0.000111017 0)
(0.0999558 -5.99783e-05 0)
(0.0999385 -6.85818e-05 0)
(0.0999247 -1.99185e-05 0)
(0.0999128 -4.10903e-05 0)
)
;
    }
    frontAndBack
    {
        type            empty;
    }
}


// ************************************************************************* //
