2.80937e-05    57.4212
8.78022e-05    345.443
0.000154994    866.418
0.000230608    989.959
0.000315699    855.289
0.000411455    689.029
0.000519212    550.495
0.000640475    443.825
0.000776937    362.473
0.000930502    299.764
0.00110331     250.65
0.00129779    211.553
0.00151663     179.96
0.00176291    154.092
0.00204005    132.662
0.00235193    114.728
 0.0027029    99.5846
0.00309785     86.698
0.00354231    75.6553
0.00404248    66.1342
0.00460533    57.8798
0.00523873    50.6879
0.00595151    44.3937
0.00675364    38.8625
 0.0076563    33.9835
0.00867209    29.6647
 0.0098152    25.8294
 0.0111016    22.4129
 0.0125492    19.3606
 0.0141782    16.6262
 0.0160115    14.1707
 0.0180745    11.9611
  0.020396    9.97084
 0.0230086     8.1798
 0.0259485    6.57577
  0.029257    5.15715
 0.0329801    3.93664
 0.0371699     2.9442
 0.0418848    2.22447
 0.0471906    1.82941
 0.0528094    1.83246
 0.0581152    2.23332
 0.0628301    2.95804
 0.0670199    3.95439
  0.070743    5.17776
 0.0740515    6.59844
 0.0769914    8.20399
  0.079604    9.99619
 0.0819255    11.9873
 0.0839885    14.1975
 0.0858218    16.6534
 0.0874508    19.3878
 0.0888984    22.4398
 0.0901848    25.8556
 0.0913279    29.6897
 0.0923437    34.0067
 0.0932464    38.8833
 0.0940485    44.4113
 0.0947613    50.7014
 0.0953947    57.8881
 0.0959575    66.1362
 0.0964577    75.6496
 0.0969021     86.683
 0.0972971    99.5585
 0.0976481    114.688
   0.09796    132.607
 0.0982371    154.018
 0.0984834    179.864
 0.0987022     211.43
 0.0988967    250.495
 0.0990695    299.571
 0.0992231    362.232
 0.0993595    443.526
 0.0994808    550.122
 0.0995885    688.558
 0.0996843    854.685
 0.0997694     989.18
  0.099845    865.556
 0.0999122    345.051
 0.0999719    57.3602
