2.80937e-05    22745.3
8.78022e-05    19974.6
0.000154994    14211.4
0.000230608     8914.3
0.000315699       5767
0.000411455    3971.87
0.000519212    2889.82
0.000640475    2198.34
0.000776937    1730.76
0.000930502    1398.69
0.00110331    1153.11
0.00129779     965.42
0.00151663    818.133
0.00176291    700.052
0.00204005    603.729
0.00235193    524.028
 0.0027029    457.302
0.00309785    400.887
0.00354231    352.791
0.00404248    311.495
0.00460533    275.817
0.00523873    244.827
0.00595151    217.776
0.00675364    194.059
 0.0076563    173.179
0.00867209    154.723
 0.0098152    138.342
 0.0111016    123.741
 0.0125492    110.664
 0.0141782    98.8833
 0.0160115    88.1924
 0.0180745    78.3948
  0.020396    69.2932
 0.0230086    60.6759
 0.0259485    52.3012
  0.029257    43.8867
 0.0329801    35.1266
 0.0371699     25.783
 0.0418848    15.8236
 0.0471906    5.30895
 0.0528094    5.47759
 0.0581152    15.9831
 0.0628301    25.9218
 0.0670199    35.2378
  0.070743    43.9712
 0.0740515    52.3638
 0.0769914    60.7215
  0.079604    69.3253
 0.0819255    78.4158
 0.0839885    88.2036
 0.0858218    98.8852
 0.0874508    110.656
 0.0888984    123.724
 0.0901848    138.313
 0.0913279    154.682
 0.0923437    173.124
 0.0932464    193.988
 0.0940485    217.686
 0.0947613    244.715
 0.0953947    275.681
 0.0959575     311.33
 0.0964577    352.594
 0.0969021    400.654
 0.0972971    457.028
 0.0976481    523.707
   0.09796    603.354
 0.0982371    699.617
 0.0984834     817.63
 0.0987022    964.841
 0.0988967    1152.44
 0.0990695    1397.93
 0.0992231    1729.89
 0.0993595    2197.37
 0.0994808    2888.73
 0.0995885    3970.67
 0.0996843    5765.64
 0.0997694    8912.57
  0.099845    14208.1
 0.0999122      19968
 0.0999719    22736.2
