2.80937e-05 0.00841392
8.78022e-05   0.160798
0.000154994    0.48968
0.000230608   0.675272
0.000315699   0.745825
0.000411455   0.770108
0.000519212   0.776466
0.000640475   0.775963
0.000776937   0.772924
0.000930502   0.769068
0.00110331   0.765053
0.00129779   0.761091
0.00151663   0.757198
0.00176291   0.753299
0.00204005   0.749282
0.00235193   0.745015
 0.0027029    0.74036
0.00309785   0.735177
0.00354231    0.72932
0.00404248   0.722645
0.00460533   0.715003
0.00523873   0.706242
0.00595151   0.696203
0.00675364    0.68472
 0.0076563   0.671619
0.00867209   0.656715
 0.0098152   0.639813
 0.0111016   0.620705
 0.0125492   0.599173
 0.0141782   0.574994
 0.0160115   0.547944
 0.0180745   0.517823
  0.020396   0.484488
 0.0230086   0.447922
 0.0259485   0.408365
  0.029257   0.366553
 0.0329801   0.324103
 0.0371699   0.284016
 0.0418848   0.250998
 0.0471906   0.231118
 0.0528094   0.231333
 0.0581152   0.251594
 0.0628301   0.284888
 0.0670199   0.325143
  0.070743   0.367678
 0.0740515   0.409518
 0.0769914    0.44907
  0.079604   0.485612
 0.0819255    0.51891
 0.0839885   0.548986
 0.0858218   0.575986
 0.0874508   0.600112
 0.0888984   0.621587
 0.0901848   0.640637
 0.0913279   0.657479
 0.0923437   0.672321
 0.0932464    0.68536
 0.0940485   0.696781
 0.0947613   0.706757
 0.0953947   0.715456
 0.0959575   0.723036
 0.0964577    0.72965
 0.0969021   0.735446
 0.0972971   0.740571
 0.0976481   0.745168
   0.09796   0.749379
 0.0982371   0.753342
 0.0984834    0.75719
 0.0987022   0.761035
 0.0988967    0.76495
 0.0990695   0.768922
 0.0992231   0.772738
 0.0993595    0.77574
 0.0994808   0.776211
 0.0995885   0.769823
 0.0996843   0.745516
 0.0997694   0.674943
  0.099845   0.489363
 0.0999122   0.160659
 0.0999719 0.00840655
