2.80937e-05 -8.56472e-05
8.78022e-05 -0.0102753
0.000154994 -0.0865255
0.000230608  -0.147106
0.000315699  -0.177584
0.000411455  -0.194416
0.000519212  -0.203955
0.000640475  -0.209759
0.000776937  -0.213541
0.000930502  -0.216151
0.00110331  -0.218023
0.00129779  -0.219386
0.00151663  -0.220362
0.00176291  -0.221018
0.00204005  -0.221382
0.00235193  -0.221464
 0.0027029  -0.221259
0.00309785  -0.220749
0.00354231  -0.219911
0.00404248  -0.218716
0.00460533  -0.217128
0.00523873  -0.215105
0.00595151  -0.212604
0.00675364  -0.209572
 0.0076563  -0.205954
0.00867209  -0.201687
 0.0098152  -0.196702
 0.0111016   -0.19092
 0.0125492  -0.184254
 0.0141782  -0.176608
 0.0160115  -0.167869
 0.0180745  -0.157914
  0.020396  -0.146598
 0.0230086  -0.133761
 0.0259485  -0.119221
  0.029257  -0.102782
 0.0329801 -0.0842595
 0.0371699  -0.063507
 0.0418848 -0.0402921
 0.0471906 -0.0139377
 0.0528094  0.0143831
 0.0581152  0.0407295
 0.0628301  0.0639409
 0.0670199  0.0846883
  0.070743   0.103201
 0.0740515   0.119627
 0.0769914   0.134153
  0.079604   0.146975
 0.0819255   0.158274
 0.0839885   0.168212
 0.0858218   0.176933
 0.0874508   0.184561
 0.0888984   0.191207
 0.0901848   0.196969
 0.0913279   0.201935
 0.0923437   0.206181
 0.0932464   0.209777
 0.0940485   0.212788
 0.0947613   0.215268
 0.0953947   0.217268
 0.0959575   0.218836
 0.0964577    0.22001
 0.0969021   0.220827
 0.0972971   0.221317
 0.0976481   0.221504
   0.09796   0.221404
 0.0982371   0.221023
 0.0984834   0.220352
 0.0987022   0.219362
 0.0988967   0.217987
 0.0990695   0.216104
 0.0992231   0.213484
 0.0993595   0.209694
 0.0994808   0.203885
 0.0995885   0.194341
 0.0996843   0.177504
 0.0997694   0.147026
  0.099845  0.0864534
 0.0999122  0.0102616
 0.0999719 8.55526e-05
