2.80937e-05 0.00560928
8.78022e-05   0.107199
0.000154994   0.326454
0.000230608   0.450181
0.000315699   0.497217
0.000411455   0.513405
0.000519212   0.517644
0.000640475   0.517308
0.000776937   0.515283
0.000930502   0.512712
0.00110331   0.510035
0.00129779   0.507394
0.00151663   0.504799
0.00176291   0.502199
0.00204005   0.499521
0.00235193   0.496677
 0.0027029   0.493574
0.00309785   0.490118
0.00354231   0.486213
0.00404248   0.481763
0.00460533   0.476669
0.00523873   0.470828
0.00595151   0.464135
0.00675364    0.45648
 0.0076563   0.447746
0.00867209    0.43781
 0.0098152   0.426542
 0.0111016   0.413803
 0.0125492   0.399449
 0.0141782   0.383329
 0.0160115   0.365296
 0.0180745   0.345216
  0.020396   0.322992
 0.0230086   0.298614
 0.0259485   0.272243
  0.029257   0.244369
 0.0329801   0.216069
 0.0371699   0.189344
 0.0418848   0.167332
 0.0471906   0.154079
 0.0528094   0.154222
 0.0581152   0.167729
 0.0628301   0.189925
 0.0670199   0.216762
  0.070743   0.245119
 0.0740515   0.273012
 0.0769914    0.29938
  0.079604   0.323741
 0.0819255    0.34594
 0.0839885   0.365991
 0.0858218    0.38399
 0.0874508   0.400074
 0.0888984   0.414391
 0.0901848   0.427091
 0.0913279   0.438319
 0.0923437   0.448214
 0.0932464   0.456907
 0.0940485    0.46452
 0.0947613   0.471172
 0.0953947   0.476971
 0.0959575   0.482024
 0.0964577   0.486433
 0.0969021   0.490297
 0.0972971   0.493714
 0.0976481   0.496778
   0.09796   0.499586
 0.0982371   0.502228
 0.0984834   0.504793
 0.0987022   0.507356
 0.0988967   0.509967
 0.0990695   0.512615
 0.0992231   0.515159
 0.0993595    0.51716
 0.0994808   0.517474
 0.0995885   0.513216
 0.0996843    0.49701
 0.0997694   0.449962
  0.099845   0.326242
 0.0999122   0.107106
 0.0999719 0.00560436
