2.80937e-05  0.0748951
8.78022e-05   0.327412
0.000154994   0.571361
0.000230608   0.670955
0.000315699   0.705136
0.000411455   0.716523
0.000519212   0.719475
0.000640475   0.719242
0.000776937   0.717832
0.000930502   0.716039
0.00110331   0.714168
0.00129779   0.712316
0.00151663   0.710492
0.00176291    0.70866
0.00204005   0.706768
0.00235193   0.704753
 0.0027029   0.702548
0.00309785   0.700084
0.00354231    0.69729
0.00404248   0.694092
0.00460533   0.690412
0.00523873   0.686169
0.00595151   0.681275
0.00675364   0.675633
 0.0076563   0.669138
0.00867209   0.661672
 0.0098152   0.653102
 0.0111016   0.643275
 0.0125492    0.63202
 0.0141782   0.619136
 0.0160115   0.604397
 0.0180745    0.58755
  0.020396   0.568324
 0.0230086   0.546456
 0.0259485   0.521769
  0.029257   0.494337
 0.0329801   0.464832
 0.0371699   0.435137
 0.0418848   0.409063
 0.0471906   0.392529
 0.0528094   0.392711
 0.0581152   0.409547
 0.0628301   0.435804
 0.0670199   0.465577
  0.070743   0.495095
 0.0740515   0.522506
 0.0769914   0.547156
  0.079604   0.568983
 0.0819255   0.588167
 0.0839885   0.604972
 0.0858218    0.61967
 0.0874508   0.632514
 0.0888984   0.643732
 0.0901848   0.653522
 0.0913279   0.662057
 0.0923437   0.669488
 0.0932464   0.675949
 0.0940485   0.681557
 0.0947613   0.686419
 0.0953947   0.690631
 0.0959575   0.694279
 0.0964577   0.697448
 0.0969021   0.700212
 0.0972971   0.702648
 0.0976481   0.704825
   0.09796   0.706814
 0.0982371   0.708681
 0.0984834   0.710488
 0.0987022    0.71229
 0.0988967    0.71412
 0.0990695   0.715971
 0.0992231   0.717746
 0.0993595   0.719138
 0.0994808   0.719357
 0.0995885   0.716391
 0.0996843    0.70499
 0.0997694   0.670792
  0.099845   0.571176
 0.0999122    0.32727
 0.0999719  0.0748623
