/*--------------------------------*- C++ -*----------------------------------*\
  =========                 |
  \\      /  F ield         | OpenFOAM: The Open Source CFD Toolbox
   \\    /   O peration     | Website:  https://openfoam.org
    \\  /    A nd           | Version:  9
     \\/     M anipulation  |
\*---------------------------------------------------------------------------*/
FoamFile
{
    format      ascii;
    class       volScalarField;
    location    "16";
    object      ddt0(h);
}
// * * * * * * * * * * * * * * * * * * * * * * * * * * * * * * * * * * * * * //

dimensions      [0 1 -1 0 0 0 0];

internalField   nonuniform List<scalar> 
400
(
8.52663e-06
5.22753e-06
1.74265e-06
-9.68126e-07
-2.75716e-06
-4.0832e-06
-4.92948e-06
-4.7329e-06
-3.21553e-06
-1.18188e-06
-2.73369e-07
-1.13229e-06
-2.60324e-06
-2.79828e-06
-2.06405e-06
-1.13595e-06
-1.3138e-07
9.10763e-07
1.20364e-06
4.8336e-07
7.66465e-06
4.64735e-06
1.35712e-06
-1.10885e-06
-2.71292e-06
-3.82255e-06
-4.4137e-06
-4.04586e-06
-2.56399e-06
-6.44137e-07
3.49717e-07
-7.21899e-07
-1.86075e-06
-2.05478e-06
-1.42028e-06
-5.99077e-07
1.73086e-08
7.01359e-07
5.54979e-07
3.1024e-07
6.14566e-06
3.67127e-06
8.70334e-07
-1.24529e-06
-2.39629e-06
-3.20427e-06
-3.35699e-06
-2.9874e-06
-1.64605e-06
-4.0499e-08
8.3589e-07
2.09662e-07
-7.94786e-07
-8.82762e-07
-2.17454e-07
6.5339e-08
2.45142e-07
4.15539e-07
7.01625e-07
1.66119e-07
4.44743e-06
2.49981e-06
3.17422e-07
-1.34206e-06
-2.04676e-06
-2.2395e-06
-2.18292e-06
-1.67005e-06
-1.046e-06
5.77713e-07
1.35207e-06
1.13986e-06
2.87567e-07
1.46369e-07
6.09175e-07
8.14107e-07
7.19791e-07
9.36354e-08
-2.18911e-07
-6.86006e-08
3.01011e-06
1.529e-06
-1.17313e-07
-1.3136e-06
-1.64495e-06
-1.26852e-06
-7.67047e-07
-7.19745e-07
-1.03039e-07
1.00372e-06
1.97479e-06
1.57501e-06
1.38308e-06
1.40248e-06
1.6333e-06
1.66857e-06
9.47113e-07
-5.25788e-08
-8.84764e-08
-3.00221e-08
2.09781e-06
9.77925e-07
-3.4473e-07
-1.23557e-06
-1.26263e-06
-3.18306e-07
3.92519e-07
4.71796e-07
3.52355e-07
3.13521e-07
6.15105e-07
1.03205e-06
1.46375e-06
2.02134e-06
2.19521e-06
1.92116e-06
9.21806e-07
-1.19049e-07
-8.78392e-07
-3.70344e-07
1.86476e-06
8.96855e-07
-4.25369e-07
-1.28103e-06
-1.01779e-06
3.96962e-07
1.46008e-06
1.45863e-06
5.81575e-07
-1.95562e-07
-6.45357e-07
6.44447e-07
1.5203e-06
2.24445e-06
2.32058e-06
1.7592e-06
8.83599e-07
-2.35921e-07
-7.43224e-07
-3.9323e-07
2.20826e-06
1.22759e-06
-3.245e-07
-1.29854e-06
-7.58558e-07
8.63955e-07
2.18116e-06
1.9051e-06
1.88539e-07
-1.22259e-06
2.86949e-06
1.85107e-07
1.15758e-06
1.88942e-06
2.21061e-06
1.89162e-06
3.14588e-07
-2.92774e-07
-8.15665e-07
-3.6862e-07
2.81239e-06
1.66338e-06
-1.99129e-07
-1.31653e-06
-5.80072e-07
1.20882e-06
2.67719e-06
2.27364e-06
1.31616e-07
-2.07769e-06
-5.9723e-06
-1.33136e-06
7.96775e-07
1.54074e-06
1.74818e-06
1.40222e-06
8.99526e-07
-3.54407e-07
-8.23187e-07
-4.88658e-07
3.04788e-06
1.85005e-06
-1.64703e-07
-1.31266e-06
-5.51583e-07
1.31608e-06
2.70758e-06
2.09858e-06
-6.89655e-08
-2.65962e-06
-3.28326e-06
-1.60419e-06
3.28084e-07
1.31866e-06
1.29567e-06
1.10178e-06
6.85066e-07
-1.97548e-07
-8.14739e-07
-5.87339e-07
2.92881e-06
1.82139e-06
-1.6375e-07
-1.29361e-06
-5.83629e-07
1.3234e-06
2.73714e-06
2.13829e-06
-2.72763e-07
-2.52096e-06
-4.01862e-06
-1.25198e-06
3.78063e-07
1.20947e-06
1.31264e-06
9.42744e-07
2.87188e-07
-3.66504e-07
-9.40963e-07
-5.72075e-07
2.57278e-06
1.54637e-06
-2.3931e-07
-1.27174e-06
-6.26873e-07
1.3236e-06
2.81154e-06
2.21203e-06
4.03778e-08
-1.88958e-06
4.47845e-06
-1.35029e-06
8.30886e-07
1.60058e-06
1.61355e-06
1.05667e-06
3.86697e-07
-3.79279e-07
-9.00953e-07
-4.81031e-07
1.96758e-06
1.00903e-06
-4.42777e-07
-1.2971e-06
-6.91338e-07
1.0485e-06
2.35817e-06
1.89516e-06
3.29132e-07
-1.21153e-06
-7.40063e-06
6.16418e-07
1.2386e-06
1.99426e-06
2.09482e-06
1.77052e-06
9.37913e-07
-1.6961e-07
-7.66777e-07
-4.09295e-07
1.6455e-06
7.04616e-07
-5.22334e-07
-1.32902e-06
-8.79937e-07
4.99827e-07
1.66481e-06
1.63596e-06
8.49618e-07
3.31322e-07
1.09267e-06
9.55334e-07
1.72242e-06
2.18473e-06
2.34654e-06
1.91505e-06
8.77294e-07
-2.10913e-07
-7.42471e-07
-3.94095e-07
1.97268e-06
8.63861e-07
-4.75166e-07
-1.34968e-06
-1.2039e-06
-2.0792e-07
5.40377e-07
1.0419e-06
6.51392e-07
1.16699e-06
8.5792e-07
1.61296e-06
1.62942e-06
1.78856e-06
2.14433e-06
1.94119e-06
1.00428e-06
-1.3779e-07
-6.32497e-07
-3.30558e-07
2.96512e-06
1.52515e-06
-1.09612e-07
-1.25983e-06
-1.60145e-06
-1.1341e-06
-7.0471e-07
-1.64458e-07
3.7668e-07
7.87285e-07
1.66553e-06
1.35236e-06
9.76787e-07
1.46354e-06
1.71758e-06
1.53118e-06
8.59898e-07
-6.85822e-09
-3.82708e-07
-1.92456e-07
4.53059e-06
2.60878e-06
5.34143e-07
-1.14373e-06
-1.98161e-06
-2.08607e-06
-1.83449e-06
-1.69149e-06
-6.52126e-07
8.36846e-07
1.66912e-06
1.06089e-06
3.85489e-07
4.53066e-07
7.53606e-07
8.26338e-07
5.55171e-07
1.42381e-07
-4.18942e-08
-1.61237e-08
6.30288e-06
3.80468e-06
1.12775e-06
-9.8105e-07
-2.29389e-06
-2.93553e-06
-3.17048e-06
-2.71836e-06
-1.53678e-06
1.86491e-08
8.4044e-07
1.49453e-07
-7.25381e-07
-8.42404e-07
-3.13461e-07
1.51151e-07
3.73167e-07
4.62337e-07
4.15536e-07
1.79846e-07
7.87162e-06
4.88566e-06
1.59632e-06
-8.74214e-07
-2.3939e-06
-3.54878e-06
-4.14582e-06
-3.98754e-06
-2.64173e-06
-6.19109e-07
3.58668e-07
-4.40117e-07
-1.48789e-06
-1.61002e-06
-1.07645e-06
-4.67668e-07
1.71632e-07
7.44865e-07
8.35428e-07
3.56606e-07
8.79235e-06
5.5195e-06
1.85124e-06
-8.28847e-07
-2.52613e-06
-3.92198e-06
-4.79215e-06
-4.5024e-06
-2.93725e-06
-1.13343e-06
-1.42448e-07
-8.0265e-07
-2.03155e-06
-2.37642e-06
-1.72106e-06
-9.04674e-07
7.73124e-09
8.87691e-07
1.08353e-06
4.64245e-07
)
;

boundaryField
{
    sides
    {
        type            calculated;
        value           nonuniform List<scalar> 
40
(
8.79235e-06
5.5195e-06
1.85124e-06
-8.28847e-07
-2.52613e-06
-3.92198e-06
-4.79215e-06
-4.5024e-06
-2.93725e-06
-1.13343e-06
-1.42448e-07
-8.0265e-07
-2.03155e-06
-2.37642e-06
-1.72106e-06
-9.04674e-07
7.73124e-09
8.87691e-07
1.08353e-06
4.64245e-07
8.52663e-06
5.22753e-06
1.74265e-06
-9.68126e-07
-2.75716e-06
-4.0832e-06
-4.92948e-06
-4.7329e-06
-3.21553e-06
-1.18188e-06
-2.73369e-07
-1.13229e-06
-2.60324e-06
-2.79828e-06
-2.06405e-06
-1.13595e-06
-1.3138e-07
9.10763e-07
1.20364e-06
4.8336e-07
)
;
    }
    inlet
    {
        type            calculated;
        value           nonuniform List<scalar> 
20
(
8.52663e-06
7.66465e-06
6.14566e-06
4.44743e-06
3.01011e-06
2.09781e-06
1.86476e-06
2.20826e-06
2.81239e-06
3.04788e-06
2.92881e-06
2.57278e-06
1.96758e-06
1.6455e-06
1.97268e-06
2.96512e-06
4.53059e-06
6.30288e-06
7.87162e-06
8.79235e-06
)
;
    }
    outlet
    {
        type            calculated;
        value           uniform 0;
    }
    frontAndBack
    {
        type            empty;
    }
}


// ************************************************************************* //
