/*--------------------------------*- C++ -*----------------------------------*\
  =========                 |
  \\      /  F ield         | OpenFOAM: The Open Source CFD Toolbox
   \\    /   O peration     | Website:  https://openfoam.org
    \\  /    A nd           | Version:  9
     \\/     M anipulation  |
\*---------------------------------------------------------------------------*/
FoamFile
{
    format      ascii;
    class       volVectorField;
    location    "16";
    object      ddtCorrDdt0(hU);
}
// * * * * * * * * * * * * * * * * * * * * * * * * * * * * * * * * * * * * * //

dimensions      [0 2 -2 0 0 0 0];

internalField   nonuniform List<vector> 
400
(
(5.51964e-07 1.61096e-07 0)
(7.0353e-07 1.58409e-07 0)
(8.60738e-07 1.26171e-07 0)
(1.25781e-06 1.51763e-07 0)
(1.34343e-06 1.48908e-07 0)
(1.24693e-06 7.37669e-08 0)
(1.11348e-06 -1.78333e-08 0)
(7.65946e-07 -1.31401e-08 0)
(1.23925e-07 6.41587e-08 0)
(-5.7473e-07 5.1147e-08 0)
(-8.74521e-07 -4.50401e-08 0)
(-5.05419e-07 -9.1144e-08 0)
(1.10024e-07 -8.19523e-08 0)
(3.50799e-07 -3.00263e-08 0)
(1.5187e-07 2.5428e-09 0)
(-1.62257e-07 -8.12417e-08 0)
(-3.61445e-07 -1.42914e-07 0)
(-2.41547e-07 -1.6896e-07 0)
(-5.93854e-08 -7.40514e-08 0)
(-2.18935e-07 1.47621e-09 0)
(5.03687e-07 4.54367e-07 0)
(7.05822e-07 4.87282e-07 0)
(8.57739e-07 3.80277e-07 0)
(1.22642e-06 4.13709e-07 0)
(1.2987e-06 3.97441e-07 0)
(1.20712e-06 1.65181e-07 0)
(1.08566e-06 -1.18617e-07 0)
(7.78223e-07 -1.80588e-07 0)
(1.45005e-07 -3.41319e-08 0)
(-5.492e-07 6.97841e-09 0)
(-7.73025e-07 -1.82307e-07 0)
(-4.42625e-07 -3.07262e-07 0)
(1.09616e-07 -2.43916e-07 0)
(3.52107e-07 -3.1217e-08 0)
(1.60762e-07 2.65158e-08 0)
(-1.28614e-07 -2.03984e-07 0)
(-3.16047e-07 -4.41409e-07 0)
(-2.39689e-07 -4.84517e-07 0)
(-9.22234e-08 -1.13799e-07 0)
(-1.81219e-07 9.85065e-08 0)
(4.17307e-07 6.60499e-07 0)
(6.91758e-07 7.6342e-07 0)
(8.25353e-07 5.87306e-07 0)
(1.14331e-06 5.90952e-07 0)
(1.20979e-06 5.56942e-07 0)
(1.0998e-06 1.67871e-07 0)
(9.43968e-07 -2.9646e-07 0)
(6.29275e-07 -3.99159e-07 0)
(1.63222e-07 -1.8455e-07 0)
(-3.6365e-07 -8.09365e-08 0)
(-5.51889e-07 -3.35792e-07 0)
(-2.7564e-07 -5.24077e-07 0)
(1.5976e-07 -3.49456e-07 0)
(3.57521e-07 6.08881e-10 0)
(1.67154e-07 2.3319e-08 0)
(-1.28087e-07 -2.98135e-07 0)
(-2.39303e-07 -6.66747e-07 0)
(-1.03908e-07 -7.55123e-07 0)
(4.35113e-08 -2.50789e-07 0)
(-1.02047e-07 1.21563e-07 0)
(3.23913e-07 7.61008e-07 0)
(6.65138e-07 9.2708e-07 0)
(7.79762e-07 6.92406e-07 0)
(1.02857e-06 6.73689e-07 0)
(1.06447e-06 6.25278e-07 0)
(9.3913e-07 1.35497e-07 0)
(7.63608e-07 -4.67603e-07 0)
(5.17249e-07 -5.72966e-07 0)
(1.5776e-07 -2.39227e-07 0)
(-1.7796e-07 -1.57902e-07 0)
(-2.94329e-07 -4.89694e-07 0)
(-3.95692e-08 -6.93444e-07 0)
(2.04715e-07 -4.87139e-07 0)
(2.38541e-07 -2.41192e-08 0)
(8.19544e-08 3.42797e-08 0)
(-6.84967e-08 -3.6786e-07 0)
(-1.39791e-07 -8.70278e-07 0)
(-1.18457e-07 -9.64275e-07 0)
(3.07788e-08 -3.06719e-07 0)
(5.43488e-08 1.56748e-07 0)
(2.38554e-07 7.646e-07 0)
(6.15129e-07 9.95094e-07 0)
(7.28074e-07 7.05313e-07 0)
(9.02827e-07 6.69704e-07 0)
(8.96754e-07 6.10418e-07 0)
(7.32168e-07 7.21976e-08 0)
(5.18278e-07 -6.06314e-07 0)
(3.20478e-07 -7.28221e-07 0)
(1.68899e-07 -4.09858e-07 0)
(-3.70182e-09 -2.96651e-07 0)
(5.34084e-08 -5.12231e-07 0)
(1.44866e-07 -8.24505e-07 0)
(2.34194e-07 -6.34398e-07 0)
(2.31925e-07 -1.37544e-07 0)
(4.28237e-08 -2.46754e-08 0)
(-1.07042e-07 -4.37377e-07 0)
(-7.54203e-08 -9.84662e-07 0)
(8.98452e-08 -1.12778e-06 0)
(2.45075e-07 -3.53157e-07 0)
(2.66948e-07 1.56728e-07 0)
(1.78693e-07 6.82223e-07 0)
(5.43201e-07 9.57716e-07 0)
(6.75657e-07 6.34534e-07 0)
(7.77332e-07 5.86323e-07 0)
(7.01628e-07 5.29451e-07 0)
(4.94791e-07 -8.70211e-09 0)
(2.4634e-07 -6.95749e-07 0)
(8.78556e-08 -8.13347e-07 0)
(1.09351e-07 -5.15762e-07 0)
(2.54448e-07 -3.47937e-07 0)
(2.45136e-07 -6.12624e-07 0)
(1.34591e-07 -9.33148e-07 0)
(1.06574e-07 -6.68685e-07 0)
(6.57763e-08 -1.61872e-07 0)
(-1.39154e-08 -8.53541e-08 0)
(-7.01597e-08 -4.89176e-07 0)
(-4.48561e-08 -9.65735e-07 0)
(1.11234e-07 -1.18582e-06 0)
(2.90707e-07 -4.84254e-07 0)
(5.26732e-07 9.44592e-08 0)
(1.48533e-07 5.38529e-07 0)
(4.42873e-07 8.24823e-07 0)
(6.1362e-07 5.07309e-07 0)
(6.50652e-07 4.54109e-07 0)
(5.11613e-07 4.07321e-07 0)
(2.4571e-07 -7.75286e-08 0)
(-3.78395e-08 -6.78413e-07 0)
(-1.16449e-07 -8.27487e-07 0)
(8.84926e-08 -5.56384e-07 0)
(3.54076e-07 -3.77835e-07 0)
(3.61096e-07 -6.2914e-07 0)
(3.14099e-07 -7.42008e-07 0)
(1.10126e-07 -6.17205e-07 0)
(-9.65076e-08 -2.12011e-07 0)
(-1.94199e-07 -1.7972e-07 0)
(-1.34608e-07 -6.1448e-07 0)
(-1.59631e-09 -1.1033e-06 0)
(1.81481e-07 -1.16678e-06 0)
(5.03687e-07 -4.48967e-07 0)
(8.58384e-07 8.56417e-08 0)
(1.51308e-07 3.58907e-07 0)
(3.49616e-07 6.25161e-07 0)
(5.66388e-07 3.67107e-07 0)
(5.46922e-07 3.22232e-07 0)
(3.44185e-07 2.8783e-07 0)
(3.44424e-08 -1.08393e-07 0)
(-3.03362e-07 -5.71595e-07 0)
(-3.90277e-07 -7.00359e-07 0)
(-1.74695e-09 -4.74176e-07 0)
(5.41516e-07 -3.80142e-07 0)
(1.15579e-06 -5.29043e-07 0)
(3.79163e-07 -7.55318e-07 0)
(-2.11904e-07 -5.70797e-07 0)
(-4.25432e-07 -2.48566e-07 0)
(-4.25333e-07 -2.1449e-07 0)
(-2.61672e-07 -5.54693e-07 0)
(4.06046e-08 -9.60273e-07 0)
(4.2284e-07 -9.68296e-07 0)
(7.16017e-07 -3.86843e-07 0)
(1.17596e-06 4.04932e-08 0)
(1.78967e-07 2.24118e-07 0)
(2.86515e-07 3.92895e-07 0)
(5.36981e-07 2.21546e-07 0)
(4.76779e-07 1.94677e-07 0)
(2.12966e-07 1.67986e-07 0)
(-1.43953e-07 -8.88979e-08 0)
(-4.91461e-07 -3.71314e-07 0)
(-5.18014e-07 -4.33755e-07 0)
(-6.07729e-08 -3.15857e-07 0)
(5.10948e-07 -2.9302e-07 0)
(3.02308e-07 -3.10753e-07 0)
(3.46057e-07 -5.65621e-07 0)
(-8.96154e-08 -4.76264e-07 0)
(-5.50767e-07 -1.81204e-07 0)
(-5.98019e-07 -7.82388e-08 0)
(-3.64546e-07 -2.92579e-07 0)
(1.33149e-07 -5.06355e-07 0)
(4.63924e-07 -4.99824e-07 0)
(8.29949e-07 -1.5894e-07 0)
(1.4203e-06 2.41842e-08 0)
(1.67344e-07 9.89698e-08 0)
(2.04578e-07 1.43284e-07 0)
(5.00634e-07 8.38546e-08 0)
(4.33619e-07 8.35241e-08 0)
(1.40498e-07 7.69057e-08 0)
(-2.45328e-07 -1.87354e-09 0)
(-6.26344e-07 -7.84437e-08 0)
(-6.15883e-07 -8.05684e-08 0)
(-1.08965e-07 -1.11191e-07 0)
(4.74278e-07 -6.78613e-08 0)
(7.33655e-07 -2.65986e-08 0)
(3.30414e-07 -1.2038e-07 0)
(-3.57451e-07 -2.43328e-07 0)
(-7.33642e-07 -1.05054e-07 0)
(-6.20611e-07 -2.61992e-08 0)
(-2.66482e-07 -1.20269e-07 0)
(6.24632e-08 -1.27518e-07 0)
(4.08898e-07 -4.35518e-08 0)
(9.79838e-07 5.28655e-08 0)
(1.58327e-06 -2.32529e-09 0)
(1.59651e-07 -7.47589e-08 0)
(2.07445e-07 -1.22308e-07 0)
(4.97163e-07 -3.83824e-08 0)
(4.28399e-07 -4.43552e-09 0)
(1.38509e-07 2.78616e-08 0)
(-2.38834e-07 1.34601e-07 0)
(-6.23158e-07 2.12589e-07 0)
(-6.07902e-07 2.36991e-07 0)
(-1.06644e-07 2.50355e-07 0)
(4.58012e-07 1.76967e-07 0)
(5.97673e-07 1.20233e-07 0)
(3.77732e-07 1.41647e-08 0)
(-3.36859e-07 7.63523e-08 0)
(-7.50529e-07 -4.62766e-08 0)
(-6.21687e-07 -5.89472e-08 0)
(-2.76064e-07 1.48711e-07 0)
(2.4381e-08 2.68238e-07 0)
(3.84102e-07 1.93081e-07 0)
(9.63569e-07 1.32975e-07 0)
(1.59689e-06 3.9518e-08 0)
(1.65749e-07 -2.10566e-07 0)
(2.89377e-07 -3.72059e-07 0)
(5.2512e-07 -1.66873e-07 0)
(4.69773e-07 -1.08202e-07 0)
(2.0392e-07 -5.56859e-08 0)
(-1.5376e-07 2.13689e-07 0)
(-4.97744e-07 5.15539e-07 0)
(-4.99257e-07 5.93832e-07 0)
(-3.75707e-08 4.5735e-07 0)
(6.66576e-07 3.34797e-07 0)
(1.36584e-06 1.6242e-07 0)
(1.62324e-07 3.99824e-07 0)
(-1.70838e-07 2.46632e-07 0)
(-5.92099e-07 1.47407e-08 0)
(-6.37196e-07 1.57567e-08 0)
(-3.87415e-07 3.46915e-07 0)
(9.55584e-08 6.18527e-07 0)
(4.61702e-07 6.43867e-07 0)
(8.42701e-07 3.45323e-07 0)
(1.45564e-06 3.03281e-08 0)
(1.4518e-07 -3.52823e-07 0)
(3.56071e-07 -6.02409e-07 0)
(5.50716e-07 -3.12148e-07 0)
(5.29207e-07 -2.39563e-07 0)
(3.38085e-07 -1.89006e-07 0)
(4.07891e-08 2.24204e-07 0)
(-2.85669e-07 7.40115e-07 0)
(-3.74784e-07 8.59162e-07 0)
(1.18519e-08 5.95272e-07 0)
(3.67449e-07 3.82058e-07 0)
(-3.47839e-09 3.03346e-07 0)
(4.58006e-07 5.60948e-07 0)
(-2.09422e-07 3.7271e-07 0)
(-3.90089e-07 1.07159e-07 0)
(-4.17815e-07 1.46507e-07 0)
(-2.88224e-07 5.83587e-07 0)
(8.71893e-08 1.03073e-06 0)
(4.5194e-07 1.09683e-06 0)
(7.48259e-07 5.4903e-07 0)
(1.21793e-06 3.52817e-09 0)
(1.44303e-07 -5.28673e-07 0)
(4.46707e-07 -7.98805e-07 0)
(5.93854e-07 -4.61593e-07 0)
(6.18548e-07 -3.83325e-07 0)
(5.04301e-07 -3.2165e-07 0)
(2.54429e-07 1.78832e-07 0)
(-2.82071e-08 8.06314e-07 0)
(-1.10974e-07 9.35703e-07 0)
(8.17912e-08 5.98087e-07 0)
(3.41197e-07 3.65096e-07 0)
(4.90267e-07 5.70507e-07 0)
(2.9777e-07 6.02665e-07 0)
(8.0786e-08 5.21277e-07 0)
(-1.51571e-07 1.22092e-07 0)
(-2.37433e-07 1.28363e-07 0)
(-1.6064e-07 6.44145e-07 0)
(8.16024e-09 1.21999e-06 0)
(2.29875e-07 1.30433e-06 0)
(5.52736e-07 6.17586e-07 0)
(9.22786e-07 -2.89987e-08 0)
(1.7565e-07 -6.75757e-07 0)
(5.33183e-07 -9.23613e-07 0)
(6.43297e-07 -5.85504e-07 0)
(7.32625e-07 -5.28115e-07 0)
(6.75049e-07 -4.5506e-07 0)
(4.92115e-07 9.12965e-08 0)
(2.4211e-07 7.6572e-07 0)
(9.00411e-08 8.93313e-07 0)
(9.31262e-08 5.00917e-07 0)
(2.03154e-07 3.55237e-07 0)
(1.75628e-07 6.58321e-07 0)
(2.76563e-07 8.72992e-07 0)
(1.40894e-07 5.4296e-07 0)
(-1.65083e-08 6.9377e-08 0)
(-6.0675e-08 9.9467e-08 0)
(-8.59235e-08 6.03341e-07 0)
(-2.56885e-08 1.15056e-06 0)
(1.37754e-07 1.31814e-06 0)
(3.76147e-07 6.13029e-07 0)
(6.01197e-07 -6.67752e-08 0)
(2.41349e-07 -7.78396e-07 0)
(5.99966e-07 -9.67128e-07 0)
(6.88557e-07 -6.64593e-07 0)
(8.63027e-07 -6.42108e-07 0)
(8.59009e-07 -5.69889e-07 0)
(6.98413e-07 -6.85922e-09 0)
(4.87763e-07 6.45713e-07 0)
(2.94487e-07 7.53764e-07 0)
(1.76338e-07 4.47311e-07 0)
(9.29284e-08 2.68905e-07 0)
(4.46233e-08 5.51665e-07 0)
(-1.75335e-08 7.91308e-07 0)
(8.73693e-08 5.39747e-07 0)
(2.10285e-07 1.11879e-07 0)
(4.77726e-08 7.65244e-08 0)
(-1.46094e-07 5.39794e-07 0)
(-1.28214e-07 1.09994e-06 0)
(5.62832e-08 1.24549e-06 0)
(2.56372e-07 5.17634e-07 0)
(3.41445e-07 -1.10691e-07 0)
(3.34682e-07 -8.00334e-07 0)
(6.43254e-07 -9.25525e-07 0)
(7.3521e-07 -6.70284e-07 0)
(9.8599e-07 -6.61346e-07 0)
(1.03671e-06 -6.09699e-07 0)
(9.01103e-07 -1.07199e-07 0)
(7.19579e-07 4.95446e-07 0)
(4.72578e-07 6.07443e-07 0)
(1.58089e-07 3.30175e-07 0)
(-1.88918e-07 1.62589e-07 0)
(-2.49506e-07 3.73665e-07 0)
(-3.23412e-08 5.92623e-07 0)
(2.20907e-07 4.31272e-07 0)
(2.64161e-07 -1.70768e-10 0)
(4.91276e-08 -5.65689e-08 0)
(-1.54531e-07 4.13804e-07 0)
(-1.92795e-07 9.56052e-07 0)
(-6.75915e-08 1.07968e-06 0)
(1.13753e-07 4.12926e-07 0)
(1.25196e-07 -1.25528e-07 0)
(4.32821e-07 -7.00392e-07 0)
(6.64277e-07 -7.69439e-07 0)
(7.79798e-07 -5.71424e-07 0)
(1.10016e-06 -5.72291e-07 0)
(1.16275e-06 -5.44418e-07 0)
(1.05917e-06 -1.646e-07 0)
(9.17311e-07 3.04306e-07 0)
(6.51261e-07 3.77358e-07 0)
(1.55949e-07 9.93499e-08 0)
(-3.65238e-07 2.86527e-08 0)
(-5.48263e-07 3.18401e-07 0)
(-3.03455e-07 4.80393e-07 0)
(1.26333e-07 2.91809e-07 0)
(2.89574e-07 -4.82696e-08 0)
(1.08682e-07 -7.04434e-08 0)
(-1.4525e-07 2.95395e-07 0)
(-2.55003e-07 7.08731e-07 0)
(-1.38161e-07 8.10764e-07 0)
(4.87064e-08 3.08539e-07 0)
(-1.50236e-08 -1.00303e-07 0)
(5.14555e-07 -4.76414e-07 0)
(6.74482e-07 -5.14343e-07 0)
(8.08592e-07 -3.97551e-07 0)
(1.17454e-06 -3.9527e-07 0)
(1.25414e-06 -3.78148e-07 0)
(1.14814e-06 -1.43936e-07 0)
(9.99005e-07 1.61312e-07 0)
(6.60967e-07 2.19488e-07 0)
(1.04248e-07 7.50088e-08 0)
(-4.51587e-07 4.53487e-08 0)
(-6.82507e-07 1.85409e-07 0)
(-3.99816e-07 2.99118e-07 0)
(1.36232e-07 2.00771e-07 0)
(3.40567e-07 -3.25962e-08 0)
(1.07142e-07 -6.40011e-08 0)
(-1.90876e-07 1.70893e-07 0)
(-3.10687e-07 4.52145e-07 0)
(-1.85115e-07 5.2074e-07 0)
(1.37017e-08 1.82097e-07 0)
(-8.41686e-08 -7.79467e-08 0)
(5.59642e-07 -1.68821e-07 0)
(6.68645e-07 -1.85624e-07 0)
(8.29785e-07 -1.5071e-07 0)
(1.23019e-06 -1.4298e-07 0)
(1.29541e-06 -1.34622e-07 0)
(1.20563e-06 -5.78206e-08 0)
(1.09618e-06 6.09251e-08 0)
(7.86406e-07 1.13907e-07 0)
(1.62851e-07 1.0327e-07 0)
(-5.8488e-07 9.21707e-08 0)
(-8.85858e-07 9.49738e-08 0)
(-5.14925e-07 1.09662e-07 0)
(6.86949e-08 6.26157e-08 0)
(2.9445e-07 -4.12248e-08 0)
(1.18058e-07 -5.23009e-08 0)
(-1.71581e-07 4.87472e-08 0)
(-3.30711e-07 1.57001e-07 0)
(-2.3537e-07 1.78525e-07 0)
(-2.76192e-08 5.41316e-08 0)
(-1.2066e-07 -3.4964e-08 0)
)
;

boundaryField
{
    sides
    {
        type            calculated;
        value           nonuniform List<vector> 
40
(
(5.59642e-07 0 0)
(6.68645e-07 0 0)
(8.29785e-07 0 0)
(1.23019e-06 0 0)
(1.29541e-06 0 0)
(1.20563e-06 0 0)
(1.09618e-06 0 0)
(7.86406e-07 0 0)
(1.62851e-07 0 0)
(-5.8488e-07 0 0)
(-8.85858e-07 0 0)
(-5.14925e-07 0 0)
(6.86949e-08 0 0)
(2.9445e-07 0 0)
(1.18058e-07 0 0)
(-1.71581e-07 0 0)
(-3.30711e-07 0 0)
(-2.3537e-07 0 0)
(-2.76192e-08 0 0)
(-1.2066e-07 0 0)
(5.51964e-07 0 0)
(7.0353e-07 0 0)
(8.60738e-07 0 0)
(1.25781e-06 0 0)
(1.34343e-06 0 0)
(1.24693e-06 0 0)
(1.11348e-06 0 0)
(7.65946e-07 0 0)
(1.23925e-07 0 0)
(-5.7473e-07 0 0)
(-8.74521e-07 0 0)
(-5.05419e-07 0 0)
(1.10024e-07 0 0)
(3.50799e-07 0 0)
(1.5187e-07 0 0)
(-1.62257e-07 0 0)
(-3.61445e-07 0 0)
(-2.41547e-07 0 0)
(-5.93854e-08 0 0)
(-2.18935e-07 0 0)
)
;
    }
    inlet
    {
        type            calculated;
        value           uniform (0 0 0);
    }
    outlet
    {
        type            calculated;
        value           nonuniform List<vector> 
20
(
(-2.18935e-07 1.47621e-09 0)
(-1.81219e-07 9.85065e-08 0)
(-1.02047e-07 1.21563e-07 0)
(5.43488e-08 1.56748e-07 0)
(2.66948e-07 1.56728e-07 0)
(5.26732e-07 9.44592e-08 0)
(8.58384e-07 8.56417e-08 0)
(1.17596e-06 4.04932e-08 0)
(1.4203e-06 2.41842e-08 0)
(1.58327e-06 -2.32529e-09 0)
(1.59689e-06 3.9518e-08 0)
(1.45564e-06 3.03281e-08 0)
(1.21793e-06 3.52817e-09 0)
(9.22786e-07 -2.89987e-08 0)
(6.01197e-07 -6.67752e-08 0)
(3.41445e-07 -1.10691e-07 0)
(1.25196e-07 -1.25528e-07 0)
(-1.50236e-08 -1.00303e-07 0)
(-8.41686e-08 -7.79467e-08 0)
(-1.2066e-07 -3.4964e-08 0)
)
;
    }
    frontAndBack
    {
        type            empty;
    }
}


// ************************************************************************* //
