/*--------------------------------*- C++ -*----------------------------------*\
  =========                 |
  \\      /  F ield         | OpenFOAM: The Open Source CFD Toolbox
   \\    /   O peration     | Website:  https://openfoam.org
    \\  /    A nd           | Version:  9
     \\/     M anipulation  |
\*---------------------------------------------------------------------------*/
FoamFile
{
    format      ascii;
    class       volScalarField;
    location    "16";
    object      h;
}
// * * * * * * * * * * * * * * * * * * * * * * * * * * * * * * * * * * * * * //

dimensions      [0 1 0 0 0 0 0];

internalField   nonuniform List<scalar> 
400
(
0.0100047
0.0100049
0.0100045
0.0100035
0.0100022
0.0100008
0.00999939
0.00999824
0.00999764
0.00999766
0.00999803
0.00999832
0.00999834
0.00999831
0.0099984
0.00999864
0.00999903
0.0099995
0.00999986
0.01
0.0100045
0.0100046
0.0100042
0.0100032
0.010002
0.0100006
0.00999924
0.00999814
0.00999754
0.00999754
0.0099979
0.00999817
0.00999825
0.00999828
0.00999844
0.00999874
0.00999911
0.0099995
0.00999979
0.00999995
0.0100041
0.0100043
0.0100039
0.0100029
0.0100017
0.0100005
0.00999928
0.00999828
0.0099977
0.0099976
0.00999783
0.00999805
0.00999818
0.00999836
0.00999869
0.0099991
0.00999949
0.0099998
0.00999999
0.01
0.0100038
0.0100038
0.0100034
0.0100026
0.0100015
0.0100004
0.00999935
0.00999845
0.00999778
0.00999753
0.00999758
0.00999776
0.00999802
0.00999846
0.00999905
0.00999958
0.00999991
0.01
0.00999999
0.00999997
0.0100034
0.0100034
0.010003
0.0100022
0.0100013
0.0100004
0.00999954
0.0099987
0.00999795
0.00999742
0.00999719
0.00999721
0.00999768
0.00999856
0.00999961
0.0100004
0.0100007
0.0100006
0.0100003
0.0100001
0.0100031
0.0100031
0.0100027
0.010002
0.0100012
0.0100005
0.00999986
0.00999905
0.00999808
0.00999713
0.00999645
0.0099964
0.00999721
0.00999868
0.0100002
0.0100011
0.0100012
0.0100008
0.0100003
0.0100001
0.0100029
0.0100029
0.0100026
0.010002
0.0100014
0.0100009
0.0100005
0.00999959
0.00999803
0.00999601
0.00999449
0.00999476
0.00999695
0.00999996
0.0100021
0.0100025
0.0100019
0.0100011
0.0100004
0.0100001
0.0100027
0.0100028
0.0100026
0.0100021
0.0100018
0.0100016
0.0100014
0.0100007
0.00999873
0.00999527
0.00999104
0.00999049
0.00999479
0.0100008
0.0100044
0.0100045
0.0100028
0.0100012
0.0100004
0.0100002
0.0100026
0.0100028
0.0100027
0.0100025
0.0100025
0.0100027
0.0100027
0.0100012
0.00999723
0.00999098
0.00998751
0.0099901
0.00999846
0.0100044
0.0100057
0.0100041
0.0100022
0.010001
0.0100005
0.0100003
0.0100025
0.0100027
0.0100027
0.0100027
0.0100032
0.0100048
0.0100072
0.0100097
0.0100068
0.00897987
0.00895307
0.00997616
0.0100092
0.0100186
0.0100118
0.0100041
0.0100008
0.0100007
0.010001
0.0100006
0.0100024
0.0100026
0.0100026
0.0100026
0.0100032
0.0100048
0.0100072
0.0100096
0.0100067
0.00897981
0.00895304
0.00997615
0.0100092
0.0100186
0.0100118
0.0100041
0.0100008
0.0100006
0.0100009
0.0100005
0.0100024
0.0100025
0.0100024
0.0100022
0.0100022
0.0100024
0.0100024
0.010001
0.00999697
0.00999074
0.00998751
0.00998995
0.00999836
0.0100044
0.0100056
0.010004
0.0100021
0.010001
0.0100006
0.0100003
0.0100023
0.0100023
0.0100021
0.0100017
0.0100013
0.0100012
0.010001
0.0100003
0.00999837
0.00999496
0.00999052
0.00999029
0.00999462
0.0100006
0.0100042
0.0100044
0.0100028
0.0100012
0.0100004
0.0100002
0.0100023
0.0100022
0.0100019
0.0100014
0.0100008
0.0100003
0.00999991
0.00999905
0.00999751
0.00999558
0.00999422
0.00999446
0.00999669
0.00999972
0.0100019
0.0100024
0.0100018
0.010001
0.0100003
0.0100001
0.0100023
0.0100022
0.0100019
0.0100012
0.0100005
0.0099998
0.00999915
0.00999841
0.0099975
0.00999666
0.00999605
0.00999604
0.00999686
0.00999836
0.00999991
0.0100009
0.0100011
0.0100007
0.0100003
0.01
0.0100024
0.0100024
0.010002
0.0100013
0.0100004
0.0099995
0.0099987
0.00999794
0.00999726
0.00999671
0.00999648
0.00999661
0.00999714
0.0099981
0.00999919
0.01
0.0100004
0.0100004
0.0100001
0.01
0.0100026
0.0100027
0.0100023
0.0100015
0.0100004
0.00999937
0.0099984
0.00999753
0.00999696
0.00999677
0.00999692
0.00999709
0.0099974
0.00999791
0.00999856
0.00999918
0.00999961
0.00999982
0.00999989
0.00999994
0.0100028
0.010003
0.0100026
0.0100017
0.0100005
0.00999933
0.00999817
0.00999723
0.00999667
0.00999662
0.00999688
0.00999719
0.0099974
0.00999766
0.00999807
0.00999856
0.00999904
0.00999943
0.00999972
0.00999991
0.010003
0.0100032
0.0100028
0.0100019
0.0100007
0.00999936
0.0099981
0.00999707
0.00999653
0.00999656
0.00999693
0.00999725
0.0099974
0.00999754
0.00999779
0.00999819
0.00999868
0.00999919
0.00999962
0.00999989
0.010003
0.0100033
0.0100029
0.0100019
0.0100007
0.00999929
0.00999792
0.00999682
0.00999626
0.00999633
0.00999677
0.00999716
0.0099973
0.00999737
0.00999755
0.00999789
0.00999837
0.00999895
0.00999948
0.00999984
)
;

boundaryField
{
    sides
    {
        type            zeroGradient;
    }
    inlet
    {
        type            zeroGradient;
    }
    outlet
    {
        type            fixedValue;
        value           uniform 0.01;
    }
    frontAndBack
    {
        type            empty;
    }
}


// ************************************************************************* //
