/*--------------------------------*- C++ -*----------------------------------*\
  =========                 |
  \\      /  F ield         | OpenFOAM: The Open Source CFD Toolbox
   \\    /   O peration     | Website:  https://openfoam.org
    \\  /    A nd           | Version:  9
     \\/     M anipulation  |
\*---------------------------------------------------------------------------*/
FoamFile
{
    format      ascii;
    class       volScalarField;
    location    "16";
    object      h_0;
}
// * * * * * * * * * * * * * * * * * * * * * * * * * * * * * * * * * * * * * //

dimensions      [0 1 0 0 0 0 0];

internalField   nonuniform List<scalar> 
400
(
0.0100039
0.0100045
0.0100044
0.0100037
0.0100025
0.0100012
0.00999984
0.00999864
0.00999786
0.00999771
0.00999805
0.00999848
0.00999862
0.00999857
0.00999857
0.0099987
0.009999
0.00999939
0.00999975
0.00999996
0.0100038
0.0100043
0.0100042
0.0100034
0.0100023
0.010001
0.00999964
0.00999847
0.0099977
0.00999754
0.00999786
0.00999827
0.00999845
0.00999848
0.00999854
0.00999877
0.00999907
0.00999943
0.00999972
0.00999992
0.0100036
0.010004
0.0100038
0.0100031
0.010002
0.0100008
0.00999957
0.00999851
0.00999779
0.00999755
0.00999776
0.00999806
0.00999829
0.00999845
0.00999869
0.00999906
0.00999943
0.00999974
0.00999992
0.01
0.0100034
0.0100036
0.0100034
0.0100027
0.0100017
0.0100006
0.00999952
0.00999857
0.00999783
0.00999742
0.00999745
0.00999767
0.00999799
0.00999842
0.00999896
0.00999948
0.00999984
0.01
0.01
0.00999997
0.0100032
0.0100033
0.010003
0.0100024
0.0100014
0.0100005
0.00999959
0.00999875
0.00999792
0.00999731
0.00999704
0.00999708
0.00999756
0.00999841
0.00999942
0.0100002
0.0100006
0.0100006
0.0100003
0.0100001
0.0100029
0.010003
0.0100028
0.0100022
0.0100013
0.0100005
0.00999981
0.009999
0.00999805
0.0099971
0.00999636
0.00999628
0.00999705
0.00999847
0.00999994
0.0100009
0.0100012
0.0100009
0.0100004
0.0100001
0.0100027
0.0100028
0.0100026
0.0100021
0.0100014
0.0100008
0.0100003
0.00999948
0.00999801
0.00999605
0.00999456
0.00999469
0.00999679
0.00999972
0.0100018
0.0100024
0.0100019
0.0100011
0.0100005
0.0100001
0.0100025
0.0100027
0.0100026
0.0100022
0.0100018
0.0100014
0.0100012
0.0100005
0.00999878
0.00999541
0.00999114
0.00999045
0.00999464
0.0100006
0.0100042
0.0100044
0.0100029
0.0100013
0.0100005
0.0100002
0.0100024
0.0100026
0.0100027
0.0100026
0.0100025
0.0100025
0.0100024
0.0100011
0.0099973
0.00999126
0.00998771
0.00999019
0.00999835
0.0100043
0.0100055
0.010004
0.0100022
0.0100011
0.0100007
0.0100003
0.0100022
0.0100026
0.0100027
0.0100028
0.0100032
0.0100047
0.010007
0.0100096
0.0100069
0.0089802
0.00895338
0.00997628
0.0100092
0.0100185
0.0100117
0.010004
0.0100008
0.0100008
0.0100011
0.0100006
0.0100021
0.0100025
0.0100026
0.0100027
0.0100031
0.0100046
0.0100069
0.0100095
0.0100068
0.00898012
0.00895337
0.00997624
0.0100091
0.0100185
0.0100116
0.010004
0.0100008
0.0100008
0.0100011
0.0100006
0.0100021
0.0100024
0.0100024
0.0100023
0.0100022
0.0100023
0.0100022
0.0100008
0.00999705
0.009991
0.00998733
0.00999001
0.00999825
0.0100042
0.0100054
0.0100039
0.0100021
0.0100011
0.0100007
0.0100004
0.0100021
0.0100022
0.0100021
0.0100018
0.0100013
0.010001
0.0100008
0.0100001
0.0099984
0.00999508
0.009991
0.00999023
0.00999447
0.0100004
0.010004
0.0100042
0.0100028
0.0100013
0.0100006
0.0100002
0.0100021
0.0100021
0.010002
0.0100015
0.0100008
0.0100003
0.00999973
0.00999891
0.00999745
0.00999557
0.00999415
0.00999435
0.00999651
0.00999949
0.0100017
0.0100023
0.0100018
0.010001
0.0100004
0.0100001
0.0100021
0.0100022
0.010002
0.0100014
0.0100006
0.00999978
0.00999907
0.00999831
0.00999743
0.00999655
0.00999598
0.0099959
0.00999668
0.00999816
0.00999969
0.0100007
0.010001
0.0100007
0.0100003
0.0100001
0.0100022
0.0100023
0.0100021
0.0100014
0.0100005
0.00999958
0.00999873
0.00999793
0.00999721
0.0099966
0.0099963
0.00999647
0.00999704
0.00999795
0.009999
0.00999987
0.0100003
0.0100004
0.0100002
0.01
0.0100022
0.0100025
0.0100023
0.0100016
0.0100006
0.00999955
0.00999855
0.00999765
0.00999695
0.00999666
0.00999676
0.00999701
0.00999737
0.00999785
0.00999845
0.00999907
0.00999954
0.0099998
0.00999989
0.00999994
0.0100023
0.0100027
0.0100025
0.0100018
0.0100008
0.0099996
0.00999845
0.00999743
0.00999674
0.00999657
0.00999681
0.0099972
0.00999748
0.00999773
0.00999807
0.00999852
0.00999898
0.00999937
0.00999968
0.00999989
0.0100023
0.0100028
0.0100028
0.010002
0.0100009
0.00999971
0.00999847
0.0099974
0.00999671
0.00999658
0.0099969
0.00999733
0.00999758
0.00999769
0.00999787
0.00999819
0.00999862
0.0099991
0.00999954
0.00999986
0.0100022
0.0100029
0.0100028
0.0100021
0.0100009
0.00999968
0.00999836
0.00999719
0.00999646
0.00999637
0.00999678
0.00999728
0.00999753
0.00999759
0.00999769
0.00999793
0.00999833
0.00999884
0.00999938
0.0099998
)
;

boundaryField
{
    sides
    {
        type            zeroGradient;
    }
    inlet
    {
        type            zeroGradient;
    }
    outlet
    {
        type            fixedValue;
        value           uniform 0.01;
    }
    frontAndBack
    {
        type            empty;
    }
}


// ************************************************************************* //
