/*--------------------------------*- C++ -*----------------------------------*\
  =========                 |
  \\      /  F ield         | OpenFOAM: The Open Source CFD Toolbox
   \\    /   O peration     | Website:  https://openfoam.org
    \\  /    A nd           | Version:  9
     \\/     M anipulation  |
\*---------------------------------------------------------------------------*/
FoamFile
{
    format      ascii;
    class       volVectorField;
    location    "16";
    object      hU;
}
// * * * * * * * * * * * * * * * * * * * * * * * * * * * * * * * * * * * * * //

dimensions      [0 2 -1 0 0 0 0];

internalField   nonuniform List<vector> 
400
(
(0.00100013 -3.22854e-08 0)
(0.000999737 -1.04621e-07 0)
(0.000999661 -1.28448e-07 0)
(0.000999799 -1.38885e-07 0)
(0.00100002 -1.6816e-07 0)
(0.00100034 -1.90401e-07 0)
(0.00100068 -1.73465e-07 0)
(0.00100093 -1.39541e-07 0)
(0.00100107 -1.39366e-07 0)
(0.00100117 -1.74654e-07 0)
(0.00100127 -1.63805e-07 0)
(0.00100134 -1.02137e-07 0)
(0.00100124 -2.69748e-08 0)
(0.00100098 -5.73458e-09 0)
(0.00100068 -4.71434e-08 0)
(0.00100046 -1.30192e-07 0)
(0.00100029 -1.78197e-07 0)
(0.0010002 -2.14106e-07 0)
(0.000999963 -1.7619e-07 0)
(0.000999938 -2.62874e-07 0)
(0.00100013 -3.21915e-08 0)
(0.000999769 -1.51857e-07 0)
(0.000999701 -1.56871e-07 0)
(0.000999843 -1.25412e-07 0)
(0.00100008 -1.48656e-07 0)
(0.00100041 -1.69249e-07 0)
(0.00100075 -9.50485e-08 0)
(0.00100102 1.9394e-08 0)
(0.00100119 5.09745e-08 0)
(0.00100131 1.20582e-08 0)
(0.00100143 7.05141e-08 0)
(0.00100147 3.12037e-07 0)
(0.00100136 6.06816e-07 0)
(0.00100107 7.28658e-07 0)
(0.00100074 6.33905e-07 0)
(0.00100048 4.43738e-07 0)
(0.0010003 3.15969e-07 0)
(0.0010002 2.91911e-07 0)
(0.00100005 3.40372e-07 0)
(0.000999937 1.12703e-07 0)
(0.00100012 -3.53828e-08 0)
(0.000999812 -2.3819e-07 0)
(0.000999746 -2.88742e-07 0)
(0.000999891 -2.87585e-07 0)
(0.00100013 -3.70807e-07 0)
(0.00100045 -4.53911e-07 0)
(0.00100079 -3.91887e-07 0)
(0.00100111 -2.65714e-07 0)
(0.00100135 -2.53605e-07 0)
(0.00100153 -3.0835e-07 0)
(0.00100166 -1.82558e-07 0)
(0.00100171 2.45676e-07 0)
(0.00100155 7.38255e-07 0)
(0.00100119 9.04088e-07 0)
(0.00100077 6.8569e-07 0)
(0.00100044 3.37097e-07 0)
(0.00100021 1.02134e-07 0)
(0.00100011 7.6941e-08 0)
(0.000999932 1.81249e-07 0)
(0.000999945 -5.96591e-08 0)
(0.00100011 -2.28494e-08 0)
(0.000999868 -2.87628e-07 0)
(0.000999808 -3.83039e-07 0)
(0.000999951 -4.15186e-07 0)
(0.0010002 -5.54816e-07 0)
(0.00100053 -6.91239e-07 0)
(0.00100089 -6.40342e-07 0)
(0.00100127 -4.89267e-07 0)
(0.00100163 -4.45216e-07 0)
(0.00100194 -4.61384e-07 0)
(0.00100215 -1.62274e-07 0)
(0.00100216 5.31757e-07 0)
(0.00100188 1.29062e-06 0)
(0.00100135 1.57627e-06 0)
(0.00100081 1.2587e-06 0)
(0.00100039 7.02652e-07 0)
(0.00100018 2.8769e-07 0)
(0.00100013 2.15432e-07 0)
(0.00100016 3.3203e-07 0)
(0.0010001 5.33959e-08 0)
(0.0010001 4.90226e-09 0)
(0.000999919 -3.04005e-07 0)
(0.000999863 -4.63669e-07 0)
(0.000999998 -5.5767e-07 0)
(0.00100025 -7.82214e-07 0)
(0.00100058 -1.02009e-06 0)
(0.00100098 -1.04907e-06 0)
(0.00100147 -9.42131e-07 0)
(0.00100201 -8.94564e-07 0)
(0.00100251 -8.26378e-07 0)
(0.00100285 -3.82418e-07 0)
(0.00100285 5.61387e-07 0)
(0.00100242 1.55687e-06 0)
(0.0010016 1.92823e-06 0)
(0.00100072 1.55274e-06 0)
(0.00100012 8.89529e-07 0)
(0.000999933 4.16911e-07 0)
(0.00100001 3.79906e-07 0)
(0.00100012 5.44322e-07 0)
(0.00100019 2.37721e-07 0)
(0.00100008 3.47034e-08 0)
(0.000999954 -2.95406e-07 0)
(0.000999893 -5.2511e-07 0)
(0.000999999 -7.01247e-07 0)
(0.00100023 -1.03744e-06 0)
(0.00100056 -1.42062e-06 0)
(0.00100101 -1.63316e-06 0)
(0.00100167 -1.68666e-06 0)
(0.00100249 -1.67461e-06 0)
(0.00100325 -1.30916e-06 0)
(0.00100375 -1.94198e-07 0)
(0.00100375 1.4909e-06 0)
(0.00100306 2.76014e-06 0)
(0.00100188 2.71241e-06 0)
(0.00100072 1.57661e-06 0)
(0.00100002 3.83962e-07 0)
(0.000999937 -1.88275e-07 0)
(0.00100014 -8.44191e-08 0)
(0.00100048 2.76306e-07 0)
(0.00100043 8.81119e-08 0)
(0.00100006 5.90443e-08 0)
(0.000999963 -2.68492e-07 0)
(0.00099988 -5.45368e-07 0)
(0.000999928 -8.23169e-07 0)
(0.00100011 -1.26991e-06 0)
(0.00100037 -1.85943e-06 0)
(0.00100085 -2.31029e-06 0)
(0.00100176 -2.80463e-06 0)
(0.00100316 -3.08217e-06 0)
(0.00100473 -3.02717e-06 0)
(0.00100575 -9.77135e-07 0)
(0.00100538 2.40995e-06 0)
(0.00100349 5.0201e-06 0)
(0.00100108 5.05358e-06 0)
(0.000999514 3.13859e-06 0)
(0.000999209 1.14112e-06 0)
(0.000999778 2.34239e-07 0)
(0.00100033 3.58221e-07 0)
(0.0010008 7.69277e-07 0)
(0.0010006 5.5326e-07 0)
(0.00100003 6.10141e-08 0)
(0.000999945 -2.03643e-07 0)
(0.000999801 -5.09617e-07 0)
(0.000999759 -8.31375e-07 0)
(0.000999808 -1.47013e-06 0)
(0.000999993 -2.27327e-06 0)
(0.00100031 -3.25732e-06 0)
(0.00100135 -3.9081e-06 0)
(0.00100304 -4.27217e-06 0)
(0.00100606 -2.71243e-06 0)
(0.00100911 4.46982e-07 0)
(0.00100911 4.11407e-06 0)
(0.00100551 4.84183e-06 0)
(0.00100077 2.99139e-06 0)
(0.000998122 8.01595e-07 0)
(0.000998157 -3.73501e-07 0)
(0.000999622 -4.40356e-07 0)
(0.00100068 9.21304e-09 0)
(0.00100126 3.57802e-07 0)
(0.00100088 1.08349e-07 0)
(0.00100002 6.5788e-08 0)
(0.000999902 -1.26843e-07 0)
(0.000999675 -3.22458e-07 0)
(0.000999437 -6.36006e-07 0)
(0.000999238 -1.25584e-06 0)
(0.000999122 -2.42699e-06 0)
(0.000999522 -4.59676e-06 0)
(0.00100121 -7.94654e-06 0)
(0.00100484 -1.32341e-05 0)
(0.00100959 -1.50365e-05 0)
(0.00101194 3.62443e-06 0)
(0.00100898 1.86118e-05 0)
(0.00100222 1.58758e-05 0)
(0.00099757 5.91942e-06 0)
(0.00099687 -2.79809e-07 0)
(0.00099838 -1.34362e-06 0)
(0.00100011 -1.69542e-07 0)
(0.00100081 6.57648e-07 0)
(0.00100106 7.01738e-07 0)
(0.00100064 1.9286e-07 0)
(0.000999818 2.69818e-08 0)
(0.00100016 -2.24191e-08 0)
(0.000999145 -1.02121e-07 0)
(0.00099982 -1.82867e-07 0)
(0.000997479 -5.34251e-07 0)
(0.00099874 -1.08963e-06 0)
(0.000993144 -2.84368e-06 0)
(0.000997344 -5.5807e-06 0)
(0.000991575 -1.15714e-05 0)
(0.000915894 -1.27487e-05 0)
(0.000951509 2.03883e-07 0)
(0.0010102 1.4566e-05 0)
(0.000990938 1.31228e-05 0)
(0.000984014 5.2675e-06 0)
(0.000989614 2.53658e-07 0)
(0.000996206 -7.66806e-07 0)
(0.000999067 -7.49983e-08 0)
(0.000999273 2.98735e-07 0)
(0.000998686 1.53104e-07 0)
(0.000998601 -2.5698e-07 0)
(0.000999818 -2.43964e-08 0)
(0.00100016 4.77848e-08 0)
(0.000999146 1.49645e-07 0)
(0.000999821 2.32561e-07 0)
(0.00099748 5.70302e-07 0)
(0.000998736 1.09354e-06 0)
(0.000993135 2.80646e-06 0)
(0.000997328 5.47452e-06 0)
(0.00099156 1.14006e-05 0)
(0.00091587 1.25547e-05 0)
(0.000951474 -4.45268e-07 0)
(0.0010102 -1.48357e-05 0)
(0.000990934 -1.33805e-05 0)
(0.000983995 -5.52144e-06 0)
(0.000989588 -5.26925e-07 0)
(0.000996158 4.05715e-07 0)
(0.000999015 -4.08978e-07 0)
(0.000999224 -1.00136e-06 0)
(0.000998667 -1.03772e-06 0)
(0.000998551 -9.64241e-07 0)
(0.00100002 -5.86545e-08 0)
(0.000999905 1.55649e-07 0)
(0.000999678 3.70894e-07 0)
(0.000999444 6.85483e-07 0)
(0.000999247 1.29219e-06 0)
(0.000999133 2.43227e-06 0)
(0.000999531 4.55869e-06 0)
(0.00100122 7.8405e-06 0)
(0.00100483 1.30577e-05 0)
(0.00100959 1.47851e-05 0)
(0.00101195 -3.89871e-06 0)
(0.0010089 -1.88977e-05 0)
(0.00100211 -1.61313e-05 0)
(0.00099747 -6.16521e-06 0)
(0.000996777 3.42019e-08 0)
(0.000998311 1.02585e-06 0)
(0.00100003 -2.44423e-07 0)
(0.00100068 -1.27832e-06 0)
(0.00100087 -1.49918e-06 0)
(0.00100047 -1.3467e-06 0)
(0.00100004 -4.78367e-08 0)
(0.000999948 2.39741e-07 0)
(0.000999804 5.59909e-07 0)
(0.000999766 8.80169e-07 0)
(0.000999816 1.50244e-06 0)
(0.000999993 2.27186e-06 0)
(0.0010003 3.2044e-06 0)
(0.00100131 3.7895e-06 0)
(0.00100299 4.08068e-06 0)
(0.00100598 2.46698e-06 0)
(0.00100898 -7.41476e-07 0)
(0.00100901 -4.41544e-06 0)
(0.00100541 -5.09363e-06 0)
(0.00100066 -3.22219e-06 0)
(0.000998001 -1.03771e-06 0)
(0.000998018 4.09285e-08 0)
(0.000999462 -4.80565e-08 0)
(0.00100045 -7.04816e-07 0)
(0.00100099 -1.1699e-06 0)
(0.00100058 -1.19916e-06 0)
(0.00100006 -3.90061e-08 0)
(0.000999963 3.12367e-07 0)
(0.000999882 5.98157e-07 0)
(0.000999936 8.70784e-07 0)
(0.00100011 1.3002e-06 0)
(0.00100037 1.85858e-06 0)
(0.00100084 2.2685e-06 0)
(0.00100174 2.71152e-06 0)
(0.00100313 2.93645e-06 0)
(0.00100467 2.82701e-06 0)
(0.00100567 7.50735e-07 0)
(0.00100525 -2.63177e-06 0)
(0.00100333 -5.22661e-06 0)
(0.00100089 -5.27016e-06 0)
(0.00099931 -3.39349e-06 0)
(0.000998971 -1.50652e-06 0)
(0.000999534 -7.32524e-07 0)
(0.00100005 -1.04365e-06 0)
(0.00100052 -1.56776e-06 0)
(0.00100019 -1.66043e-06 0)
(0.00100008 -1.00583e-08 0)
(0.00099995 3.45668e-07 0)
(0.000999891 5.80583e-07 0)
(0.00100001 7.48655e-07 0)
(0.00100024 1.06745e-06 0)
(0.00100056 1.42063e-06 0)
(0.001001 1.59175e-06 0)
(0.00100164 1.58867e-06 0)
(0.00100243 1.50075e-06 0)
(0.00100314 1.07552e-06 0)
(0.00100361 -4.77528e-08 0)
(0.00100358 -1.74759e-06 0)
(0.00100285 -2.98176e-06 0)
(0.00100162 -2.91209e-06 0)
(0.00100045 -1.77004e-06 0)
(0.00099972 -6.36864e-07 0)
(0.000999635 -1.39368e-07 0)
(0.00099977 -4.19775e-07 0)
(0.00100007 -8.95621e-07 0)
(0.000999875 -9.99562e-07 0)
(0.00100009 2.0116e-08 0)
(0.000999912 3.55839e-07 0)
(0.00099986 5.16741e-07 0)
(0.001 6.02498e-07 0)
(0.00100025 8.13008e-07 0)
(0.00100057 1.02377e-06 0)
(0.00100096 1.00662e-06 0)
(0.00100143 8.47934e-07 0)
(0.00100195 7.556e-07 0)
(0.00100242 6.46101e-07 0)
(0.00100271 1.85406e-07 0)
(0.00100264 -7.69554e-07 0)
(0.0010022 -1.74467e-06 0)
(0.00100136 -2.10905e-06 0)
(0.00100046 -1.73893e-06 0)
(0.000999811 -1.15624e-06 0)
(0.0009996 -7.9138e-07 0)
(0.000999579 -9.55896e-07 0)
(0.000999691 -1.25524e-06 0)
(0.00099955 -1.26738e-06 0)
(0.00100011 4.37028e-08 0)
(0.000999857 3.32551e-07 0)
(0.000999804 4.2769e-07 0)
(0.000999957 4.49434e-07 0)
(0.0010002 5.75314e-07 0)
(0.00100052 6.93231e-07 0)
(0.00100087 6.15647e-07 0)
(0.00100123 4.32559e-07 0)
(0.00100156 3.65591e-07 0)
(0.00100181 3.49703e-07 0)
(0.00100196 4.21345e-08 0)
(0.00100192 -6.28271e-07 0)
(0.0010016 -1.35238e-06 0)
(0.00100103 -1.62793e-06 0)
(0.00100045 -1.31504e-06 0)
(0.00099996 -8.29913e-07 0)
(0.000999717 -4.94659e-07 0)
(0.000999552 -5.75816e-07 0)
(0.000999527 -7.60191e-07 0)
(0.00099928 -7.28433e-07 0)
(0.00100012 5.32767e-08 0)
(0.000999799 2.73673e-07 0)
(0.000999741 3.1512e-07 0)
(0.000999892 3.00397e-07 0)
(0.00100013 3.64597e-07 0)
(0.00100045 4.11449e-07 0)
(0.00100079 3.00938e-07 0)
(0.00100108 1.09067e-07 0)
(0.00100128 3.68627e-08 0)
(0.00100142 5.71109e-08 0)
(0.00100152 -7.76684e-08 0)
(0.00100149 -5.04472e-07 0)
(0.0010013 -9.73602e-07 0)
(0.00100089 -1.15221e-06 0)
(0.00100043 -9.54033e-07 0)
(0.00100002 -6.72321e-07 0)
(0.000999776 -4.8565e-07 0)
(0.000999534 -5.98775e-07 0)
(0.000999385 -7.60847e-07 0)
(0.000999054 -7.87119e-07 0)
(0.00100013 4.60069e-08 0)
(0.000999748 1.92521e-07 0)
(0.000999685 2.1943e-07 0)
(0.000999834 2.15353e-07 0)
(0.00100006 2.62363e-07 0)
(0.00100036 2.97467e-07 0)
(0.00100068 2.34457e-07 0)
(0.00100092 1.2892e-07 0)
(0.00100108 1.06886e-07 0)
(0.00100116 1.5362e-07 0)
(0.00100122 9.74669e-08 0)
(0.00100122 -1.30289e-07 0)
(0.00100105 -4.03605e-07 0)
(0.00100068 -5.19678e-07 0)
(0.00100031 -4.08551e-07 0)
(0.000999978 -2.40986e-07 0)
(0.00099976 -1.20208e-07 0)
(0.00099948 -1.87195e-07 0)
(0.00099926 -2.65943e-07 0)
(0.00099887 -2.78309e-07 0)
(0.00100013 5.53605e-10 0)
(0.000999727 1.99142e-08 0)
(0.000999668 2.17458e-09 0)
(0.000999815 -2.57968e-08 0)
(0.00100004 -3.52351e-08 0)
(0.00100035 -4.14827e-08 0)
(0.00100068 -7.38546e-08 0)
(0.00100091 -1.12447e-07 0)
(0.00100101 -1.27555e-07 0)
(0.00100105 -1.30064e-07 0)
(0.0010011 -1.6384e-07 0)
(0.0010011 -2.61064e-07 0)
(0.00100097 -3.69661e-07 0)
(0.00100064 -4.19425e-07 0)
(0.00100032 -3.83738e-07 0)
(0.000999995 -3.43274e-07 0)
(0.000999808 -3.06961e-07 0)
(0.000999484 -3.53977e-07 0)
(0.000999271 -3.72088e-07 0)
(0.000998747 -4.24736e-07 0)
)
;

boundaryField
{
    sides
    {
        type            slip;
    }
    inlet
    {
        type            fixedValue;
        value           uniform (0.001 0 0);
    }
    outlet
    {
        type            zeroGradient;
    }
    frontAndBack
    {
        type            empty;
    }
}


// ************************************************************************* //
