/*--------------------------------*- C++ -*----------------------------------*\
  =========                 |
  \\      /  F ield         | OpenFOAM: The Open Source CFD Toolbox
   \\    /   O peration     | Website:  https://openfoam.org
    \\  /    A nd           | Version:  9
     \\/     M anipulation  |
\*---------------------------------------------------------------------------*/
FoamFile
{
    format      ascii;
    class       volVectorField;
    location    "16";
    object      hU_0;
}
// * * * * * * * * * * * * * * * * * * * * * * * * * * * * * * * * * * * * * //

dimensions      [0 2 -1 0 0 0 0];

internalField   nonuniform List<vector> 
400
(
(0.00100008 -5.03094e-08 0)
(0.000999648 -1.23437e-07 0)
(0.000999559 -1.42978e-07 0)
(0.000999661 -1.5438e-07 0)
(0.000999876 -1.82985e-07 0)
(0.00100021 -1.97009e-07 0)
(0.00100056 -1.69464e-07 0)
(0.00100085 -1.34235e-07 0)
(0.00100106 -1.41562e-07 0)
(0.00100122 -1.77379e-07 0)
(0.00100135 -1.57058e-07 0)
(0.00100139 -9.06063e-08 0)
(0.00100123 -1.47984e-08 0)
(0.00100095 1.00424e-09 0)
(0.00100067 -4.4041e-08 0)
(0.00100048 -1.20775e-07 0)
(0.00100032 -1.63851e-07 0)
(0.00100022 -1.98671e-07 0)
(0.000999969 -1.70084e-07 0)
(0.000999953 -2.63529e-07 0)
(0.00100008 -8.25257e-08 0)
(0.000999681 -2.08176e-07 0)
(0.000999599 -1.99506e-07 0)
(0.000999709 -1.67231e-07 0)
(0.000999936 -1.87056e-07 0)
(0.00100028 -1.83358e-07 0)
(0.00100064 -7.71386e-08 0)
(0.00100094 4.62518e-08 0)
(0.00100117 6.28519e-08 0)
(0.00100136 1.63701e-08 0)
(0.00100151 9.18297e-08 0)
(0.00100151 3.49572e-07 0)
(0.00100135 6.4146e-07 0)
(0.00100104 7.42548e-07 0)
(0.00100073 6.39889e-07 0)
(0.00100049 4.66889e-07 0)
(0.00100033 3.59868e-07 0)
(0.00100022 3.39516e-07 0)
(0.00100006 3.52761e-07 0)
(0.000999951 1.0261e-07 0)
(0.00100008 -1.0737e-07 0)
(0.000999728 -3.24536e-07 0)
(0.00099965 -3.53056e-07 0)
(0.000999768 -3.46937e-07 0)
(0.000999998 -4.23919e-07 0)
(0.00100033 -4.6674e-07 0)
(0.0010007 -3.54426e-07 0)
(0.00100104 -2.14798e-07 0)
(0.00100133 -2.27144e-07 0)
(0.00100156 -2.95243e-07 0)
(0.00100172 -1.46627e-07 0)
(0.00100173 3.07192e-07 0)
(0.00100154 7.87974e-07 0)
(0.00100116 9.18546e-07 0)
(0.00100076 6.92116e-07 0)
(0.00100045 3.69885e-07 0)
(0.00100023 1.68419e-07 0)
(0.00100012 1.50921e-07 0)
(0.000999927 2.0735e-07 0)
(0.000999951 -7.14653e-08 0)
(0.00100008 -1.03178e-07 0)
(0.000999791 -3.90172e-07 0)
(0.000999719 -4.57897e-07 0)
(0.000999842 -4.82339e-07 0)
(0.00100009 -6.14716e-07 0)
(0.00100043 -7.00261e-07 0)
(0.00100082 -5.85509e-07 0)
(0.00100122 -4.21137e-07 0)
(0.00100162 -4.11871e-07 0)
(0.00100196 -4.42925e-07 0)
(0.00100218 -1.12309e-07 0)
(0.00100216 6.07739e-07 0)
(0.00100186 1.35425e-06 0)
(0.00100133 1.59464e-06 0)
(0.0010008 1.26351e-06 0)
(0.00100039 7.42103e-07 0)
(0.00100019 3.73247e-07 0)
(0.00100014 3.11569e-07 0)
(0.00100016 3.65094e-07 0)
(0.00100009 3.88948e-08 0)
(0.00100008 -7.18287e-08 0)
(0.00099985 -4.10199e-07 0)
(0.000999782 -5.388e-07 0)
(0.000999903 -6.23622e-07 0)
(0.00100016 -8.40736e-07 0)
(0.0010005 -1.02343e-06 0)
(0.00100092 -9.81343e-07 0)
(0.00100144 -8.59359e-07 0)
(0.001002 -8.46322e-07 0)
(0.00100252 -8.00224e-07 0)
(0.00100285 -3.36643e-07 0)
(0.00100284 6.4316e-07 0)
(0.0010024 1.62953e-06 0)
(0.00100158 1.9548e-06 0)
(0.00100071 1.56219e-06 0)
(0.00100013 9.3315e-07 0)
(0.000999934 5.11225e-07 0)
(0.001 4.92842e-07 0)
(0.0010001 5.8347e-07 0)
(0.00100017 2.23089e-07 0)
(0.00100006 -2.90403e-08 0)
(0.000999894 -3.93435e-07 0)
(0.000999818 -5.91873e-07 0)
(0.000999918 -7.59223e-07 0)
(0.00100016 -1.08865e-06 0)
(0.00100051 -1.4173e-06 0)
(0.00100099 -1.55837e-06 0)
(0.00100166 -1.59593e-06 0)
(0.00100248 -1.62037e-06 0)
(0.00100323 -1.28181e-06 0)
(0.00100373 -1.47913e-07 0)
(0.00100373 1.57919e-06 0)
(0.00100306 2.83278e-06 0)
(0.00100187 2.73626e-06 0)
(0.00100072 1.58684e-06 0)
(0.00100002 4.27739e-07 0)
(0.000999934 -9.66537e-08 0)
(0.00100013 3.20791e-08 0)
(0.00100045 3.27296e-07 0)
(0.00100038 7.95596e-08 0)
(0.00100004 1.36429e-08 0)
(0.000999912 -3.49111e-07 0)
(0.000999812 -5.98083e-07 0)
(0.00099986 -8.6859e-07 0)
(0.00100006 -1.30965e-06 0)
(0.00100035 -1.85105e-06 0)
(0.00100085 -2.23898e-06 0)
(0.00100176 -2.71671e-06 0)
(0.00100315 -3.02732e-06 0)
(0.00100469 -2.99754e-06 0)
(0.00100572 -9.26336e-07 0)
(0.00100536 2.4798e-06 0)
(0.00100349 5.08407e-06 0)
(0.00100109 5.07762e-06 0)
(0.00099953 3.15399e-06 0)
(0.000999218 1.19538e-06 0)
(0.000999771 3.35631e-07 0)
(0.00100031 4.74583e-07 0)
(0.00100076 8.18762e-07 0)
(0.00100052 5.46528e-07 0)
(0.00100002 3.44162e-08 0)
(0.000999902 -2.62005e-07 0)
(0.000999736 -5.46958e-07 0)
(0.0009997 -8.63426e-07 0)
(0.000999776 -1.49803e-06 0)
(0.000999992 -2.26301e-06 0)
(0.00100034 -3.19824e-06 0)
(0.00100138 -3.83581e-06 0)
(0.00100304 -4.22651e-06 0)
(0.00100601 -2.68604e-06 0)
(0.00100904 4.9057e-07 0)
(0.00100907 4.18004e-06 0)
(0.00100553 4.89775e-06 0)
(0.00100081 3.01509e-06 0)
(0.000998164 8.18047e-07 0)
(0.000998179 -3.25544e-07 0)
(0.000999616 -3.51242e-07 0)
(0.00100064 1.05638e-07 0)
(0.00100119 3.99892e-07 0)
(0.00100077 1.05489e-07 0)
(0.001 5.08298e-08 0)
(0.000999865 -1.62869e-07 0)
(0.000999612 -3.45032e-07 0)
(0.000999384 -6.55339e-07 0)
(0.000999218 -1.27232e-06 0)
(0.00099914 -2.41888e-06 0)
(0.00099957 -4.55963e-06 0)
(0.00100125 -7.90304e-06 0)
(0.00100484 -1.32041e-05 0)
(0.00100954 -1.50167e-05 0)
(0.00101188 3.64341e-06 0)
(0.00100895 1.86582e-05 0)
(0.00100223 1.59206e-05 0)
(0.000997624 5.93652e-06 0)
(0.000996929 -2.77635e-07 0)
(0.000998417 -1.32151e-06 0)
(0.00100011 -1.19744e-07 0)
(0.00100077 7.08213e-07 0)
(0.00100099 7.19519e-07 0)
(0.00100051 1.90007e-07 0)
(0.000999797 1.97893e-08 0)
(0.00100012 -3.58828e-08 0)
(0.000999085 -1.10833e-07 0)
(0.000999772 -1.91135e-07 0)
(0.000997466 -5.42259e-07 0)
(0.000998767 -1.08962e-06 0)
(0.000993205 -2.83621e-06 0)
(0.0009974 -5.5737e-06 0)
(0.00099158 -1.15629e-05 0)
(0.00091585 -1.27428e-05 0)
(0.000951441 2.01098e-07 0)
(0.00101018 1.45764e-05 0)
(0.000990977 1.31457e-05 0)
(0.000984087 5.27783e-06 0)
(0.000989677 2.53777e-07 0)
(0.000996236 -7.58187e-07 0)
(0.000999064 -6.41047e-08 0)
(0.000999239 3.0355e-07 0)
(0.000998602 1.47499e-07 0)
(0.00099846 -2.57903e-07 0)
(0.000999798 -2.09018e-08 0)
(0.00100013 5.85027e-08 0)
(0.000999086 1.5376e-07 0)
(0.000999773 2.33335e-07 0)
(0.000997468 5.6767e-07 0)
(0.000998763 1.0813e-06 0)
(0.000993195 2.78633e-06 0)
(0.000997383 5.45188e-06 0)
(0.000991565 1.13771e-05 0)
(0.000915826 1.25389e-05 0)
(0.000951413 -4.3611e-07 0)
(0.00101017 -1.48333e-05 0)
(0.000990969 -1.33858e-05 0)
(0.000984069 -5.51595e-06 0)
(0.00098965 -5.18166e-07 0)
(0.000996187 3.93144e-07 0)
(0.000999016 -4.36583e-07 0)
(0.000999193 -1.0221e-06 0)
(0.000998585 -1.05203e-06 0)
(0.000998409 -9.6829e-07 0)
(0.001 -4.55431e-08 0)
(0.000999868 1.88913e-07 0)
(0.000999616 3.87947e-07 0)
(0.000999392 6.96453e-07 0)
(0.000999229 1.29834e-06 0)
(0.000999152 2.41259e-06 0)
(0.000999579 4.50792e-06 0)
(0.00100127 7.78116e-06 0)
(0.00100483 1.30148e-05 0)
(0.00100954 1.476e-05 0)
(0.00101185 -3.92267e-06 0)
(0.00100887 -1.89296e-05 0)
(0.00100213 -1.6154e-05 0)
(0.000997527 -6.16458e-06 0)
(0.000996839 3.86174e-08 0)
(0.00099835 9.99452e-07 0)
(0.00100002 -3.0016e-07 0)
(0.00100064 -1.34164e-06 0)
(0.0010008 -1.53518e-06 0)
(0.00100034 -1.3501e-06 0)
(0.00100002 -2.17417e-08 0)
(0.000999905 2.9575e-07 0)
(0.000999741 5.91928e-07 0)
(0.00099971 9.03942e-07 0)
(0.000999785 1.52127e-06 0)
(0.000999992 2.25005e-06 0)
(0.00100033 3.12964e-06 0)
(0.00100135 3.70223e-06 0)
(0.00100299 4.02446e-06 0)
(0.00100592 2.44105e-06 0)
(0.00100896 -7.76211e-07 0)
(0.001009 -4.46239e-06 0)
(0.00100543 -5.12927e-06 0)
(0.0010007 -3.23183e-06 0)
(0.000998041 -1.04599e-06 0)
(0.000998046 -7.03101e-09 0)
(0.000999453 -1.43256e-07 0)
(0.00100041 -8.13111e-07 0)
(0.00100093 -1.22795e-06 0)
(0.00100047 -1.2011e-06 0)
(0.00100004 6.23535e-09 0)
(0.000999912 3.91031e-07 0)
(0.000999815 6.46424e-07 0)
(0.000999871 9.08986e-07 0)
(0.00100007 1.33144e-06 0)
(0.00100035 1.83991e-06 0)
(0.00100084 2.18484e-06 0)
(0.00100175 2.61501e-06 0)
(0.00100312 2.87759e-06 0)
(0.00100464 2.80047e-06 0)
(0.00100563 7.23622e-07 0)
(0.00100522 -2.68617e-06 0)
(0.00100333 -5.27934e-06 0)
(0.0010009 -5.28569e-06 0)
(0.000999332 -3.40325e-06 0)
(0.000998983 -1.56263e-06 0)
(0.000999529 -8.47867e-07 0)
(0.00100002 -1.17369e-06 0)
(0.00100047 -1.63396e-06 0)
(0.00100011 -1.65971e-06 0)
(0.00100006 5.42209e-08 0)
(0.000999891 4.41603e-07 0)
(0.00099982 6.433e-07 0)
(0.000999929 8.01514e-07 0)
(0.00100017 1.11135e-06 0)
(0.00100051 1.40934e-06 0)
(0.00100098 1.50917e-06 0)
(0.00100163 1.49153e-06 0)
(0.00100242 1.44632e-06 0)
(0.00100312 1.04517e-06 0)
(0.00100359 -1.0441e-07 0)
(0.00100356 -1.83272e-06 0)
(0.00100284 -3.04432e-06 0)
(0.00100162 -2.92632e-06 0)
(0.00100046 -1.77987e-06 0)
(0.000999724 -6.9169e-07 0)
(0.000999631 -2.4819e-07 0)
(0.000999752 -5.50595e-07 0)
(0.00100003 -9.61236e-07 0)
(0.000999821 -9.95002e-07 0)
(0.00100007 9.92521e-08 0)
(0.000999844 4.60852e-07 0)
(0.000999782 5.89541e-07 0)
(0.000999911 6.66926e-07 0)
(0.00100016 8.67827e-07 0)
(0.0010005 1.0213e-06 0)
(0.00100091 9.35023e-07 0)
(0.0010014 7.59928e-07 0)
(0.00100193 7.04033e-07 0)
(0.00100242 6.19144e-07 0)
(0.0010027 1.37722e-07 0)
(0.00100264 -8.50376e-07 0)
(0.00100219 -1.80944e-06 0)
(0.00100134 -2.13041e-06 0)
(0.00100045 -1.75091e-06 0)
(0.000999818 -1.20883e-06 0)
(0.000999606 -8.9775e-07 0)
(0.00099957 -1.08009e-06 0)
(0.000999665 -1.31093e-06 0)
(0.000999519 -1.258e-06 0)
(0.00100008 1.28435e-07 0)
(0.000999782 4.36008e-07 0)
(0.000999719 5.0165e-07 0)
(0.000999851 5.16059e-07 0)
(0.00100009 6.33914e-07 0)
(0.00100042 7.00152e-07 0)
(0.00100079 5.58458e-07 0)
(0.00100118 3.5973e-07 0)
(0.00100155 3.23192e-07 0)
(0.00100183 3.3019e-07 0)
(0.00100199 1.60001e-09 0)
(0.00100192 -6.94343e-07 0)
(0.00100158 -1.40763e-06 0)
(0.00100101 -1.64208e-06 0)
(0.00100044 -1.31803e-06 0)
(0.00099997 -8.72642e-07 0)
(0.000999731 -5.87775e-07 0)
(0.000999556 -6.82766e-07 0)
(0.000999516 -8.04059e-07 0)
(0.000999267 -7.16955e-07 0)
(0.00100008 1.29533e-07 0)
(0.000999718 3.61451e-07 0)
(0.00099965 3.78149e-07 0)
(0.000999773 3.58348e-07 0)
(0.00100001 4.17546e-07 0)
(0.00100034 4.2415e-07 0)
(0.00100069 2.62439e-07 0)
(0.00100101 5.98648e-08 0)
(0.00100126 1.51891e-08 0)
(0.00100146 4.81473e-08 0)
(0.00100157 -1.12871e-07 0)
(0.00100152 -5.60255e-07 0)
(0.00100129 -1.01595e-06 0)
(0.00100086 -1.16095e-06 0)
(0.00100042 -9.55279e-07 0)
(0.00100003 -7.04096e-07 0)
(0.0009998 -5.54643e-07 0)
(0.000999547 -6.77969e-07 0)
(0.000999379 -7.92687e-07 0)
(0.000999052 -7.77634e-07 0)
(0.00100007 9.88902e-08 0)
(0.000999663 2.51968e-07 0)
(0.000999589 2.62963e-07 0)
(0.000999706 2.55312e-07 0)
(0.000999922 2.99359e-07 0)
(0.00100024 3.09031e-07 0)
(0.00100057 2.12344e-07 0)
(0.00100085 9.79075e-08 0)
(0.00100107 9.13965e-08 0)
(0.00100121 1.4453e-07 0)
(0.00100129 7.61801e-08 0)
(0.00100125 -1.65313e-07 0)
(0.00100103 -4.32382e-07 0)
(0.00100065 -5.26319e-07 0)
(0.0010003 -4.08733e-07 0)
(0.000999996 -2.6042e-07 0)
(0.000999792 -1.64655e-07 0)
(0.000999501 -2.38082e-07 0)
(0.000999257 -2.84692e-07 0)
(0.000998873 -2.70856e-07 0)
(0.00100007 1.94037e-08 0)
(0.00099964 4.13747e-08 0)
(0.000999569 1.84756e-08 0)
(0.000999681 -1.14411e-08 0)
(0.000999898 -2.22497e-08 0)
(0.00100022 -3.68667e-08 0)
(0.00100056 -8.20881e-08 0)
(0.00100082 -1.26106e-07 0)
(0.00100099 -1.39265e-07 0)
(0.0010011 -1.40443e-07 0)
(0.00100119 -1.75666e-07 0)
(0.00100115 -2.74258e-07 0)
(0.00100096 -3.79056e-07 0)
(0.00100061 -4.19584e-07 0)
(0.00100031 -3.81558e-07 0)
(0.00100001 -3.49291e-07 0)
(0.000999843 -3.22611e-07 0)
(0.000999511 -3.71553e-07 0)
(0.000999272 -3.77703e-07 0)
(0.000998753 -4.21358e-07 0)
)
;

boundaryField
{
    sides
    {
        type            slip;
    }
    inlet
    {
        type            fixedValue;
        value           uniform (0.001 0 0);
    }
    outlet
    {
        type            zeroGradient;
    }
    frontAndBack
    {
        type            empty;
    }
}


// ************************************************************************* //
