/*--------------------------------*- C++ -*----------------------------------*\
  =========                 |
  \\      /  F ield         | OpenFOAM: The Open Source CFD Toolbox
   \\    /   O peration     | Website:  https://openfoam.org
    \\  /    A nd           | Version:  9
     \\/     M anipulation  |
\*---------------------------------------------------------------------------*/
FoamFile
{
    format      ascii;
    class       volScalarField;
    location    "22";
    object      ddt0(h);
}
// * * * * * * * * * * * * * * * * * * * * * * * * * * * * * * * * * * * * * //

dimensions      [0 1 -1 0 0 0 0];

internalField   nonuniform List<scalar> 
400
(
4.6609e-07
7.94216e-08
-4.60629e-07
-1.11432e-06
-1.69982e-06
-1.88695e-06
-1.54697e-06
-9.94e-07
-5.17483e-07
-2.48367e-07
-2.00844e-07
-3.15375e-08
1.99967e-07
5.25528e-07
6.92542e-07
5.62084e-07
3.23275e-09
-4.68507e-07
-7.9612e-07
-3.12766e-07
4.91639e-07
1.22152e-08
-4.96474e-07
-1.10862e-06
-1.63115e-06
-1.70635e-06
-1.32729e-06
-8.00349e-07
-3.75182e-07
-2.3908e-07
-3.90767e-07
-3.12138e-07
-3.41862e-09
3.05686e-07
5.46042e-07
4.45737e-07
1.38916e-08
-4.20594e-07
-4.81632e-07
-2.15271e-07
4.9112e-07
-1.42133e-08
-5.38053e-07
-1.10468e-06
-1.49463e-06
-1.4109e-06
-1.03314e-06
-4.89793e-07
-1.83189e-07
-1.43097e-07
-3.24985e-07
-4.08429e-07
-3.35562e-07
-6.92827e-08
3.03041e-07
2.61008e-07
-5.07675e-08
-4.40444e-07
-9.47286e-07
-2.63537e-07
4.12719e-07
-1.01475e-07
-6.24823e-07
-1.08375e-06
-1.29719e-06
-1.13863e-06
-6.97258e-07
-7.15105e-08
1.05643e-07
-1.25608e-07
-1.25325e-07
-6.75751e-07
-6.64344e-07
-3.38145e-07
-2.78058e-08
8.71817e-08
-5.00288e-08
-2.64087e-07
-1.05203e-07
-2.17992e-07
2.15938e-07
-2.51525e-07
-7.37652e-07
-1.0788e-06
-1.15518e-06
-8.96169e-07
-2.2917e-07
3.18047e-07
5.29768e-07
1.48871e-07
-2.78864e-07
-5.91421e-07
-7.63595e-07
-5.06293e-07
-3.55341e-07
-1.94568e-07
-1.50177e-07
-3.57984e-07
-6.15217e-08
-2.33952e-07
-9.11482e-08
-4.65625e-07
-9.06343e-07
-1.1313e-06
-1.03941e-06
-5.65383e-07
1.87255e-07
8.1316e-07
7.34291e-07
7.08702e-07
-2.13258e-07
-2.02538e-07
-5.97118e-07
-6.72892e-07
-5.3428e-07
-3.54692e-07
-1.08542e-07
4.24327e-08
-1.74735e-07
3.18294e-08
-5.29294e-07
-7.70723e-07
-1.11026e-06
-1.22103e-06
-9.31815e-07
-3.02252e-07
5.29385e-07
1.05917e-06
1.23783e-06
1.03973e-06
7.41109e-07
-2.49497e-07
-1.29134e-07
-4.37494e-07
-5.51631e-07
-5.17638e-07
-2.15006e-07
2.06532e-07
3.64265e-07
1.57111e-07
-9.9004e-07
-1.12176e-06
-1.3631e-06
-1.35189e-06
-8.91775e-07
-1.27642e-07
7.15223e-07
1.41196e-06
1.63162e-06
9.2195e-07
7.04777e-06
8.1363e-07
7.27634e-08
-2.87683e-07
-5.23693e-07
-5.67427e-07
-1.98186e-07
3.22008e-07
5.78924e-07
2.61617e-07
-1.35363e-06
-1.40696e-06
-1.57244e-06
-1.47348e-06
-8.66725e-07
-6.231e-08
8.68783e-07
1.59186e-06
1.82441e-06
2.18545e-06
-4.73889e-06
6.98168e-07
6.78098e-07
-2.82347e-08
-4.72042e-07
-4.89764e-07
-1.2946e-07
4.70229e-07
6.97221e-07
3.01234e-07
-1.55706e-06
-1.59264e-06
-1.69869e-06
-1.52547e-06
-8.72512e-07
2.18871e-08
9.04311e-07
1.69637e-06
2.05455e-06
1.8516e-06
1.26529e-06
1.42678e-06
7.18615e-07
2.38552e-07
-3.69585e-07
-4.73744e-07
-5.72877e-08
5.32895e-07
7.43137e-07
3.66453e-07
-1.55981e-06
-1.60632e-06
-1.69401e-06
-1.50119e-06
-8.81316e-07
1.22946e-08
9.02497e-07
1.55911e-06
2.19214e-06
1.82112e-06
2.13661e-06
1.23054e-06
9.0149e-07
3.82134e-07
-2.60277e-07
-4.267e-07
-1.33558e-08
5.14668e-07
7.58939e-07
3.98054e-07
-1.351e-06
-1.42219e-06
-1.54801e-06
-1.43365e-06
-9.18639e-07
-5.14835e-08
8.27538e-07
1.52821e-06
1.82268e-06
2.07544e-06
1.91897e-06
1.50046e-06
7.50234e-07
1.84503e-07
-2.88427e-07
-4.57753e-07
3.10849e-08
5.09133e-07
7.26724e-07
3.71204e-07
-9.39037e-07
-1.0923e-06
-1.30174e-06
-1.30592e-06
-9.40862e-07
-1.46425e-07
7.46782e-07
1.40705e-06
1.67485e-06
1.13082e-06
3.636e-07
-2.27364e-08
1.03206e-07
-1.26824e-07
-3.81762e-07
-2.77034e-07
1.37674e-08
4.69967e-07
6.18218e-07
2.74167e-07
-4.34014e-07
-7.21753e-07
-1.04669e-06
-1.19655e-06
-9.81793e-07
-3.54393e-07
5.03116e-07
1.15082e-06
1.27294e-06
1.03028e-06
8.6315e-08
-4.72498e-08
-2.94439e-07
-3.74613e-07
-4.0403e-07
-3.05047e-07
-1.85616e-08
3.18416e-07
3.77292e-07
1.50628e-07
4.97813e-09
-3.61165e-07
-8.27511e-07
-1.11499e-06
-1.02762e-06
-5.80241e-07
1.08294e-07
8.01955e-07
9.65125e-07
6.96576e-07
9.4932e-08
-2.518e-07
-5.01163e-07
-4.81239e-07
-3.69249e-07
-2.36628e-07
-1.0177e-07
5.76825e-08
8.49366e-08
3.79197e-08
3.3492e-07
-1.02072e-07
-6.14473e-07
-1.0582e-06
-1.12489e-06
-7.6438e-07
-2.40901e-07
3.37923e-07
5.77484e-07
3.80768e-07
-7.78324e-08
-4.39693e-07
-5.66398e-07
-4.58761e-07
-2.40586e-07
-1.81425e-07
-1.90632e-07
-1.85029e-07
-1.63847e-07
-6.5928e-08
5.403e-07
2.46056e-08
-4.81079e-07
-9.73152e-07
-1.25538e-06
-1.06278e-06
-5.27885e-07
-7.7976e-08
2.48945e-07
1.17695e-07
-1.15321e-07
-4.31687e-07
-4.29954e-07
-2.43941e-07
-5.65641e-08
-2.36935e-08
-1.37935e-07
-3.08802e-07
-3.6842e-07
-1.77113e-07
5.41866e-07
1.31105e-07
-4.01721e-07
-9.1172e-07
-1.30453e-06
-1.33762e-06
-8.95935e-07
-3.60747e-07
-9.74185e-08
-5.60077e-08
-2.46299e-07
-3.0651e-07
-2.36757e-07
-2.86181e-08
2.11938e-07
2.45552e-07
-3.52691e-08
-4.05917e-07
-5.49071e-07
-2.71373e-07
6.47089e-07
1.84406e-07
-2.96406e-07
-9.17737e-07
-1.39889e-06
-1.4941e-06
-1.17807e-06
-6.43372e-07
-2.9141e-07
-1.76996e-07
-1.54461e-07
-1.48098e-07
4.00889e-08
3.59015e-07
5.73315e-07
4.76634e-07
3.40521e-08
-4.6864e-07
-6.55853e-07
-3.22253e-07
5.21206e-07
1.54937e-07
-2.93117e-07
-9.23867e-07
-1.47592e-06
-1.61174e-06
-1.33172e-06
-7.83205e-07
-3.13424e-07
-2.11365e-07
-1.53826e-07
-3.22913e-08
2.50798e-07
6.2225e-07
8.22018e-07
6.50525e-07
1.17148e-07
-4.57669e-07
-6.73175e-07
-3.32639e-07
)
;

boundaryField
{
    sides
    {
        type            calculated;
        value           nonuniform List<scalar> 
40
(
5.21206e-07
1.54937e-07
-2.93117e-07
-9.23867e-07
-1.47592e-06
-1.61174e-06
-1.33172e-06
-7.83205e-07
-3.13424e-07
-2.11365e-07
-1.53826e-07
-3.22913e-08
2.50798e-07
6.2225e-07
8.22018e-07
6.50525e-07
1.17148e-07
-4.57669e-07
-6.73175e-07
-3.32639e-07
4.6609e-07
7.94216e-08
-4.60629e-07
-1.11432e-06
-1.69982e-06
-1.88695e-06
-1.54697e-06
-9.94e-07
-5.17483e-07
-2.48367e-07
-2.00844e-07
-3.15375e-08
1.99967e-07
5.25528e-07
6.92542e-07
5.62084e-07
3.23275e-09
-4.68507e-07
-7.9612e-07
-3.12766e-07
)
;
    }
    inlet
    {
        type            calculated;
        value           nonuniform List<scalar> 
20
(
4.6609e-07
4.91639e-07
4.9112e-07
4.12719e-07
2.15938e-07
-9.11482e-08
-5.29294e-07
-9.9004e-07
-1.35363e-06
-1.55706e-06
-1.55981e-06
-1.351e-06
-9.39037e-07
-4.34014e-07
4.97813e-09
3.3492e-07
5.403e-07
5.41866e-07
6.47089e-07
5.21206e-07
)
;
    }
    outlet
    {
        type            calculated;
        value           uniform 0;
    }
    frontAndBack
    {
        type            empty;
    }
}


// ************************************************************************* //
