/*--------------------------------*- C++ -*----------------------------------*\
  =========                 |
  \\      /  F ield         | OpenFOAM: The Open Source CFD Toolbox
   \\    /   O peration     | Website:  https://openfoam.org
    \\  /    A nd           | Version:  9
     \\/     M anipulation  |
\*---------------------------------------------------------------------------*/
FoamFile
{
    format      ascii;
    class       volVectorField;
    location    "22";
    object      ddt0(hU);
}
// * * * * * * * * * * * * * * * * * * * * * * * * * * * * * * * * * * * * * //

dimensions      [0 2 -2 0 0 0 0];

internalField   nonuniform List<vector> 
400
(
(6.82949e-08 5.94053e-08 0)
(2.39954e-07 1.3173e-07 0)
(1.36672e-07 1.08144e-07 0)
(2.45955e-07 4.28786e-08 0)
(4.23262e-07 5.1455e-09 0)
(4.70697e-07 9.45095e-09 0)
(3.72059e-07 1.81743e-08 0)
(1.38549e-07 -5.58861e-10 0)
(-1.19158e-07 -3.95695e-08 0)
(-2.93949e-07 -8.44343e-08 0)
(-3.56368e-07 -6.34503e-08 0)
(-3.45975e-07 -6.4489e-08 0)
(-3.99604e-07 -2.68407e-08 0)
(-4.95205e-07 3.73004e-08 0)
(-5.36686e-07 5.6382e-08 0)
(-4.04845e-07 4.35871e-08 0)
(-7.56342e-08 2.50714e-08 0)
(2.89895e-07 3.99755e-08 0)
(4.29601e-07 5.51777e-08 0)
(5.5826e-07 3.46923e-08 0)
(6.80931e-08 1.23859e-07 0)
(2.06149e-07 3.27711e-07 0)
(1.34598e-07 3.00586e-07 0)
(2.46827e-07 1.43633e-07 0)
(4.00097e-07 2.96731e-08 0)
(4.28631e-07 2.06415e-08 0)
(3.2042e-07 3.78603e-08 0)
(9.3088e-08 -8.1144e-09 0)
(-1.47145e-07 -1.11536e-07 0)
(-2.61342e-07 -2.18947e-07 0)
(-3.31327e-07 -2.77218e-07 0)
(-3.80144e-07 -2.18089e-07 0)
(-3.86666e-07 -4.72939e-08 0)
(-4.47789e-07 1.21632e-07 0)
(-4.81223e-07 1.53479e-07 0)
(-3.69857e-07 1.00222e-07 0)
(-8.92536e-08 2.95726e-08 0)
(2.28619e-07 1.3576e-07 0)
(4.23259e-07 2.73096e-07 0)
(5.41248e-07 9.45376e-08 0)
(7.08562e-08 1.69763e-07 0)
(1.91958e-07 4.75894e-07 0)
(1.55917e-07 4.52799e-07 0)
(2.48811e-07 2.25162e-07 0)
(3.43119e-07 4.75775e-08 0)
(3.39632e-07 3.85457e-08 0)
(2.28605e-07 8.11568e-08 0)
(2.85357e-08 2.33271e-08 0)
(-1.7283e-07 -1.26986e-07 0)
(-2.87205e-07 -2.83654e-07 0)
(-3.05539e-07 -4.0538e-07 0)
(-2.80283e-07 -3.05246e-07 0)
(-3.12717e-07 -5.07111e-08 0)
(-3.94644e-07 1.71786e-07 0)
(-4.21337e-07 2.14685e-07 0)
(-3.36549e-07 1.34368e-07 0)
(-7.85718e-08 5.85507e-08 0)
(2.34224e-07 2.06164e-07 0)
(2.91143e-07 3.68872e-07 0)
(4.25804e-07 1.51163e-07 0)
(7.07019e-08 2.43928e-07 0)
(1.63441e-07 6.1362e-07 0)
(1.66217e-07 5.75276e-07 0)
(2.45895e-07 2.87901e-07 0)
(2.87607e-07 6.79142e-08 0)
(2.44549e-07 8.07272e-08 0)
(1.21724e-07 1.51451e-07 0)
(-5.35925e-08 9.16993e-08 0)
(-2.11467e-07 -7.64297e-08 0)
(-2.77517e-07 -2.73872e-07 0)
(-2.35057e-07 -3.91683e-07 0)
(-2.61866e-07 -3.22394e-07 0)
(-2.86174e-07 -5.91065e-08 0)
(-3.10017e-07 1.90553e-07 0)
(-3.02076e-07 2.42847e-07 0)
(-2.23995e-07 1.23066e-07 0)
(-8.76683e-08 4.36371e-08 0)
(8.85039e-08 2.70278e-07 0)
(2.89968e-07 5.12511e-07 0)
(3.74358e-07 2.08678e-07 0)
(6.28973e-08 3.02263e-07 0)
(1.32669e-07 6.92142e-07 0)
(1.85968e-07 6.50459e-07 0)
(2.44308e-07 3.37954e-07 0)
(2.18273e-07 1.01731e-07 0)
(1.27718e-07 1.28804e-07 0)
(8.18716e-09 2.18258e-07 0)
(-1.34445e-07 1.72612e-07 0)
(-2.23293e-07 -1.18618e-08 0)
(-2.59246e-07 -2.23965e-07 0)
(-2.3282e-07 -4.13008e-07 0)
(-2.16076e-07 -3.61303e-07 0)
(-2.2941e-07 -6.36112e-08 0)
(-2.15334e-07 1.84562e-07 0)
(-2.11073e-07 2.30853e-07 0)
(-1.6121e-07 9.81713e-08 0)
(-2.85306e-08 1.44334e-08 0)
(1.35043e-07 2.67911e-07 0)
(1.79912e-07 5.41277e-07 0)
(1.62919e-07 2.14214e-07 0)
(4.85853e-08 3.32692e-07 0)
(9.80492e-08 7.0444e-07 0)
(1.94336e-07 6.58506e-07 0)
(2.36972e-07 3.50655e-07 0)
(1.58958e-07 1.29697e-07 0)
(3.64849e-08 1.63316e-07 0)
(-9.09231e-08 2.7118e-07 0)
(-2.11523e-07 2.5072e-07 0)
(-2.7504e-07 9.75487e-08 0)
(-2.45547e-07 -1.6719e-07 0)
(-2.49328e-07 -3.09187e-07 0)
(-1.36846e-07 -3.19292e-07 0)
(-1.59026e-07 -5.13592e-08 0)
(-1.39465e-07 1.95467e-07 0)
(-6.54603e-08 2.10814e-07 0)
(-2.3457e-08 7.69157e-08 0)
(-1.86538e-08 1.67859e-08 0)
(-4.91847e-09 2.52308e-07 0)
(7.79756e-08 4.72126e-07 0)
(1.50378e-07 2.12354e-07 0)
(2.75326e-08 3.18713e-07 0)
(6.3958e-08 6.37898e-07 0)
(2.00006e-07 6.00989e-07 0)
(2.34036e-07 3.36282e-07 0)
(1.05659e-07 1.45837e-07 0)
(-5.40235e-08 1.78419e-07 0)
(-1.72737e-07 2.85745e-07 0)
(-2.47304e-07 2.76452e-07 0)
(-2.94912e-07 1.38232e-07 0)
(-2.24959e-07 -5.90229e-08 0)
(-1.42905e-07 -3.46718e-07 0)
(-1.94163e-07 -2.02819e-07 0)
(-7.90589e-08 -7.60104e-08 0)
(-4.27498e-08 1.44736e-07 0)
(1.79712e-08 1.71944e-07 0)
(6.77307e-08 4.1924e-08 0)
(4.23004e-08 -1.6587e-08 0)
(-8.08889e-09 2.48226e-07 0)
(3.1572e-08 5.05183e-07 0)
(4.26746e-08 2.00392e-07 0)
(4.6274e-09 2.61614e-07 0)
(3.61954e-08 4.99788e-07 0)
(2.03875e-07 4.79971e-07 0)
(2.27384e-07 2.84267e-07 0)
(6.04175e-08 1.3572e-07 0)
(-1.26318e-07 1.75215e-07 0)
(-2.50192e-07 2.90529e-07 0)
(-3.05244e-07 2.98827e-07 0)
(-2.70132e-07 1.64482e-07 0)
(-3.89194e-07 -4.18207e-09 0)
(4.69527e-07 -5.44806e-08 0)
(1.05325e-08 -2.30504e-07 0)
(-1.36131e-07 -7.78361e-08 0)
(5.22875e-08 5.49192e-08 0)
(1.53996e-07 9.12064e-08 0)
(1.71675e-07 1.67997e-08 0)
(9.11287e-08 -3.13369e-08 0)
(-5.11459e-08 1.76422e-07 0)
(-3.34258e-08 3.87362e-07 0)
(-2.69752e-08 1.57095e-07 0)
(-1.36438e-08 1.73287e-07 0)
(1.66784e-08 3.16167e-07 0)
(2.0904e-07 3.1014e-07 0)
(2.2178e-07 1.92309e-07 0)
(3.36648e-08 1.01072e-07 0)
(-1.53292e-07 1.29689e-07 0)
(-2.60845e-07 2.13404e-07 0)
(-3.20044e-07 2.28354e-07 0)
(-3.33129e-07 1.42342e-07 0)
(-6.90221e-08 3.17357e-08 0)
(-8.06735e-07 3.23888e-08 0)
(-3.03398e-07 -1.63969e-07 0)
(-1.633e-08 -5.34682e-08 0)
(8.24201e-08 3.31184e-08 0)
(2.3479e-07 3.87736e-08 0)
(2.60952e-07 -7.60736e-09 0)
(1.39418e-07 -4.04425e-08 0)
(-4.33409e-08 1.1508e-07 0)
(-7.26334e-08 2.87612e-07 0)
(-8.00113e-08 1.12004e-07 0)
(-2.30435e-08 5.96861e-08 0)
(6.01054e-09 1.02942e-07 0)
(2.0726e-07 1.06667e-07 0)
(2.15485e-07 7.30183e-08 0)
(1.26418e-08 5.19042e-08 0)
(-1.89432e-07 6.75539e-08 0)
(-2.94676e-07 9.08577e-08 0)
(-3.1356e-07 9.47243e-08 0)
(-2.92602e-07 5.30394e-08 0)
(-2.14312e-07 3.02271e-08 0)
(-1.77114e-07 -1.49133e-07 0)
(-7.61025e-08 -2.3504e-08 0)
(-6.68184e-08 -6.50446e-08 0)
(9.77431e-08 1.28485e-08 0)
(2.68765e-07 1.97586e-08 0)
(3.09677e-07 -8.56983e-09 0)
(1.52948e-07 -8.2095e-09 0)
(-5.16511e-08 6.55262e-08 0)
(-7.19373e-08 1.52215e-07 0)
(-8.76529e-08 5.87205e-08 0)
(-2.18203e-08 -6.7437e-08 0)
(6.70377e-09 -1.26245e-07 0)
(2.03621e-07 -1.13386e-07 0)
(2.11839e-07 -5.62363e-08 0)
(1.33383e-08 -1.17495e-09 0)
(-1.88343e-07 1.7251e-08 0)
(-2.9157e-07 -6.27639e-09 0)
(-3.06499e-07 -1.21952e-08 0)
(-2.94461e-07 1.16159e-08 0)
(-2.42495e-07 -1.56996e-08 0)
(-8.04544e-08 -1.1368e-07 0)
(-1.07541e-07 1.73401e-08 0)
(-4.07273e-08 2.66274e-08 0)
(1.33465e-07 -2.49662e-08 0)
(2.71428e-07 -3.70438e-08 0)
(3.04129e-07 1.13776e-08 0)
(1.53768e-07 4.68692e-08 0)
(-5.8161e-08 -1.06364e-08 0)
(-7.01808e-08 -1.70321e-08 0)
(-8.02852e-08 1.24404e-08 0)
(-1.10914e-08 -1.84588e-07 0)
(1.71769e-08 -3.43441e-07 0)
(1.9808e-07 -3.26024e-07 0)
(2.1069e-07 -1.82628e-07 0)
(2.74299e-08 -5.67708e-08 0)
(-1.57807e-07 -5.2452e-08 0)
(-2.63566e-07 -1.26181e-07 0)
(-3.07624e-07 -1.59666e-07 0)
(-3.04927e-07 -1.30814e-07 0)
(-3.36452e-07 -5.03466e-08 0)
(-1.30559e-07 2.15455e-07 0)
(6.52238e-08 9.32724e-08 0)
(-5.16495e-08 2.00847e-08 0)
(6.61984e-08 -6.96019e-08 0)
(2.24888e-07 -7.07452e-08 0)
(2.4888e-07 1.11199e-08 0)
(1.42494e-07 7.26783e-08 0)
(-3.34983e-08 -5.4189e-08 0)
(-4.69111e-08 -1.3552e-07 0)
(-5.95829e-08 -4.18105e-08 0)
(8.38614e-09 -2.77645e-07 0)
(3.46153e-08 -5.27603e-07 0)
(1.90695e-07 -5.02509e-07 0)
(2.13703e-07 -2.76713e-07 0)
(5.90012e-08 -9.27618e-08 0)
(-1.229e-07 -1.03772e-07 0)
(-2.46458e-07 -1.98421e-07 0)
(-3.06914e-07 -2.28278e-07 0)
(-2.89211e-07 -1.61198e-07 0)
(-8.64324e-08 -2.00709e-08 0)
(-1.98162e-07 2.72264e-07 0)
(-3.72427e-07 1.48727e-07 0)
(-1.07387e-07 9.96909e-09 0)
(5.40413e-08 -1.04338e-07 0)
(1.49343e-07 -1.10046e-07 0)
(1.7662e-07 1.13011e-09 0)
(1.01361e-07 9.27193e-08 0)
(-7.59053e-09 -9.15864e-08 0)
(-9.05529e-09 -2.48355e-07 0)
(-2.05051e-08 -9.73685e-08 0)
(3.31907e-08 -3.32281e-07 0)
(5.68001e-08 -6.55455e-07 0)
(1.82453e-07 -6.1604e-07 0)
(2.21088e-07 -3.2255e-07 0)
(1.00273e-07 -9.06095e-08 0)
(-5.49536e-08 -1.09341e-07 0)
(-1.69429e-07 -2.04745e-07 0)
(-2.57087e-07 -2.11698e-07 0)
(-2.80613e-07 -9.76176e-08 0)
(-2.0089e-07 6.6265e-08 0)
(-2.13671e-07 8.3303e-09 0)
(-1.74117e-07 1.88801e-07 0)
(-1.2229e-07 2.77613e-08 0)
(-5.97701e-08 -1.72047e-07 0)
(2.61553e-08 -1.80927e-07 0)
(7.62955e-08 -2.03037e-08 0)
(5.32194e-08 8.49194e-08 0)
(8.3539e-10 -1.50734e-07 0)
(3.46286e-08 -3.60066e-07 0)
(5.46288e-08 -1.43904e-07 0)
(5.37062e-08 -3.38925e-07 0)
(9.13253e-08 -7.11786e-07 0)
(1.71814e-07 -6.58418e-07 0)
(2.2839e-07 -3.34034e-07 0)
(1.59286e-07 -7.93987e-08 0)
(3.18676e-08 -9.0954e-08 0)
(-9.44787e-08 -1.96347e-07 0)
(-2.06049e-07 -1.81349e-07 0)
(-2.62835e-07 -3.91164e-08 0)
(-2.73308e-07 1.49614e-07 0)
(-2.03987e-07 2.75131e-07 0)
(-1.29111e-07 2.40661e-07 0)
(-1.64582e-07 -1.46178e-08 0)
(-1.30938e-07 -2.15709e-07 0)
(-6.53438e-08 -2.12725e-07 0)
(-2.8005e-08 -6.11771e-08 0)
(-1.06018e-08 3.79655e-08 0)
(2.12059e-08 -2.0315e-07 0)
(9.35148e-08 -4.21266e-07 0)
(1.50293e-07 -1.66631e-07 0)
(6.66028e-08 -3.08159e-07 0)
(1.29156e-07 -6.95086e-07 0)
(1.63642e-07 -6.38924e-07 0)
(2.25251e-07 -3.08748e-07 0)
(2.20416e-07 -6.26912e-08 0)
(1.38883e-07 -6.57568e-08 0)
(1.82443e-08 -1.59528e-07 0)
(-1.23198e-07 -1.24654e-07 0)
(-2.3018e-07 4.68272e-08 0)
(-2.44471e-07 2.42166e-07 0)
(-2.41696e-07 4.13298e-07 0)
(-2.27036e-07 3.26957e-07 0)
(-1.97967e-07 4.88553e-08 0)
(-2.02527e-07 -1.93124e-07 0)
(-2.12708e-07 -2.33344e-07 0)
(-1.79486e-07 -9.97962e-08 0)
(-5.74728e-08 8.24974e-09 0)
(7.42146e-08 -2.3143e-07 0)
(1.72692e-07 -4.40655e-07 0)
(2.59784e-07 -1.6849e-07 0)
(7.59706e-08 -2.48344e-07 0)
(1.63616e-07 -6.0494e-07 0)
(1.56326e-07 -5.59156e-07 0)
(2.28138e-07 -2.6276e-07 0)
(2.74445e-07 -3.9015e-08 0)
(2.41792e-07 -3.44074e-08 0)
(1.35238e-07 -9.9481e-08 0)
(-3.29398e-08 -6.66999e-08 0)
(-1.83709e-07 9.46915e-08 0)
(-2.63299e-07 2.85519e-07 0)
(-2.41859e-07 4.12348e-07 0)
(-2.34374e-07 3.40984e-07 0)
(-2.67398e-07 5.59875e-08 0)
(-3.26855e-07 -2.01359e-07 0)
(-3.51487e-07 -2.42773e-07 0)
(-2.7985e-07 -1.05374e-07 0)
(-9.10823e-08 -2.54824e-09 0)
(1.22912e-07 -2.22391e-07 0)
(2.66387e-07 -4.06321e-07 0)
(3.70473e-07 -1.55283e-07 0)
(7.27012e-08 -1.82512e-07 0)
(1.98842e-07 -4.70591e-07 0)
(1.34724e-07 -4.30342e-07 0)
(2.24625e-07 -1.92181e-07 0)
(3.40006e-07 -1.06367e-08 0)
(3.43835e-07 -1.41266e-08 0)
(2.37325e-07 -6.16293e-08 0)
(4.68666e-08 -2.00921e-08 0)
(-1.44847e-07 1.09788e-07 0)
(-2.42937e-07 2.82331e-07 0)
(-2.95286e-07 3.72366e-07 0)
(-3.14182e-07 2.96372e-07 0)
(-3.33663e-07 5.08972e-08 0)
(-4.03269e-07 -1.72249e-07 0)
(-4.44525e-07 -2.15291e-07 0)
(-3.60463e-07 -1.12021e-07 0)
(-1.07654e-07 -2.82251e-08 0)
(1.8337e-07 -1.82974e-07 0)
(3.45721e-07 -3.22598e-07 0)
(4.60913e-07 -1.27136e-07 0)
(8.19945e-08 -9.34522e-08 0)
(2.26929e-07 -2.87211e-07 0)
(1.32591e-07 -2.7397e-07 0)
(2.23888e-07 -1.24267e-07 0)
(3.73755e-07 -2.0498e-09 0)
(4.12323e-07 -7.09713e-10 0)
(3.20486e-07 -2.39763e-08 0)
(1.19266e-07 1.7037e-08 0)
(-9.67233e-08 1.01462e-07 0)
(-2.49761e-07 1.98424e-07 0)
(-3.07713e-07 2.61296e-07 0)
(-3.2458e-07 2.25386e-07 0)
(-3.90575e-07 5.72883e-08 0)
(-4.88627e-07 -1.03673e-07 0)
(-5.26909e-07 -1.43992e-07 0)
(-4.13974e-07 -7.64123e-08 0)
(-1.07499e-07 -1.88655e-08 0)
(2.40591e-07 -1.24356e-07 0)
(4.14176e-07 -2.18454e-07 0)
(5.36494e-07 -8.47247e-08 0)
(6.60532e-08 -1.65385e-08 0)
(2.21631e-07 -8.76392e-08 0)
(1.14067e-07 -9.54116e-08 0)
(2.22202e-07 -5.24425e-08 0)
(4.02039e-07 -5.99673e-09 0)
(4.6045e-07 3.94529e-09 0)
(3.74374e-07 3.47342e-09 0)
(1.53665e-07 2.11306e-08 0)
(-9.05739e-08 4.52631e-08 0)
(-2.43289e-07 6.65122e-08 0)
(-3.10329e-07 1.0581e-07 0)
(-3.60023e-07 8.07293e-08 0)
(-4.19372e-07 1.36085e-08 0)
(-5.07718e-07 -3.77478e-08 0)
(-5.46266e-07 -4.54493e-08 0)
(-4.33362e-07 -1.9779e-08 0)
(-1.17672e-07 -2.00189e-09 0)
(2.56915e-07 -4.55615e-08 0)
(4.55196e-07 -8.14268e-08 0)
(5.85675e-07 -3.1155e-08 0)
)
;

boundaryField
{
    sides
    {
        type            calculated;
        value           nonuniform List<vector> 
40
(
(6.60532e-08 0 0)
(2.21631e-07 0 0)
(1.14067e-07 0 0)
(2.22202e-07 0 0)
(4.02039e-07 0 0)
(4.6045e-07 0 0)
(3.74374e-07 0 0)
(1.53665e-07 0 0)
(-9.05739e-08 0 0)
(-2.43289e-07 0 0)
(-3.10329e-07 0 0)
(-3.60023e-07 0 0)
(-4.19372e-07 0 0)
(-5.07718e-07 0 0)
(-5.46266e-07 0 0)
(-4.33362e-07 0 0)
(-1.17672e-07 0 0)
(2.56915e-07 0 0)
(4.55196e-07 0 0)
(5.85675e-07 0 0)
(6.82949e-08 0 0)
(2.39954e-07 0 0)
(1.36672e-07 0 0)
(2.45955e-07 0 0)
(4.23262e-07 0 0)
(4.70697e-07 0 0)
(3.72059e-07 0 0)
(1.38549e-07 0 0)
(-1.19158e-07 0 0)
(-2.93949e-07 0 0)
(-3.56368e-07 0 0)
(-3.45975e-07 0 0)
(-3.99604e-07 0 0)
(-4.95205e-07 0 0)
(-5.36686e-07 0 0)
(-4.04845e-07 0 0)
(-7.56342e-08 0 0)
(2.89895e-07 0 0)
(4.29601e-07 0 0)
(5.5826e-07 0 0)
)
;
    }
    inlet
    {
        type            calculated;
        value           uniform (0 0 0);
    }
    outlet
    {
        type            calculated;
        value           nonuniform List<vector> 
20
(
(5.5826e-07 3.46923e-08 0)
(5.41248e-07 9.45376e-08 0)
(4.25804e-07 1.51163e-07 0)
(3.74358e-07 2.08678e-07 0)
(1.62919e-07 2.14214e-07 0)
(1.50378e-07 2.12354e-07 0)
(4.26746e-08 2.00392e-07 0)
(-2.69752e-08 1.57095e-07 0)
(-8.00113e-08 1.12004e-07 0)
(-8.76529e-08 5.87205e-08 0)
(-8.02852e-08 1.24404e-08 0)
(-5.95829e-08 -4.18105e-08 0)
(-2.05051e-08 -9.73685e-08 0)
(5.46288e-08 -1.43904e-07 0)
(1.50293e-07 -1.66631e-07 0)
(2.59784e-07 -1.6849e-07 0)
(3.70473e-07 -1.55283e-07 0)
(4.60913e-07 -1.27136e-07 0)
(5.36494e-07 -8.47247e-08 0)
(5.85675e-07 -3.1155e-08 0)
)
;
    }
    frontAndBack
    {
        type            empty;
    }
}


// ************************************************************************* //
