/*--------------------------------*- C++ -*----------------------------------*\
  =========                 |
  \\      /  F ield         | OpenFOAM: The Open Source CFD Toolbox
   \\    /   O peration     | Website:  https://openfoam.org
    \\  /    A nd           | Version:  9
     \\/     M anipulation  |
\*---------------------------------------------------------------------------*/
FoamFile
{
    format      ascii;
    class       surfaceScalarField;
    location    "22";
    object      ddtCorrDdt0(phi);
}
// * * * * * * * * * * * * * * * * * * * * * * * * * * * * * * * * * * * * * //

dimensions      [0 4 -2 0 0 0 0];

internalField   nonuniform List<scalar> 
760
(
7.47133e-10
6.77075e-10
7.70859e-10
1.04951e-09
1.06849e-09
9.80982e-10
1.83466e-09
4.5673e-10
2.51523e-09
8.50957e-11
2.31765e-09
3.30185e-11
1.25567e-09
6.63961e-11
-8.54134e-11
-8.28338e-11
-1.11322e-09
-3.7846e-10
-1.74954e-09
-7.00316e-10
-1.72011e-09
-4.66332e-10
-1.83992e-09
-6.82508e-10
-2.32792e-09
-1.78969e-10
-2.72463e-09
4.57931e-10
-2.63098e-09
5.79817e-10
-1.29601e-09
3.88409e-10
6.31379e-10
1.22827e-10
1.9854e-09
5.31638e-10
2.59515e-09
8.26385e-10
2.861e-10
5.99023e-10
7.76853e-10
7.25119e-10
1.97029e-09
1.07842e-09
1.85704e-09
1.79363e-09
8.86959e-10
2.33713e-09
1.59874e-10
2.05934e-09
1.00643e-10
9.81214e-10
2.39288e-10
-2.79949e-10
4.50878e-12
-1.19923e-09
-6.36444e-10
-1.35931e-09
-1.37057e-09
-1.91632e-09
-9.77208e-10
-1.87144e-09
-1.32086e-09
-2.09869e-09
-2.2395e-10
-2.48348e-09
7.88078e-10
-2.3571e-09
9.7051e-10
-1.29637e-09
6.47802e-10
4.73425e-10
2.56412e-10
1.75703e-09
7.55285e-10
2.61357e-09
2.09746e-09
6.65067e-10
5.56683e-10
1.06325e-09
8.04167e-10
2.7482e-09
1.13403e-09
2.59706e-09
1.6714e-09
1.30985e-09
1.93866e-09
2.86983e-10
1.56729e-09
2.54913e-10
5.65126e-10
5.44795e-10
-5.52988e-10
2.17794e-10
-1.23807e-09
-5.88746e-10
-1.58367e-09
-1.42747e-09
-1.37978e-09
-1.6736e-09
-1.45398e-09
-1.478e-09
-1.7374e-09
-2.17642e-10
-2.21746e-09
9.21328e-10
-2.0507e-09
1.19762e-09
-1.17287e-09
6.36369e-10
3.90593e-10
2.17226e-10
1.57747e-09
1.32205e-09
1.73762e-09
2.72915e-09
8.12497e-10
4.54612e-10
1.39794e-09
8.29603e-10
3.31455e-09
1.18123e-09
3.13312e-09
1.50628e-09
1.62321e-09
1.52548e-09
4.35327e-10
1.0495e-09
5.13623e-10
2.15574e-11
8.75009e-10
-8.91397e-10
6.11332e-10
-1.31338e-09
-2.55685e-10
-1.32842e-09
-1.27688e-09
-1.15728e-09
-2.64994e-09
-1.32255e-09
-1.69055e-09
-1.45688e-09
-3.35449e-10
-1.66145e-09
9.38932e-10
-1.3994e-09
1.25937e-09
-9.28294e-10
6.42808e-10
6.63783e-11
2.02306e-10
9.92792e-10
1.32939e-09
1.84132e-09
2.79086e-09
1.30841e-09
3.56928e-10
1.65335e-09
8.79455e-10
3.55196e-09
1.23531e-09
3.32904e-09
1.29019e-09
1.76174e-09
1.07137e-09
6.00566e-10
4.13011e-10
7.30816e-10
-5.29844e-10
1.17221e-09
-1.13394e-09
9.85449e-10
-1.28701e-09
8.34744e-11
-1.24643e-09
-9.58692e-10
-1.06306e-09
-1.06151e-09
-1.0425e-09
-1.775e-09
-1.076e-09
-2.0837e-10
-1.12767e-09
9.98737e-10
-9.78727e-10
1.10853e-09
-5.47587e-10
3.90412e-10
2.20757e-10
1.09687e-12
1.01704e-09
1.25231e-09
6.98458e-10
2.46091e-09
1.46508e-09
2.66016e-10
1.71996e-09
8.72459e-10
3.44658e-09
1.21852e-09
3.21996e-09
1.1148e-09
1.78073e-09
6.97274e-10
7.45261e-10
-1.2651e-10
8.84908e-10
-9.97144e-10
1.40986e-09
-1.49156e-09
1.31941e-09
-1.28066e-09
7.14394e-10
-1.46554e-09
-8.86632e-10
-7.87647e-10
-8.86694e-10
-5.71333e-10
-1.35674e-09
-8.05552e-10
-5.52726e-10
-4.96057e-10
7.92983e-10
-2.23096e-10
9.20764e-10
-8.52378e-11
2.77909e-10
-1.25787e-10
3.08479e-11
1.68789e-10
1.33106e-09
6.86212e-10
2.52381e-09
9.85455e-10
2.07515e-10
1.52904e-09
8.25584e-10
2.92205e-09
1.20287e-09
2.77013e-09
9.91471e-10
1.62524e-09
2.94796e-10
7.52494e-10
-6.01452e-10
8.553e-10
-1.36004e-09
1.39244e-09
-1.42362e-09
1.44583e-09
-1.69838e-09
6.7373e-10
-5.714e-10
3.10878e-10
-1.05496e-09
-5.07163e-09
-5.45683e-10
-8.74427e-10
-2.28701e-10
-2.48328e-10
-3.17226e-11
5.3368e-10
2.48755e-10
6.40591e-10
4.0371e-10
1.24605e-10
1.86608e-11
1.68414e-10
-6.60398e-11
1.00539e-09
2.3706e-10
2.38787e-09
9.24823e-10
1.64745e-10
1.14933e-09
7.83847e-10
2.09953e-09
1.18298e-09
2.02453e-09
8.67868e-10
1.22784e-09
-4.56372e-11
6.31034e-10
-1.0074e-09
8.01986e-10
-1.64009e-09
1.22705e-09
-1.71071e-09
1.15246e-09
-1.28223e-09
8.17114e-10
-1.06832e-09
-3.5871e-10
2.55042e-09
2.81778e-08
-8.08067e-10
-1.40792e-09
-1.46109e-10
-4.69588e-10
6.40365e-10
2.65329e-10
9.1991e-10
4.71055e-10
8.15107e-10
-1.46764e-11
9.10287e-11
-1.93037e-10
-4.26232e-10
7.38485e-10
-1.44569e-10
1.73137e-09
7.076e-10
1.37051e-10
6.10891e-10
7.65252e-10
1.08572e-09
1.16711e-09
1.08622e-09
7.59193e-10
6.93754e-10
-2.01652e-10
4.10177e-10
-1.06854e-09
5.25974e-10
-1.71987e-09
8.36379e-10
-1.78643e-09
9.28317e-10
-1.64883e-09
4.25169e-10
-9.48882e-10
5.45563e-10
-4.02072e-09
-4.12493e-09
-2.40846e-10
-1.88442e-10
1.03329e-10
-2.16491e-10
9.61278e-10
4.23826e-11
1.42876e-09
3.07425e-10
1.15988e-09
-6.4484e-11
2.16981e-10
2.22861e-10
-5.0483e-10
5.17019e-10
-4.19416e-10
9.91845e-10
5.05161e-10
1.19401e-10
-1.31935e-11
7.61019e-10
-5.03829e-11
1.12738e-09
-6.43912e-12
6.89389e-10
4.63666e-11
-3.70638e-10
1.5721e-10
-1.28234e-09
2.35522e-10
-1.71163e-09
2.259e-10
-1.81702e-09
2.41802e-10
-1.19197e-09
2.84423e-10
-1.15856e-09
-1.7115e-10
-4.20167e-10
1.12562e-10
-3.5304e-10
-1.00504e-10
5.59745e-11
-2.70541e-10
1.0351e-09
-1.53796e-11
1.75043e-09
1.53865e-11
1.30901e-09
3.41932e-11
2.15236e-10
1.1863e-10
-5.04318e-10
1.17734e-10
-5.09208e-10
2.94006e-10
1.84703e-10
1.28762e-10
-6.50555e-10
7.56054e-10
-1.20312e-09
1.09855e-09
-1.13109e-09
6.77434e-10
-6.14659e-10
-3.38736e-10
-1.36512e-10
-1.31379e-09
-9.50429e-11
-1.68856e-09
-3.6602e-10
-1.65436e-09
-5.04162e-10
-1.47024e-09
-3.26904e-10
-9.08511e-10
-9.29211e-11
-2.1858e-10
-9.57901e-10
-4.75483e-10
-7.3532e-11
3.26868e-10
3.0703e-10
1.09524e-09
-1.19487e-10
1.72053e-09
-2.60018e-10
1.30972e-09
5.4086e-11
1.94808e-10
3.3137e-10
-5.31316e-10
-1.89265e-10
-4.44655e-10
-3.73253e-10
-6.45258e-11
1.46341e-10
-1.22311e-09
7.49788e-10
-2.25201e-09
1.07355e-09
-2.13498e-09
7.27045e-10
-1.1911e-09
-1.87352e-10
-4.19019e-10
-1.15986e-09
-4.18168e-10
-1.63293e-09
-8.04045e-10
-1.74138e-09
-9.14971e-10
-1.41344e-09
-6.86029e-10
-2.15144e-09
-2.84202e-10
7.31829e-10
4.90019e-08
-1.44029e-10
1.29206e-09
3.98394e-11
1.51595e-10
7.9595e-10
-4.4549e-10
1.37247e-09
-5.3289e-10
1.19914e-09
3.47964e-10
2.24236e-10
4.72751e-10
-4.06371e-10
-3.57189e-10
-3.01099e-10
-9.60657e-10
-3.45833e-10
1.54972e-10
-1.62462e-09
7.47466e-10
-3.05321e-09
1.08864e-09
-2.88138e-09
8.34396e-10
-1.57506e-09
1.55725e-11
-5.30918e-10
-1.03019e-09
-5.55363e-10
-1.60126e-09
-9.93608e-10
-1.74331e-09
-1.10339e-09
-1.48454e-09
-6.72647e-10
4.20276e-10
1.23121e-10
-2.35917e-09
-6.20699e-10
-8.85047e-10
6.04998e-10
-1.07095e-10
8.85714e-11
5.919e-10
-7.41999e-10
9.86128e-10
-7.12049e-10
7.91427e-10
-8.33003e-11
1.9663e-10
3.96954e-10
-1.82059e-10
-5.88429e-10
-8.65613e-11
-1.52328e-09
-6.03742e-10
1.80569e-10
-1.75949e-09
7.39686e-10
-3.48915e-09
1.12767e-09
-3.25787e-09
9.63693e-10
-1.69973e-09
2.83308e-10
-4.39062e-10
-5.95329e-10
-5.18298e-10
-1.29812e-09
-9.95328e-10
-1.6225e-09
-9.54749e-10
-1.3697e-09
-3.18434e-10
-8.73759e-10
4.57258e-10
-1.05228e-09
7.32527e-10
-6.06698e-10
1.00716e-09
-4.57095e-10
-2.47538e-12
-3.01943e-11
-9.23366e-10
3.19798e-10
-9.53954e-10
3.81207e-10
-1.99217e-10
1.14281e-10
3.12033e-10
2.5904e-11
-8.90187e-10
2.02889e-10
-1.98426e-09
-7.87019e-10
2.43742e-10
-1.66835e-09
7.45119e-10
-3.58593e-09
1.14622e-09
-3.30058e-09
1.1653e-09
-1.67516e-09
6.3164e-10
-3.95774e-10
-1.29328e-10
-3.8851e-10
-9.60729e-10
-8.59804e-10
-1.44529e-09
-6.66295e-10
-1.36473e-09
9.02526e-11
-1.45787e-09
1.07134e-09
-5.5925e-10
1.44345e-09
-6.77556e-10
1.493e-09
-6.91274e-10
1.77338e-10
-5.25384e-10
-1.03392e-09
-2.352e-10
-1.12532e-09
-8.82232e-11
-3.5041e-10
2.40481e-11
1.58837e-10
2.58482e-10
-1.11451e-09
6.18097e-10
-2.19285e-09
-8.47048e-10
3.12832e-10
-1.44303e-09
7.8481e-10
-3.29948e-09
1.12183e-09
-3.04256e-09
1.31405e-09
-1.44945e-09
1.08313e-09
-2.85369e-10
4.24367e-10
-2.31266e-10
-3.90422e-10
-6.06802e-10
-1.12242e-09
-4.48112e-10
-1.34787e-09
4.43477e-10
-1.2272e-09
1.37177e-09
-1.11074e-09
2.04212e-09
-9.4625e-10
1.59848e-09
-9.84211e-10
1.64871e-10
-1.09705e-09
-1.00939e-09
-1.052e-09
-1.14838e-09
-6.33999e-10
-5.75706e-10
4.55777e-11
-7.45469e-11
6.43333e-10
-1.14649e-09
1.13435e-09
-2.08754e-09
-8.08032e-10
4.23789e-10
-1.05872e-09
7.89774e-10
-2.69932e-09
1.13556e-09
-2.49241e-09
1.40828e-09
-1.16126e-09
1.5239e-09
-1.16584e-10
1.02454e-09
-9.29702e-11
1.35018e-10
-3.35648e-10
-7.14985e-10
-1.62715e-10
-1.26076e-09
5.43145e-10
-1.29166e-09
1.48357e-09
-1.15992e-09
1.8462e-09
-1.19225e-09
1.62767e-09
-1.43245e-09
3.43e-10
-1.7812e-09
-9.49151e-10
-1.74262e-09
-1.25425e-09
-1.02671e-09
-6.46774e-10
1.06812e-10
-1.28208e-10
1.08836e-09
-1.0335e-09
1.67352e-09
-1.82495e-09
-7.05152e-10
5.39431e-10
-4.6272e-10
7.52308e-10
-1.93365e-09
1.06126e-09
-1.80109e-09
1.56697e-09
-8.2776e-10
1.94936e-09
-5.90045e-11
1.61003e-09
-4.39845e-11
5.9984e-10
-1.79952e-10
-3.85484e-10
9.52818e-11
-1.10714e-09
5.95182e-10
-1.35385e-09
1.20068e-09
-1.52682e-09
1.59903e-09
-1.55274e-09
1.24767e-09
-1.85595e-09
1.52095e-10
-2.25672e-09
-8.1748e-10
-2.20566e-09
-9.70815e-10
-1.28648e-09
-4.72758e-10
2.34923e-10
-1.10709e-10
1.5043e-09
-8.05121e-10
2.11145e-09
-1.39443e-09
-5.40027e-10
7.00582e-10
-2.31931e-10
7.48844e-10
-9.8008e-10
1.02827e-09
-9.41701e-10
1.66372e-09
-4.39463e-10
2.19765e-09
1.49766e-11
2.01968e-09
2.59919e-11
1.05748e-09
-5.79008e-11
-1.15618e-10
8.21734e-11
-8.93826e-10
3.72914e-10
-1.49073e-09
7.53525e-10
-1.55619e-09
7.42469e-10
-1.78102e-09
7.01678e-10
-2.23392e-09
1.61679e-10
-2.70057e-09
-3.69407e-10
-2.56636e-09
-5.13957e-10
-1.43825e-09
-2.93558e-10
3.88396e-10
-9.7226e-11
1.86458e-09
-4.33154e-10
2.48133e-09
-7.32673e-10
-2.95349e-10
6.41343e-10
6.51412e-10
9.75015e-10
1.75444e-09
2.37562e-09
2.2976e-09
1.32731e-09
-1.74686e-12
-9.59664e-10
-1.37714e-09
-1.67935e-09
-1.95216e-09
-2.38597e-09
-2.82065e-09
-2.66473e-09
-1.52088e-09
4.04355e-10
2.03082e-09
2.72316e-09
)
;

boundaryField
{
    sides
    {
        type            calculated;
        value           uniform 0;
    }
    inlet
    {
        type            calculated;
        value           uniform 0;
    }
    outlet
    {
        type            calculated;
        value           nonuniform List<scalar> 
20
(
2.80453e-09
2.62262e-09
2.33393e-09
1.80356e-09
1.01228e-09
6.74425e-10
2.38351e-10
-8.00063e-11
-3.21347e-10
-2.86305e-10
-2.9336e-10
-2.32268e-10
-5.56288e-11
3.34785e-10
8.296e-10
1.36699e-09
1.88237e-09
2.31123e-09
2.68614e-09
2.92234e-09
)
;
    }
    frontAndBack
    {
        type            empty;
        value           nonuniform List<scalar> 0();
    }
}


// ************************************************************************* //
