/*--------------------------------*- C++ -*----------------------------------*\
  =========                 |
  \\      /  F ield         | OpenFOAM: The Open Source CFD Toolbox
   \\    /   O peration     | Website:  https://openfoam.org
    \\  /    A nd           | Version:  9
     \\/     M anipulation  |
\*---------------------------------------------------------------------------*/
FoamFile
{
    format      ascii;
    class       volScalarField;
    location    "22";
    object      h_0;
}
// * * * * * * * * * * * * * * * * * * * * * * * * * * * * * * * * * * * * * //

dimensions      [0 1 0 0 0 0 0];

internalField   nonuniform List<scalar> 
400
(
0.0100012
0.0100012
0.010001
0.0100006
0.0100001
0.00999941
0.0099988
0.00999835
0.00999807
0.00999797
0.00999805
0.00999825
0.00999862
0.00999915
0.00999975
0.0100003
0.0100007
0.0100008
0.0100006
0.0100002
0.0100011
0.010001
0.0100008
0.0100004
0.0099999
0.00999926
0.00999868
0.00999824
0.00999796
0.00999785
0.00999787
0.00999809
0.00999847
0.00999899
0.00999961
0.0100002
0.0100005
0.0100006
0.0100005
0.0100002
0.010001
0.0100009
0.0100007
0.0100003
0.00999978
0.00999918
0.00999863
0.00999821
0.00999794
0.00999781
0.00999782
0.00999798
0.00999833
0.00999887
0.00999953
0.0100001
0.0100006
0.0100007
0.0100005
0.0100002
0.0100009
0.0100008
0.0100006
0.0100002
0.00999964
0.00999907
0.00999854
0.00999812
0.0099978
0.00999758
0.00999751
0.00999766
0.00999808
0.00999875
0.00999951
0.0100001
0.0100004
0.0100004
0.0100003
0.0100001
0.0100008
0.0100007
0.0100004
0.01
0.00999954
0.00999899
0.00999846
0.00999801
0.00999759
0.00999719
0.00999695
0.00999708
0.00999766
0.00999864
0.00999968
0.0100004
0.0100007
0.0100005
0.0100003
0.0100001
0.0100007
0.0100006
0.0100003
0.00999996
0.00999951
0.00999899
0.00999844
0.00999786
0.00999723
0.00999662
0.00999625
0.00999629
0.00999711
0.00999852
0.00999985
0.0100006
0.0100006
0.0100003
0.01
0.00999994
0.0100006
0.0100005
0.0100003
0.00999998
0.00999962
0.00999918
0.00999865
0.00999786
0.00999662
0.00999514
0.00999409
0.00999462
0.00999683
0.00999961
0.0100014
0.0100016
0.0100008
0.01
0.00999974
0.00999987
0.0100006
0.0100005
0.0100003
0.0100001
0.00999991
0.00999962
0.0099992
0.0099984
0.00999683
0.00999405
0.00999062
0.00999034
0.00999469
0.0100004
0.0100034
0.0100031
0.0100011
0.0099997
0.0099994
0.0099998
0.0100006
0.0100005
0.0100004
0.0100004
0.0100005
0.0100006
0.0100001
0.00999851
0.00999488
0.00998947
0.00998667
0.00998995
0.00999831
0.0100039
0.0100046
0.0100024
0.0100001
0.00999913
0.0099993
0.00999983
0.0100005
0.0100004
0.0100004
0.0100007
0.0100013
0.0100026
0.0100046
0.0100068
0.0100042
0.00897816
0.00895242
0.00997603
0.0100091
0.0100181
0.0100106
0.0100023
0.00999865
0.00999866
0.00999961
0.0100001
0.0100004
0.0100004
0.0100003
0.0100006
0.0100012
0.0100025
0.0100045
0.0100067
0.0100042
0.00897812
0.0089524
0.00997599
0.0100091
0.010018
0.0100106
0.0100022
0.00999865
0.00999865
0.00999958
0.0100001
0.0100003
0.0100002
0.0100002
0.0100002
0.0100003
0.0100003
0.00999994
0.0099983
0.00999466
0.00998923
0.00998671
0.00998974
0.00999816
0.0100038
0.0100044
0.0100023
0.01
0.00999912
0.00999932
0.00999984
0.0100002
0.0100001
0.00999994
0.00999977
0.00999956
0.00999927
0.00999887
0.00999808
0.00999654
0.0099938
0.00999008
0.00999009
0.00999442
0.0100001
0.0100032
0.0100029
0.010001
0.00999965
0.00999939
0.00999979
0.0100001
0.00999998
0.00999977
0.00999948
0.00999913
0.0099987
0.00999817
0.00999738
0.00999617
0.00999468
0.00999367
0.0099942
0.00999645
0.0099993
0.0100012
0.0100014
0.0100006
0.00999988
0.00999963
0.00999983
0.01
0.0099999
0.00999967
0.00999932
0.00999887
0.00999836
0.00999781
0.00999725
0.00999664
0.00999608
0.00999574
0.00999583
0.00999669
0.00999813
0.00999951
0.0100003
0.0100004
0.0100001
0.00999991
0.00999992
0.00999992
0.00999985
0.00999962
0.00999924
0.00999874
0.00999821
0.0099977
0.00999725
0.00999686
0.00999651
0.00999631
0.00999647
0.00999709
0.00999811
0.0099992
0.00999999
0.0100003
0.0100003
0.0100001
0.01
0.00999987
0.00999982
0.00999959
0.0099992
0.0099987
0.00999814
0.00999763
0.00999723
0.00999693
0.00999676
0.00999675
0.00999695
0.00999742
0.00999814
0.00999897
0.00999968
0.0100001
0.0100002
0.0100002
0.01
0.00999983
0.00999978
0.00999958
0.00999919
0.00999868
0.0099981
0.00999757
0.00999717
0.00999692
0.0099968
0.00999684
0.00999707
0.0099975
0.00999812
0.00999885
0.00999953
0.01
0.0100002
0.0100002
0.0100001
0.00999979
0.00999974
0.00999956
0.00999919
0.00999867
0.00999808
0.00999754
0.00999713
0.00999689
0.0099968
0.00999688
0.00999713
0.00999755
0.00999815
0.00999886
0.00999954
0.01
0.0100003
0.0100002
0.0100001
0.0099997
0.00999966
0.00999949
0.00999911
0.00999858
0.00999798
0.00999741
0.00999698
0.00999674
0.00999668
0.00999676
0.00999703
0.00999746
0.00999806
0.00999876
0.00999942
0.00999993
0.0100002
0.0100002
0.0100001
)
;

boundaryField
{
    sides
    {
        type            zeroGradient;
    }
    inlet
    {
        type            zeroGradient;
    }
    outlet
    {
        type            fixedValue;
        value           uniform 0.01;
    }
    frontAndBack
    {
        type            empty;
    }
}


// ************************************************************************* //
