/*--------------------------------*- C++ -*----------------------------------*\
  =========                 |
  \\      /  F ield         | OpenFOAM: The Open Source CFD Toolbox
   \\    /   O peration     | Website:  https://openfoam.org
    \\  /    A nd           | Version:  9
     \\/     M anipulation  |
\*---------------------------------------------------------------------------*/
FoamFile
{
    format      ascii;
    class       volScalarField;
    location    "22";
    object      hTotal;
}
// * * * * * * * * * * * * * * * * * * * * * * * * * * * * * * * * * * * * * //

dimensions      [0 1 0 0 0 0 0];

internalField   nonuniform List<scalar> 
400
(
0.0100013
0.0100012
0.0100009
0.0100005
0.00999987
0.00999923
0.00999867
0.00999827
0.00999805
0.00999797
0.00999804
0.00999827
0.00999866
0.0099992
0.00999981
0.0100003
0.0100007
0.0100007
0.0100005
0.0100002
0.0100011
0.010001
0.0100008
0.0100003
0.00999972
0.0099991
0.00999856
0.00999818
0.00999795
0.00999784
0.00999786
0.00999808
0.00999848
0.00999902
0.00999965
0.0100002
0.0100005
0.0100006
0.0100004
0.0100001
0.010001
0.0100009
0.0100006
0.0100002
0.00999962
0.00999904
0.00999854
0.00999818
0.00999794
0.0099978
0.0099978
0.00999795
0.00999831
0.00999887
0.00999955
0.0100002
0.0100005
0.0100006
0.0100004
0.0100001
0.0100009
0.0100008
0.0100005
0.01
0.00999951
0.00999896
0.00999848
0.00999812
0.00999782
0.00999757
0.00999749
0.0099976
0.00999803
0.00999872
0.0099995
0.0100001
0.0100004
0.0100004
0.0100003
0.0100001
0.0100008
0.0100006
0.0100003
0.00999992
0.00999943
0.00999891
0.00999845
0.00999804
0.00999763
0.0099972
0.00999692
0.00999702
0.00999759
0.00999859
0.00999965
0.0100004
0.0100006
0.0100005
0.0100002
0.01
0.0100007
0.0100005
0.0100002
0.00999985
0.00999942
0.00999895
0.00999847
0.00999794
0.00999729
0.00999668
0.00999622
0.00999626
0.00999706
0.00999846
0.0099998
0.0100005
0.0100006
0.0100003
0.01
0.00999995
0.0100006
0.0100004
0.0100002
0.00999987
0.00999954
0.00999917
0.00999872
0.00999797
0.00999674
0.00999521
0.00999418
0.0099946
0.0099968
0.00999957
0.0100014
0.0100015
0.0100008
0.0100001
0.00999977
0.00999989
0.0100005
0.0100004
0.0100002
0.01
0.00999984
0.00999963
0.00999929
0.00999855
0.00999698
0.00999417
0.00999069
0.00999043
0.0099947
0.0100004
0.0100034
0.010003
0.0100011
0.00999974
0.00999946
0.00999983
0.0100004
0.0100003
0.0100003
0.0100003
0.0100005
0.0100006
0.0100003
0.00999868
0.00999506
0.00998963
0.00998679
0.00998998
0.00999835
0.0100039
0.0100045
0.0100023
0.0100001
0.0099992
0.00999938
0.00999986
0.0100004
0.0100003
0.0100003
0.0100005
0.0100012
0.0100026
0.0100047
0.010007
0.0100044
0.00997834
0.00995252
0.00997615
0.0100092
0.0100181
0.0100106
0.0100022
0.00999867
0.00999873
0.00999969
0.0100001
0.0100003
0.0100002
0.0100002
0.0100005
0.0100011
0.0100026
0.0100046
0.0100069
0.0100044
0.0099783
0.00995257
0.00997611
0.0100091
0.0100181
0.0100105
0.0100022
0.00999867
0.00999872
0.00999967
0.0100001
0.0100002
0.0100001
0.01
0.0100001
0.0100002
0.0100004
0.01
0.00999846
0.00999484
0.00998943
0.0099866
0.00998984
0.00999822
0.0100038
0.0100044
0.0100022
0.0100001
0.00999919
0.0099994
0.00999988
0.0100001
0.01
0.00999982
0.00999966
0.00999949
0.00999928
0.00999896
0.00999822
0.00999669
0.00999389
0.00999041
0.00999012
0.00999442
0.0100001
0.0100032
0.0100029
0.010001
0.0099997
0.00999945
0.00999982
0.0100001
0.00999991
0.00999967
0.00999937
0.00999904
0.00999868
0.00999823
0.00999749
0.00999628
0.00999476
0.00999369
0.00999419
0.00999642
0.00999926
0.0100011
0.0100014
0.0100006
0.00999992
0.00999967
0.00999985
0.00999999
0.00999985
0.00999958
0.00999921
0.00999877
0.00999831
0.00999784
0.00999733
0.00999673
0.00999613
0.00999573
0.00999579
0.00999664
0.00999808
0.00999947
0.0100003
0.0100004
0.0100001
0.00999991
0.00999992
0.00999994
0.00999982
0.00999954
0.00999912
0.00999864
0.00999814
0.00999769
0.00999729
0.00999691
0.00999654
0.00999628
0.00999642
0.00999704
0.00999807
0.00999918
0.00999997
0.0100003
0.0100002
0.0100001
0.01
0.00999991
0.0099998
0.00999953
0.0099991
0.00999858
0.00999805
0.00999759
0.00999723
0.00999696
0.00999677
0.00999674
0.00999691
0.00999738
0.00999812
0.00999896
0.00999967
0.0100001
0.0100002
0.0100001
0.01
0.00999986
0.00999977
0.00999952
0.00999908
0.00999854
0.00999798
0.0099975
0.00999715
0.00999692
0.00999681
0.00999682
0.00999705
0.00999749
0.00999812
0.00999886
0.00999954
0.00999998
0.0100002
0.0100001
0.01
0.00999983
0.00999974
0.00999951
0.00999907
0.00999852
0.00999794
0.00999744
0.00999709
0.00999688
0.00999681
0.00999689
0.00999713
0.00999757
0.00999819
0.0099989
0.00999955
0.01
0.0100002
0.0100002
0.0100001
0.00999973
0.00999965
0.00999943
0.00999899
0.00999843
0.00999783
0.0099973
0.00999693
0.00999674
0.00999668
0.00999677
0.00999704
0.0099975
0.00999812
0.00999882
0.00999946
0.0099999
0.0100001
0.0100001
0.01
)
;

boundaryField
{
    sides
    {
        type            calculated;
        value           nonuniform List<scalar> 
40
(
0.00999973
0.00999965
0.00999943
0.00999899
0.00999843
0.00999783
0.0099973
0.00999693
0.00999674
0.00999668
0.00999677
0.00999704
0.0099975
0.00999812
0.00999882
0.00999946
0.0099999
0.0100001
0.0100001
0.01
0.0100013
0.0100012
0.0100009
0.0100005
0.00999987
0.00999923
0.00999867
0.00999827
0.00999805
0.00999797
0.00999804
0.00999827
0.00999866
0.0099992
0.00999981
0.0100003
0.0100007
0.0100007
0.0100005
0.0100002
)
;
    }
    inlet
    {
        type            calculated;
        value           nonuniform List<scalar> 
20
(
0.0100013
0.0100011
0.010001
0.0100009
0.0100008
0.0100007
0.0100006
0.0100005
0.0100004
0.0100004
0.0100003
0.0100002
0.0100001
0.0100001
0.00999999
0.00999994
0.00999991
0.00999986
0.00999983
0.00999973
)
;
    }
    outlet
    {
        type            calculated;
        value           uniform 0.01;
    }
    frontAndBack
    {
        type            empty;
    }
}


// ************************************************************************* //
