/*--------------------------------*- C++ -*----------------------------------*\
  =========                 |
  \\      /  F ield         | OpenFOAM: The Open Source CFD Toolbox
   \\    /   O peration     | Website:  https://openfoam.org
    \\  /    A nd           | Version:  9
     \\/     M anipulation  |
\*---------------------------------------------------------------------------*/
FoamFile
{
    format      ascii;
    class       volVectorField;
    location    "22";
    object      hU_0;
}
// * * * * * * * * * * * * * * * * * * * * * * * * * * * * * * * * * * * * * //

dimensions      [0 2 -1 0 0 0 0];

internalField   nonuniform List<vector> 
400
(
(0.00100004 -4.26652e-09 0)
(0.000999967 -7.09717e-08 0)
(0.00100006 -1.398e-07 0)
(0.00100029 -1.73905e-07 0)
(0.00100052 -1.75959e-07 0)
(0.00100075 -1.76644e-07 0)
(0.00100096 -1.93648e-07 0)
(0.00100116 -2.1743e-07 0)
(0.00100136 -2.28148e-07 0)
(0.00100155 -2.12929e-07 0)
(0.00100165 -1.66398e-07 0)
(0.00100163 -1.24002e-07 0)
(0.00100148 -9.241e-08 0)
(0.00100127 -9.88145e-08 0)
(0.00100104 -1.21889e-07 0)
(0.00100085 -1.55934e-07 0)
(0.00100066 -1.56305e-07 0)
(0.00100052 -1.82702e-07 0)
(0.00100041 -1.71829e-07 0)
(0.00100053 -2.69629e-07 0)
(0.00100003 2.35869e-08 0)
(0.000999978 -7.11425e-08 0)
(0.00100009 -1.86953e-07 0)
(0.00100031 -2.30258e-07 0)
(0.00100055 -1.92394e-07 0)
(0.00100079 -1.44931e-07 0)
(0.00100102 -1.39503e-07 0)
(0.00100124 -1.53265e-07 0)
(0.00100148 -1.35666e-07 0)
(0.00100169 -5.54525e-08 0)
(0.00100179 9.87312e-08 0)
(0.00100176 2.86385e-07 0)
(0.00100161 4.28486e-07 0)
(0.00100136 4.6234e-07 0)
(0.0010011 4.38397e-07 0)
(0.00100086 3.85705e-07 0)
(0.00100069 3.8463e-07 0)
(0.00100055 3.39975e-07 0)
(0.00100049 2.144e-07 0)
(0.00100048 2.82858e-08 0)
(0.00100003 1.73012e-08 0)
(0.000999996 -1.46047e-07 0)
(0.00100011 -3.50376e-07 0)
(0.00100032 -4.55473e-07 0)
(0.00100056 -4.4182e-07 0)
(0.00100083 -4.14145e-07 0)
(0.00100109 -4.46672e-07 0)
(0.00100135 -5.0064e-07 0)
(0.00100162 -4.91654e-07 0)
(0.00100185 -3.58784e-07 0)
(0.00100198 -9.07944e-08 0)
(0.00100196 2.40745e-07 0)
(0.00100177 4.78771e-07 0)
(0.00100147 5.1157e-07 0)
(0.00100112 4.05575e-07 0)
(0.00100081 2.6008e-07 0)
(0.00100058 2.1481e-07 0)
(0.00100042 1.66702e-07 0)
(0.00100035 3.45798e-08 0)
(0.00100048 -1.71069e-07 0)
(0.00100002 7.21206e-09 0)
(0.00100002 -2.15954e-07 0)
(0.00100014 -4.86639e-07 0)
(0.00100035 -6.35651e-07 0)
(0.00100059 -6.41184e-07 0)
(0.00100089 -6.33325e-07 0)
(0.0010012 -6.93284e-07 0)
(0.00100154 -7.63806e-07 0)
(0.0010019 -7.19127e-07 0)
(0.00100222 -4.77562e-07 0)
(0.00100241 1.75655e-08 0)
(0.00100237 6.01228e-07 0)
(0.0010021 1.04673e-06 0)
(0.00100163 1.14531e-06 0)
(0.00100114 9.46544e-07 0)
(0.00100075 6.30583e-07 0)
(0.00100058 4.4404e-07 0)
(0.00100053 3.25025e-07 0)
(0.00100058 1.37716e-07 0)
(0.00100052 -9.2474e-08 0)
(0.00100001 -1.21497e-08 0)
(0.00100004 -2.80759e-07 0)
(0.00100016 -6.04734e-07 0)
(0.00100035 -8.16122e-07 0)
(0.0010006 -8.86022e-07 0)
(0.00100093 -9.52288e-07 0)
(0.00100132 -1.0892e-06 0)
(0.00100176 -1.2082e-06 0)
(0.00100226 -1.13525e-06 0)
(0.00100275 -7.7085e-07 0)
(0.00100307 -1.21488e-07 0)
(0.00100303 7.16156e-07 0)
(0.00100259 1.37597e-06 0)
(0.00100182 1.54209e-06 0)
(0.00100102 1.28077e-06 0)
(0.00100047 8.58655e-07 0)
(0.0010003 6.15004e-07 0)
(0.00100036 4.99605e-07 0)
(0.00100048 2.98557e-07 0)
(0.00100058 7.49688e-08 0)
(0.000999994 -3.59653e-08 0)
(0.00100006 -3.32425e-07 0)
(0.00100017 -6.95369e-07 0)
(0.00100031 -9.69837e-07 0)
(0.00100054 -1.13966e-06 0)
(0.00100091 -1.33964e-06 0)
(0.00100139 -1.65138e-06 0)
(0.00100201 -1.92749e-06 0)
(0.00100274 -1.87358e-06 0)
(0.00100343 -1.18686e-06 0)
(0.00100391 1.53078e-07 0)
(0.00100391 1.71327e-06 0)
(0.00100324 2.61604e-06 0)
(0.00100207 2.36262e-06 0)
(0.00100097 1.35753e-06 0)
(0.00100033 4.06728e-07 0)
(0.0010003 5.5031e-08 0)
(0.00100052 9.48825e-08 0)
(0.00100081 1.12928e-07 0)
(0.00100069 -3.27922e-08 0)
(0.000999984 -5.19775e-08 0)
(0.00100006 -3.54415e-07 0)
(0.00100015 -7.24192e-07 0)
(0.00100021 -1.07505e-06 0)
(0.00100038 -1.36333e-06 0)
(0.00100072 -1.78174e-06 0)
(0.00100126 -2.30741e-06 0)
(0.00100212 -2.97042e-06 0)
(0.00100341 -3.18955e-06 0)
(0.0010049 -2.85698e-06 0)
(0.00100586 -5.93616e-07 0)
(0.00100546 2.7061e-06 0)
(0.0010036 5.00113e-06 0)
(0.00100125 4.80776e-06 0)
(0.000999741 2.97294e-06 0)
(0.000999495 1.19293e-06 0)
(0.00100012 4.79864e-07 0)
(0.00100069 5.10411e-07 0)
(0.00100106 6.03847e-07 0)
(0.00100077 4.32175e-07 0)
(0.000999972 -5.84934e-08 0)
(0.00100005 -3.07853e-07 0)
(0.00100006 -6.69478e-07 0)
(0.00100003 -1.04134e-06 0)
(0.00100006 -1.55143e-06 0)
(0.00100034 -2.21328e-06 0)
(0.00100078 -3.2608e-06 0)
(0.00100179 -4.04194e-06 0)
(0.0010033 -4.3456e-06 0)
(0.00100617 -2.53426e-06 0)
(0.0010092 8.09018e-07 0)
(0.00100922 4.40231e-06 0)
(0.00100562 4.87207e-06 0)
(0.00100087 2.86192e-06 0)
(0.00099827 7.2257e-07 0)
(0.000998383 -3.0369e-07 0)
(0.000999897 -2.26738e-07 0)
(0.001001 1.44822e-07 0)
(0.00100148 2.54598e-07 0)
(0.00100096 3.15031e-08 0)
(0.000999966 -2.93387e-08 0)
(0.00100002 -2.13189e-07 0)
(0.000999932 -4.35997e-07 0)
(0.000999692 -7.76672e-07 0)
(0.000999475 -1.31163e-06 0)
(0.000999465 -2.39075e-06 0)
(0.000999989 -4.59537e-06 0)
(0.00100166 -8.02133e-06 0)
(0.00100513 -1.32718e-05 0)
(0.00100973 -1.49033e-05 0)
(0.00101197 3.88049e-06 0)
(0.00100901 1.88359e-05 0)
(0.0010023 1.59076e-05 0)
(0.000997685 5.82401e-06 0)
(0.000997001 -3.01151e-07 0)
(0.000998558 -1.26198e-06 0)
(0.00100035 -4.03496e-08 0)
(0.00100111 7.43688e-07 0)
(0.00100121 6.61565e-07 0)
(0.00100064 1.67985e-07 0)
(0.000999771 -1.12317e-08 0)
(0.00100028 -5.88746e-08 0)
(0.000999403 -1.48594e-07 0)
(0.00100007 -2.38287e-07 0)
(0.00099771 -5.60888e-07 0)
(0.000999099 -1.08612e-06 0)
(0.000993643 -2.84903e-06 0)
(0.000997811 -5.58758e-06 0)
(0.000991881 -1.15438e-05 0)
(0.000915963 -1.27e-05 0)
(0.000951557 2.83922e-07 0)
(0.00101028 1.46675e-05 0)
(0.000991027 1.31482e-05 0)
(0.000984079 5.20618e-06 0)
(0.00098969 2.25819e-07 0)
(0.000996366 -7.50833e-07 0)
(0.000999309 -6.73894e-08 0)
(0.000999525 3.09613e-07 0)
(0.000998795 1.70463e-07 0)
(0.00099859 -2.38088e-07 0)
(0.000999772 1.25861e-08 0)
(0.00100028 7.60934e-08 0)
(0.000999401 1.79167e-07 0)
(0.00100007 2.64907e-07 0)
(0.000997708 5.65475e-07 0)
(0.000999093 1.04906e-06 0)
(0.000993633 2.76242e-06 0)
(0.000997798 5.44481e-06 0)
(0.000991865 1.13652e-05 0)
(0.000915945 1.25171e-05 0)
(0.000951523 -4.8167e-07 0)
(0.00101026 -1.49118e-05 0)
(0.000991024 -1.34191e-05 0)
(0.000984065 -5.51885e-06 0)
(0.000989666 -5.85979e-07 0)
(0.000996326 3.16065e-07 0)
(0.000999264 -4.51769e-07 0)
(0.000999476 -1.00977e-06 0)
(0.000998777 -1.00093e-06 0)
(0.00099854 -9.22077e-07 0)
(0.000999965 3.24587e-08 0)
(0.00100001 2.31188e-07 0)
(0.000999926 4.6527e-07 0)
(0.00099969 8.01811e-07 0)
(0.000999474 1.31613e-06 0)
(0.000999469 2.35497e-06 0)
(0.000999992 4.50959e-06 0)
(0.00100166 7.87795e-06 0)
(0.00100512 1.30817e-05 0)
(0.00100974 1.46688e-05 0)
(0.001012 -4.13398e-06 0)
(0.00100895 -1.91037e-05 0)
(0.00100222 -1.61796e-05 0)
(0.000997595 -6.13258e-06 0)
(0.00099692 -1.79203e-08 0)
(0.000998485 8.71917e-07 0)
(0.00100025 -4.10943e-07 0)
(0.00100096 -1.36005e-06 0)
(0.00100102 -1.40958e-06 0)
(0.00100046 -1.26416e-06 0)
(0.000999972 6.34357e-08 0)
(0.00100004 3.26728e-07 0)
(0.00100005 6.97121e-07 0)
(0.00100002 1.06583e-06 0)
(0.00100006 1.55428e-06 0)
(0.00100033 2.17406e-06 0)
(0.00100076 3.16276e-06 0)
(0.00100175 3.88746e-06 0)
(0.00100325 4.14427e-06 0)
(0.00100608 2.30854e-06 0)
(0.00100908 -1.07269e-06 0)
(0.00100914 -4.68119e-06 0)
(0.00100554 -5.13981e-06 0)
(0.00100078 -3.15065e-06 0)
(0.000998169 -1.04887e-06 0)
(0.000998242 -1.24378e-07 0)
(0.000999721 -3.10478e-07 0)
(0.00100075 -8.45888e-07 0)
(0.0010012 -1.01842e-06 0)
(0.00100065 -1.07282e-06 0)
(0.000999984 5.78657e-08 0)
(0.00100005 3.73124e-07 0)
(0.00100013 7.50761e-07 0)
(0.0010002 1.09871e-06 0)
(0.00100037 1.36838e-06 0)
(0.00100071 1.74869e-06 0)
(0.00100124 2.22832e-06 0)
(0.0010021 2.84792e-06 0)
(0.00100338 3.04329e-06 0)
(0.00100484 2.68564e-06 0)
(0.00100579 4.43409e-07 0)
(0.00100537 -2.87942e-06 0)
(0.00100349 -5.21227e-06 0)
(0.00100109 -5.08437e-06 0)
(0.00099954 -3.32421e-06 0)
(0.000999244 -1.64497e-06 0)
(0.000999856 -1.02176e-06 0)
(0.00100038 -1.20212e-06 0)
(0.00100076 -1.36846e-06 0)
(0.00100035 -1.49812e-06 0)
(0.000999995 4.22459e-08 0)
(0.00100005 3.50378e-07 0)
(0.00100016 7.1986e-07 0)
(0.0010003 9.92607e-07 0)
(0.00100053 1.14871e-06 0)
(0.00100089 1.31665e-06 0)
(0.00100137 1.58511e-06 0)
(0.00100197 1.81202e-06 0)
(0.00100268 1.71628e-06 0)
(0.00100334 9.98949e-07 0)
(0.00100379 -3.6328e-07 0)
(0.00100374 -1.9409e-06 0)
(0.00100304 -2.84845e-06 0)
(0.00100185 -2.62782e-06 0)
(0.00100072 -1.64429e-06 0)
(0.00100003 -7.44107e-07 0)
(0.000999989 -4.28657e-07 0)
(0.00100012 -5.99517e-07 0)
(0.00100037 -6.79629e-07 0)
(0.00100013 -8.22037e-07 0)
(0.00100001 1.81337e-08 0)
(0.00100003 2.96538e-07 0)
(0.00100015 6.27708e-07 0)
(0.00100034 8.39757e-07 0)
(0.00100059 8.95461e-07 0)
(0.00100091 9.33383e-07 0)
(0.00100129 1.03326e-06 0)
(0.00100171 1.11349e-06 0)
(0.00100219 1.01089e-06 0)
(0.00100264 6.2737e-07 0)
(0.00100293 -4.41045e-08 0)
(0.00100289 -8.99762e-07 0)
(0.00100242 -1.56851e-06 0)
(0.0010016 -1.7699e-06 0)
(0.00100076 -1.53543e-06 0)
(0.00100016 -1.19286e-06 0)
(0.000999962 -1.02988e-06 0)
(0.000999921 -1.09293e-06 0)
(0.00100004 -1.00669e-06 0)
(0.000999913 -1.07756e-06 0)
(0.00100002 -1.79168e-09 0)
(0.00100001 2.27014e-07 0)
(0.00100013 5.01583e-07 0)
(0.00100033 6.55896e-07 0)
(0.00100058 6.56462e-07 0)
(0.00100087 6.27379e-07 0)
(0.00100117 6.59843e-07 0)
(0.00100148 7.02215e-07 0)
(0.00100181 6.41084e-07 0)
(0.0010021 3.92249e-07 0)
(0.00100224 -8.37e-08 0)
(0.00100215 -6.72445e-07 0)
(0.00100183 -1.12297e-06 0)
(0.00100133 -1.2499e-06 0)
(0.0010008 -1.08008e-06 0)
(0.00100033 -8.34715e-07 0)
(0.0010001 -6.96137e-07 0)
(0.000999908 -6.95209e-07 0)
(0.000999914 -5.37027e-07 0)
(0.00099972 -5.6226e-07 0)
(0.00100003 -1.27735e-08 0)
(0.000999982 1.58787e-07 0)
(0.0010001 3.63218e-07 0)
(0.00100032 4.5782e-07 0)
(0.00100056 4.24378e-07 0)
(0.00100081 3.65933e-07 0)
(0.00100106 3.61061e-07 0)
(0.0010013 3.72217e-07 0)
(0.00100155 3.21572e-07 0)
(0.00100175 1.47843e-07 0)
(0.00100185 -1.47338e-07 0)
(0.00100178 -4.94377e-07 0)
(0.00100155 -7.40358e-07 0)
(0.00100117 -8.05978e-07 0)
(0.00100078 -7.26505e-07 0)
(0.0010004 -6.4384e-07 0)
(0.00100015 -6.27626e-07 0)
(0.000999869 -7.00548e-07 0)
(0.000999794 -6.01369e-07 0)
(0.000999562 -6.56667e-07 0)
(0.00100004 -8.61726e-09 0)
(0.000999968 1.03309e-07 0)
(0.00100007 2.41937e-07 0)
(0.00100029 3.12209e-07 0)
(0.00100052 2.99597e-07 0)
(0.00100075 2.71687e-07 0)
(0.00100096 2.78607e-07 0)
(0.00100115 3.0341e-07 0)
(0.00100134 2.96906e-07 0)
(0.0010015 2.21812e-07 0)
(0.00100157 7.80667e-08 0)
(0.0010015 -1.06943e-07 0)
(0.0010013 -2.39022e-07 0)
(0.001001 -2.71596e-07 0)
(0.00100069 -2.27783e-07 0)
(0.00100036 -1.92737e-07 0)
(0.00100012 -1.91664e-07 0)
(0.000999801 -2.35663e-07 0)
(0.000999683 -1.43502e-07 0)
(0.000999433 -1.79878e-07 0)
(0.00100004 -1.90119e-08 0)
(0.000999961 -1.50102e-08 0)
(0.00100006 3.16272e-09 0)
(0.00100029 5.84509e-09 0)
(0.00100052 -1.6172e-08 0)
(0.00100074 -4.5438e-08 0)
(0.00100093 -6.27185e-08 0)
(0.00100111 -7.21898e-08 0)
(0.00100129 -8.69098e-08 0)
(0.00100143 -1.18099e-07 0)
(0.00100149 -1.75801e-07 0)
(0.00100141 -2.50056e-07 0)
(0.00100123 -3.00465e-07 0)
(0.00100095 -3.2457e-07 0)
(0.00100068 -3.22373e-07 0)
(0.00100037 -3.31473e-07 0)
(0.00100016 -3.3629e-07 0)
(0.000999799 -3.75089e-07 0)
(0.000999689 -3.33564e-07 0)
(0.000999317 -4.00111e-07 0)
)
;

boundaryField
{
    sides
    {
        type            slip;
    }
    inlet
    {
        type            fixedValue;
        value           uniform (0.001 0 0);
    }
    outlet
    {
        type            zeroGradient;
    }
    frontAndBack
    {
        type            empty;
    }
}


// ************************************************************************* //
