/*--------------------------------*- C++ -*----------------------------------*\
  =========                 |
  \\      /  F ield         | OpenFOAM: The Open Source CFD Toolbox
   \\    /   O peration     | Website:  https://openfoam.org
    \\  /    A nd           | Version:  9
     \\/     M anipulation  |
\*---------------------------------------------------------------------------*/
FoamFile
{
    format      ascii;
    class       volVectorField;
    location    "47";
    object      ddt0(hU);
}
// * * * * * * * * * * * * * * * * * * * * * * * * * * * * * * * * * * * * * //

dimensions      [0 2 -2 0 0 0 0];

internalField   nonuniform List<vector> 
400
(
(5.60496e-09 2.94876e-09 0)
(-2.77106e-09 1.50669e-09 0)
(-1.46628e-08 -4.80416e-09 0)
(-6.02516e-09 -6.19472e-09 0)
(5.29184e-09 5.9472e-10 0)
(2.98591e-09 6.55939e-09 0)
(-5.25784e-09 6.04773e-09 0)
(-1.11484e-08 1.4885e-09 0)
(-5.07021e-09 -1.67124e-09 0)
(1.52214e-09 -7.15063e-11 0)
(2.96661e-09 7.06141e-09 0)
(-1.58264e-09 3.94323e-09 0)
(-8.75072e-09 2.12506e-09 0)
(-1.10791e-09 -2.34004e-09 0)
(9.1631e-09 -4.1853e-09 0)
(1.74312e-08 -1.38058e-09 0)
(1.92166e-08 5.03217e-10 0)
(6.52034e-09 -1.46529e-09 0)
(-4.09939e-09 -4.13748e-09 0)
(-8.19213e-11 -2.53678e-09 0)
(3.92029e-09 5.64953e-09 0)
(-4.72412e-09 3.00769e-09 0)
(-1.43408e-08 -9.51289e-09 0)
(-4.52861e-09 -1.21115e-08 0)
(4.83976e-09 1.78331e-09 0)
(2.00507e-09 1.39534e-08 0)
(-6.50767e-09 1.56916e-08 0)
(-8.69187e-09 3.6985e-09 0)
(-6.16712e-09 -2.4082e-09 0)
(4.54543e-09 -1.01437e-09 0)
(1.2981e-09 9.49257e-09 0)
(-4.92461e-09 1.32577e-08 0)
(-5.704e-09 5.66952e-09 0)
(-3.30963e-09 -4.40761e-09 0)
(7.79754e-09 -9.39574e-09 0)
(1.37585e-08 -4.55513e-09 0)
(1.28164e-08 6.19034e-09 0)
(7.69422e-09 6.89389e-09 0)
(5.62575e-09 -8.93779e-09 0)
(9.4071e-09 -8.33157e-09 0)
(2.24509e-09 5.4851e-09 0)
(-5.43336e-09 4.42903e-09 0)
(-1.1365e-08 -9.36169e-09 0)
(-2.78329e-09 -1.46189e-08 0)
(2.63804e-09 -2.31486e-09 0)
(-4.90078e-10 1.60839e-08 0)
(-6.85784e-09 2.03357e-08 0)
(-6.72612e-09 5.21704e-09 0)
(-5.40762e-09 -6.68991e-09 0)
(-3.80311e-09 1.86263e-09 0)
(1.98283e-09 1.02863e-08 0)
(-5.26552e-09 2.49066e-08 0)
(-5.60742e-09 1.31456e-08 0)
(-3.3508e-09 -4.42205e-09 0)
(4.05645e-09 -1.01419e-08 0)
(1.2617e-08 -4.74406e-09 0)
(1.27265e-08 1.11235e-08 0)
(4.93579e-09 1.56063e-08 0)
(4.77846e-09 -3.22812e-09 0)
(1.20029e-08 -8.25181e-09 0)
(1.49356e-09 6.02076e-09 0)
(-4.98621e-09 7.44297e-09 0)
(-8.51929e-09 -8.41532e-09 0)
(-2.59054e-09 -2.05916e-08 0)
(7.41226e-10 -9.59206e-09 0)
(-3.67191e-09 1.68282e-08 0)
(-5.36755e-09 2.24501e-08 0)
(-8.6735e-09 5.65601e-09 0)
(-1.71972e-09 -9.09107e-09 0)
(-6.21769e-09 -2.40216e-09 0)
(-6.93091e-09 2.98684e-08 0)
(1.62892e-09 2.55074e-08 0)
(-1.06143e-08 1.95829e-08 0)
(-3.65061e-09 -2.98665e-09 0)
(3.14781e-09 -1.38997e-08 0)
(5.44498e-09 -5.50169e-09 0)
(6.51131e-09 1.68835e-08 0)
(8.93414e-09 2.27719e-08 0)
(1.15702e-08 -2.43727e-09 0)
(1.28068e-08 -9.52441e-09 0)
(8.31255e-10 7.20789e-09 0)
(-3.31297e-09 9.68701e-09 0)
(-6.48034e-09 -9.00957e-09 0)
(-3.46692e-09 -2.57025e-08 0)
(-3.06775e-09 -1.24553e-08 0)
(-3.69814e-09 1.70393e-08 0)
(-5.67556e-09 2.45538e-08 0)
(-1.41129e-09 3.28775e-09 0)
(-1.27023e-08 -6.45483e-09 0)
(9.39351e-09 -1.36639e-08 0)
(-1.58291e-08 2.47351e-08 0)
(-1.51949e-08 3.55294e-08 0)
(5.60703e-09 1.04969e-08 0)
(-9.74617e-09 -4.14193e-09 0)
(-2.90199e-09 -1.43095e-08 0)
(6.08732e-09 -7.79082e-09 0)
(6.82488e-09 1.83064e-08 0)
(1.98513e-09 2.73932e-08 0)
(3.22883e-09 -1.67017e-09 0)
(1.02596e-08 -9.93884e-09 0)
(-1.81373e-10 7.58615e-09 0)
(-3.05294e-09 9.25158e-09 0)
(-5.02439e-09 -1.1217e-08 0)
(-4.68899e-09 -2.71693e-08 0)
(-4.27964e-09 -1.13746e-08 0)
(-5.15754e-09 1.83126e-08 0)
(-2.99553e-09 2.35919e-08 0)
(-3.13993e-09 5.85089e-09 0)
(-3.79524e-09 -2.61482e-08 0)
(-2.24025e-08 9.28737e-09 0)
(1.89552e-08 -4.28182e-08 0)
(-3.23485e-08 3.92231e-08 0)
(-1.04058e-08 1.24681e-08 0)
(8.69574e-09 -1.98283e-08 0)
(-6.22989e-09 -2.2355e-08 0)
(-5.37456e-09 -1.06034e-08 0)
(1.59947e-09 1.47027e-08 0)
(6.92137e-09 2.36842e-08 0)
(7.43179e-09 1.56694e-10 0)
(5.27155e-09 -7.94681e-09 0)
(-1.55271e-09 5.4269e-09 0)
(-3.22895e-09 6.85956e-09 0)
(-3.8171e-09 -1.15104e-08 0)
(-4.27544e-09 -2.43412e-08 0)
(-6.05778e-09 -8.62751e-09 0)
(-5.42614e-09 1.75404e-08 0)
(-1.93222e-09 2.15329e-08 0)
(-9.36835e-09 -3.43561e-10 0)
(9.19741e-09 -1.91869e-08 0)
(-6.40653e-08 1.34308e-08 0)
(2.38222e-08 -1.40861e-07 0)
(6.62048e-08 -2.74075e-08 0)
(-3.69121e-08 2.53715e-08 0)
(-1.43281e-08 -9.99767e-09 0)
(3.22057e-09 -2.66933e-08 0)
(-1.05777e-09 -1.4993e-08 0)
(4.30021e-10 1.10921e-08 0)
(5.87481e-09 1.88877e-08 0)
(7.60267e-09 -4.82943e-09 0)
(5.63378e-09 -9.28958e-09 0)
(-1.60792e-09 1.80181e-09 0)
(-3.01978e-09 4.20686e-09 0)
(-2.03217e-09 -9.01866e-09 0)
(-3.88129e-09 -1.87338e-08 0)
(-6.65797e-09 -6.04907e-09 0)
(-7.53275e-09 1.34925e-08 0)
(-4.44763e-09 1.46956e-08 0)
(-3.97713e-10 -5.57143e-09 0)
(2.31895e-09 -9.89063e-09 0)
(-9.61154e-08 -4.0183e-08 0)
(-6.78525e-07 2.07129e-07 0)
(2.07838e-07 6.11755e-08 0)
(5.09114e-08 4.4366e-10 0)
(-2.77028e-08 -2.70861e-09 0)
(-1.85274e-08 -1.45076e-08 0)
(-6.54966e-09 -1.36445e-08 0)
(-1.34105e-09 4.95252e-09 0)
(7.6011e-09 1.12547e-08 0)
(1.08818e-08 -4.20261e-09 0)
(6.5471e-09 -6.17853e-09 0)
(-5.50398e-10 -9.49765e-10 0)
(-1.5391e-09 2.25501e-09 0)
(-2.28781e-10 -5.42034e-09 0)
(-3.47913e-09 -1.2143e-08 0)
(-8.96805e-09 -4.50367e-09 0)
(-9.73195e-09 6.89726e-09 0)
(-6.81945e-09 4.89605e-09 0)
(-5.90562e-09 -3.39874e-09 0)
(-1.35524e-08 -1.11234e-09 0)
(6.28182e-08 -3.01136e-08 0)
(6.49855e-07 2.10383e-07 0)
(-2.39798e-07 5.07969e-08 0)
(-8.17835e-08 1.47196e-09 0)
(-5.38023e-09 1.02793e-09 0)
(-1.8252e-08 -3.47983e-09 0)
(-1.57206e-08 -5.74609e-09 0)
(-3.49709e-09 2.52634e-09 0)
(9.01627e-09 5.72743e-09 0)
(1.42024e-08 -2.50969e-09 0)
(5.75022e-09 -2.72986e-09 0)
(1.07062e-09 -2.20678e-09 0)
(1.00825e-10 8.53591e-10 0)
(9.60441e-10 -1.45071e-09 0)
(-3.82093e-09 -5.45145e-09 0)
(-1.09588e-08 -3.58395e-09 0)
(-1.31861e-08 -1.0796e-09 0)
(-6.12154e-09 -5.4272e-10 0)
(4.60993e-09 1.01517e-09 0)
(-2.06255e-08 1.25229e-08 0)
(4.14183e-08 2.31203e-08 0)
(-7.54841e-08 -1.26272e-07 0)
(-8.67152e-08 -4.53807e-08 0)
(1.81666e-08 1.97988e-08 0)
(-1.51801e-08 5.45346e-09 0)
(-3.00395e-08 -4.21024e-10 0)
(-2.42577e-08 8.75964e-11 0)
(-1.16851e-08 1.92554e-09 0)
(6.72745e-09 2.0948e-09 0)
(1.34087e-08 1.47052e-09 0)
(1.16619e-08 2.30892e-09 0)
(2.4606e-09 -2.71958e-09 0)
(1.65186e-09 -1.12836e-09 0)
(7.47731e-10 2.62375e-09 0)
(-4.98898e-09 1.85291e-09 0)
(-1.28268e-08 -2.6355e-09 0)
(-1.31057e-08 -7.00735e-09 0)
(-4.33544e-09 -6.06191e-09 0)
(6.85151e-09 6.06979e-09 0)
(-7.61858e-09 -2.7998e-09 0)
(-2.47259e-09 2.67721e-08 0)
(-2.13093e-08 -5.78929e-08 0)
(-5.66731e-10 3.77874e-08 0)
(5.34828e-09 -6.06377e-09 0)
(-2.20583e-08 -1.01241e-08 0)
(-2.26041e-08 -6.75377e-10 0)
(-2.25045e-08 1.64786e-09 0)
(-1.31212e-08 1.0105e-09 0)
(6.25156e-09 1.14188e-10 0)
(1.35149e-08 6.978e-09 0)
(7.57535e-09 7.75351e-09 0)
(3.51323e-09 -2.70491e-09 0)
(2.55131e-09 -4.05485e-09 0)
(-4.67216e-10 4.47601e-09 0)
(-6.75643e-09 8.81474e-09 0)
(-1.27331e-08 -6.89174e-10 0)
(-1.28426e-08 -1.02893e-08 0)
(-4.68842e-09 -6.90461e-09 0)
(-1.29641e-09 1.46056e-09 0)
(1.32641e-08 3.41596e-09 0)
(-5.025e-08 -1.22133e-08 0)
(4.87983e-07 2.27574e-09 0)
(1.9366e-08 -5.01099e-08 0)
(-5.63002e-08 -3.20751e-08 0)
(-9.63453e-09 -1.47684e-08 0)
(-1.44322e-08 -4.73267e-09 0)
(-1.98115e-08 -2.05865e-10 0)
(-1.10856e-08 -2.34273e-09 0)
(6.10464e-09 -4.34994e-09 0)
(1.15268e-08 7.62548e-09 0)
(4.76804e-09 1.02791e-08 0)
(3.95503e-09 -2.84849e-09 0)
(1.53749e-09 -7.43269e-09 0)
(-2.18014e-09 4.76404e-09 0)
(-7.62142e-09 1.50397e-08 0)
(-1.13354e-08 2.99533e-09 0)
(-9.65206e-09 -1.33395e-08 0)
(-5.09829e-09 -9.09647e-09 0)
(-4.38813e-10 3.07329e-09 0)
(-1.73913e-08 2.93912e-09 0)
(2.33614e-08 -8.28519e-09 0)
(-5.24282e-07 -2.21999e-08 0)
(-5.37286e-08 -6.50864e-08 0)
(3.1219e-08 -3.18524e-08 0)
(-6.21565e-09 -1.70851e-08 0)
(-7.7053e-09 -4.58836e-09 0)
(-4.58516e-09 -1.24119e-09 0)
(-2.80853e-09 -1.01713e-08 0)
(4.79059e-09 -1.36204e-08 0)
(7.28123e-09 5.67783e-09 0)
(4.19426e-09 1.17044e-08 0)
(3.6208e-09 -4.25794e-09 0)
(-2.19215e-10 -1.00129e-08 0)
(-3.88713e-09 4.93247e-09 0)
(-7.51882e-09 1.97607e-08 0)
(-9.55399e-09 6.74279e-09 0)
(-7.45851e-09 -1.67566e-08 0)
(-5.90771e-09 -1.66166e-08 0)
(-1.18618e-08 5.81722e-09 0)
(-4.26626e-09 1.7745e-08 0)
(-2.95631e-08 1.26515e-08 0)
(-1.90704e-08 -3.53165e-08 0)
(1.27503e-08 -2.04638e-09 0)
(-2.55122e-08 -2.36243e-08 0)
(-5.53064e-09 -4.1043e-09 0)
(5.17133e-09 9.9582e-09 0)
(3.19618e-09 3.55882e-09 0)
(1.03355e-09 -1.55414e-08 0)
(3.98242e-09 -2.15396e-08 0)
(4.82691e-09 3.8851e-09 0)
(7.23452e-09 1.28238e-08 0)
(3.43936e-09 -6.67448e-09 0)
(-1.86361e-09 -1.0928e-08 0)
(-5.64157e-09 6.22449e-09 0)
(-6.8035e-09 2.13114e-08 0)
(-7.10126e-09 8.52779e-09 0)
(-6.69113e-09 -2.01537e-08 0)
(-5.11323e-09 -2.27827e-08 0)
(-7.13919e-09 3.99558e-09 0)
(-1.02564e-08 3.33165e-08 0)
(-1.24937e-08 1.17607e-08 0)
(-7.87989e-09 5.79824e-09 0)
(-1.77578e-08 -3.35671e-08 0)
(-1.71905e-09 -1.50429e-08 0)
(7.8443e-09 1.10395e-08 0)
(7.63309e-09 1.76846e-08 0)
(4.6386e-09 6.29634e-09 0)
(1.24129e-09 -1.70803e-08 0)
(1.28251e-09 -2.41797e-08 0)
(4.03744e-09 5.4033e-09 0)
(1.16958e-08 1.50923e-08 0)
(4.05107e-09 -8.29641e-09 0)
(-1.91874e-09 -1.06266e-08 0)
(-7.69116e-09 8.60232e-09 0)
(-6.2764e-09 2.13302e-08 0)
(-5.38336e-09 6.50746e-09 0)
(-5.19822e-09 -2.14921e-08 0)
(-5.39517e-09 -2.76561e-08 0)
(-5.60954e-09 -1.29729e-09 0)
(-8.39325e-09 2.22767e-08 0)
(-5.40552e-09 2.03724e-08 0)
(-2.47903e-09 -6.42316e-09 0)
(-2.67629e-09 -1.9182e-08 0)
(4.67081e-09 -6.92217e-09 0)
(4.71345e-09 1.02741e-08 0)
(6.80469e-09 1.72793e-08 0)
(6.43487e-09 5.24042e-09 0)
(1.65519e-09 -1.93766e-08 0)
(-1.38703e-10 -2.33466e-08 0)
(4.04838e-09 1.01575e-08 0)
(1.31046e-08 1.76792e-08 0)
(5.14732e-09 -6.61896e-09 0)
(-1.30847e-09 -9.88402e-09 0)
(-9.67341e-09 7.79315e-09 0)
(-6.86117e-09 1.90344e-08 0)
(-3.72109e-09 3.60135e-09 0)
(-4.4e-09 -2.00024e-08 0)
(-5.88463e-09 -2.63893e-08 0)
(-5.5198e-09 -6.56152e-09 0)
(-5.75675e-09 1.19368e-08 0)
(-1.79686e-10 9.20419e-09 0)
(-1.26737e-09 -1.41479e-08 0)
(-2.81874e-09 -2.06058e-08 0)
(-1.85824e-09 -9.89533e-09 0)
(2.69705e-09 7.36816e-09 0)
(7.14233e-09 1.29893e-08 0)
(4.84324e-09 8.58986e-10 0)
(3.47185e-09 -1.88554e-08 0)
(4.24111e-09 -1.94511e-08 0)
(5.38961e-09 1.0949e-08 0)
(1.10027e-08 1.63484e-08 0)
(5.01649e-09 -2.00797e-09 0)
(-3.23023e-09 -8.38314e-09 0)
(-1.25482e-08 3.64525e-09 0)
(-6.87292e-09 1.45979e-08 0)
(-6.73518e-10 3.32865e-09 0)
(-2.92401e-09 -1.56309e-08 0)
(-7.28911e-09 -1.8579e-08 0)
(-8.88973e-09 -5.62832e-09 0)
(-4.84717e-09 6.76588e-09 0)
(-2.05224e-09 3.68627e-10 0)
(1.8617e-09 -1.73915e-08 0)
(3.94304e-09 -2.40952e-08 0)
(-8.20313e-10 -1.37797e-08 0)
(-3.64947e-10 1.35741e-09 0)
(3.26149e-09 3.90061e-09 0)
(7.30977e-09 -3.43515e-09 0)
(1.06089e-08 -1.42885e-08 0)
(7.3686e-09 -1.52584e-08 0)
(4.16964e-09 4.9038e-09 0)
(9.76218e-09 1.03097e-08 0)
(2.59515e-09 2.59664e-09 0)
(-7.73014e-09 -5.23224e-09 0)
(-1.51083e-08 -1.73505e-09 0)
(-5.76789e-09 6.51783e-09 0)
(2.59798e-09 3.26935e-09 0)
(-7.93904e-10 -8.15391e-09 0)
(-7.65446e-09 -1.00592e-08 0)
(-9.91744e-09 -2.85645e-09 0)
(-4.99589e-09 3.16216e-09 0)
(2.36125e-09 -1.82887e-09 0)
(4.67032e-09 -1.10644e-08 0)
(-1.29952e-09 -1.81928e-08 0)
(-4.70171e-09 -1.26878e-08 0)
(-1.76658e-09 -3.21752e-09 0)
(5.34498e-09 -1.15131e-09 0)
(1.3347e-08 -3.72507e-09 0)
(1.46088e-08 -9.3914e-09 0)
(5.52802e-09 -1.13084e-08 0)
(2.92186e-09 -1.33663e-10 0)
(1.36849e-08 4.61047e-09 0)
(-3.24357e-10 2.27546e-09 0)
(-1.29191e-08 -1.58987e-09 0)
(-1.79247e-08 -2.44214e-09 0)
(-4.32434e-09 3.6949e-10 0)
(5.95288e-09 1.22483e-09 0)
(1.01929e-09 -1.75998e-09 0)
(-8.27954e-09 -3.04159e-09 0)
(-1.12651e-08 -1.6302e-09 0)
(-5.44323e-09 -3.9265e-10 0)
(2.8264e-09 -1.47908e-09 0)
(6.54651e-09 -6.20595e-09 0)
(3.05216e-09 -7.48877e-09 0)
(-2.05464e-09 -4.08037e-09 0)
(-2.46172e-09 -9.44036e-10 0)
(5.00496e-09 -7.27838e-10 0)
(1.48162e-08 -1.58076e-09 0)
(1.60992e-08 -3.37315e-09 0)
(6.34527e-09 -4.20095e-09 0)
(4.76605e-09 -6.39756e-10 0)
(1.79123e-08 1.06579e-09 0)
)
;

boundaryField
{
    sides
    {
        type            calculated;
        value           nonuniform List<vector> 
40
(
(-3.24357e-10 0 0)
(-1.29191e-08 0 0)
(-1.79247e-08 0 0)
(-4.32434e-09 0 0)
(5.95288e-09 0 0)
(1.01929e-09 0 0)
(-8.27954e-09 0 0)
(-1.12651e-08 0 0)
(-5.44323e-09 0 0)
(2.8264e-09 0 0)
(6.54651e-09 0 0)
(3.05216e-09 0 0)
(-2.05464e-09 0 0)
(-2.46172e-09 0 0)
(5.00496e-09 0 0)
(1.48162e-08 0 0)
(1.60992e-08 0 0)
(6.34527e-09 0 0)
(4.76605e-09 0 0)
(1.79123e-08 0 0)
(5.60496e-09 0 0)
(-2.77106e-09 0 0)
(-1.46628e-08 0 0)
(-6.02516e-09 0 0)
(5.29184e-09 0 0)
(2.98591e-09 0 0)
(-5.25784e-09 0 0)
(-1.11484e-08 0 0)
(-5.07021e-09 0 0)
(1.52214e-09 0 0)
(2.96661e-09 0 0)
(-1.58264e-09 0 0)
(-8.75072e-09 0 0)
(-1.10791e-09 0 0)
(9.1631e-09 0 0)
(1.74312e-08 0 0)
(1.92166e-08 0 0)
(6.52034e-09 0 0)
(-4.09939e-09 0 0)
(-8.19213e-11 0 0)
)
;
    }
    inlet
    {
        type            calculated;
        value           uniform (0 0 0);
    }
    outlet
    {
        type            calculated;
        value           nonuniform List<vector> 
20
(
(-8.19213e-11 -2.53678e-09 0)
(9.4071e-09 -8.33157e-09 0)
(1.20029e-08 -8.25181e-09 0)
(1.28068e-08 -9.52441e-09 0)
(1.02596e-08 -9.93884e-09 0)
(5.27155e-09 -7.94681e-09 0)
(5.63378e-09 -9.28958e-09 0)
(6.5471e-09 -6.17853e-09 0)
(5.75022e-09 -2.72986e-09 0)
(1.16619e-08 2.30892e-09 0)
(7.57535e-09 7.75351e-09 0)
(4.76804e-09 1.02791e-08 0)
(4.19426e-09 1.17044e-08 0)
(7.23452e-09 1.28238e-08 0)
(1.16958e-08 1.50923e-08 0)
(1.31046e-08 1.76792e-08 0)
(1.10027e-08 1.63484e-08 0)
(9.76218e-09 1.03097e-08 0)
(1.36849e-08 4.61047e-09 0)
(1.79123e-08 1.06579e-09 0)
)
;
    }
    frontAndBack
    {
        type            empty;
    }
}


// ************************************************************************* //
