/*--------------------------------*- C++ -*----------------------------------*\
  =========                 |
  \\      /  F ield         | OpenFOAM: The Open Source CFD Toolbox
   \\    /   O peration     | Website:  https://openfoam.org
    \\  /    A nd           | Version:  9
     \\/     M anipulation  |
\*---------------------------------------------------------------------------*/
FoamFile
{
    format      ascii;
    class       surfaceScalarField;
    location    "47";
    object      ddtCorrDdt0(phi);
}
// * * * * * * * * * * * * * * * * * * * * * * * * * * * * * * * * * * * * * //

dimensions      [0 4 -2 0 0 0 0];

internalField   nonuniform List<scalar> 
760
(
8.02025e-12
1.91785e-11
-3.11887e-11
6.41625e-12
-5.78457e-11
-4.0238e-11
-2.35305e-11
-4.10354e-11
2.50301e-11
2.19541e-11
3.28499e-12
6.34009e-11
-3.4474e-11
5.4339e-11
-5.17525e-11
1.5117e-11
-5.97729e-12
-8.58875e-12
6.71619e-12
-1.42011e-11
1.11121e-11
2.57273e-11
-3.31847e-11
3.18096e-11
-2.49886e-11
1.75724e-11
2.22607e-11
-2.61414e-11
6.83721e-11
-4.18174e-11
9.36891e-11
-1.53954e-11
6.68955e-11
1.51851e-11
1.8015e-11
1.38125e-11
-1.43625e-11
-4.39759e-11
-3.51162e-11
-5.35525e-12
2.75016e-11
-4.62293e-11
1.12193e-11
-5.04929e-11
-5.45888e-11
-5.28075e-12
-6.14262e-11
1.79841e-11
1.73398e-11
-9.72014e-12
7.8765e-11
-3.0919e-11
9.62721e-11
-4.52826e-11
1.29077e-11
-6.08556e-12
-2.20802e-11
3.08152e-11
-1.74777e-11
-3.25639e-11
6.34013e-11
-1.5635e-11
9.8754e-11
-2.98853e-11
3.51485e-11
1.50879e-11
-1.64551e-11
6.17389e-11
-4.89963e-11
6.63949e-11
-2.48334e-11
4.81287e-11
4.08104e-11
3.88522e-11
4.92975e-11
3.68663e-11
-3.01535e-11
-4.75429e-11
-2.25974e-11
2.65994e-11
-4.86872e-11
2.70606e-11
-2.69278e-11
-4.16441e-11
8.35157e-12
-7.95417e-11
-1.28913e-11
-3.56064e-11
-7.30057e-12
8.20665e-11
-4.00762e-11
1.03981e-10
-1.88504e-11
3.66283e-11
-3.32802e-11
-5.03714e-11
-3.65381e-12
3.73211e-11
-8.19803e-12
7.06906e-11
-3.64704e-11
1.53908e-10
-1.4474e-11
9.57416e-11
1.15652e-13
-2.18571e-11
4.97473e-11
-5.14701e-11
6.14625e-11
-2.28846e-11
4.22247e-11
7.27665e-11
2.56822e-11
1.05627e-10
4.61814e-11
-2.22774e-11
-3.96832e-11
-2.98063e-11
3.20655e-11
-3.95462e-11
4.54184e-11
-7.10784e-12
-3.55973e-11
-1.00039e-11
-1.17523e-10
-1.92868e-11
-6.05313e-11
-1.54986e-11
8.11034e-11
-3.08363e-11
1.19373e-10
-3.65399e-11
2.36935e-11
9.55054e-12
-2.50057e-11
-7.58446e-11
-4.6863e-11
1.60061e-11
2.27898e-10
-3.66939e-11
9.48925e-11
-4.06639e-11
1.01633e-10
9.80171e-12
-2.36325e-12
2.17547e-11
-7.9217e-11
2.919e-11
-3.3855e-11
3.996e-11
8.62776e-11
5.3009e-11
1.20804e-10
5.4975e-11
4.3522e-12
-3.82583e-11
-2.55767e-11
3.99338e-11
-2.28885e-11
5.15265e-11
-1.11129e-11
-5.09584e-11
-2.90144e-11
-1.34883e-10
-2.21351e-11
-6.29313e-11
-1.30924e-11
8.69947e-11
-2.20897e-11
1.25737e-10
-1.6901e-11
1.73164e-11
-5.03262e-11
-3.36256e-11
6.81275e-11
-9.29638e-11
-1.85095e-10
-1.73008e-11
3.97537e-11
2.70342e-10
-2.69544e-11
-1.16758e-11
-3.65574e-11
-7.04292e-11
1.61336e-11
-7.60309e-11
3.00072e-11
-4.54756e-11
2.68447e-11
9.05301e-11
1.2855e-11
1.38785e-10
3.17935e-11
-6.05075e-12
-4.65028e-11
-2.17221e-11
3.6678e-11
-2.01047e-11
3.97459e-11
-1.59569e-11
-5.86834e-11
-3.62605e-11
-1.31329e-10
-2.43562e-11
-4.79001e-11
-5.17282e-12
9.31163e-11
-3.4365e-11
1.07119e-10
4.22233e-11
5.21266e-11
-1.63155e-10
-2.34889e-10
6.89072e-11
2.75571e-10
-2.99379e-11
-5.10301e-10
-1.82701e-10
1.1587e-10
5.15072e-11
1.94251e-10
-5.51812e-13
-1.02449e-10
-4.03074e-11
-1.40644e-10
-5.8447e-12
-5.95531e-11
3.20623e-11
6.50861e-11
3.72921e-11
1.0455e-10
2.61457e-11
-1.74409e-11
-4.53512e-11
-2.53175e-11
1.78443e-11
-1.93812e-11
2.56257e-11
-1.57698e-11
-5.4895e-11
-3.47458e-11
-1.05792e-10
-2.40219e-11
-3.50822e-11
-2.14892e-11
8.03882e-11
2.3285e-11
1.08072e-10
-1.35438e-10
-6.66243e-11
1.78908e-10
6.08273e-11
-6.2392e-10
-2.96908e-10
6.76861e-10
1.7002e-09
-7.94421e-11
-4.33526e-10
-1.56117e-10
9.31508e-12
-2.65965e-12
1.11274e-11
1.77844e-12
-9.22934e-11
2.3743e-13
-5.8724e-11
2.58547e-11
9.94965e-11
3.34097e-11
6.70594e-11
2.77179e-11
-2.60592e-11
-4.01807e-11
-2.55332e-11
-3.35799e-13
-1.74909e-11
1.23917e-11
-7.86912e-12
-3.75196e-11
-3.22019e-11
-7.90191e-11
-3.29863e-11
-2.07842e-11
-1.15883e-11
5.01822e-11
-4.7004e-11
3.51683e-11
2.26395e-11
2.84202e-11
1.78295e-10
-2.11477e-10
-3.02073e-09
-1.2705e-10
-3.10405e-10
3.06412e-08
5.44697e-10
1.19266e-09
-3.43081e-11
-4.72753e-12
-1.34522e-10
-6.15426e-11
-5.4638e-11
-8.06009e-11
-1.90434e-11
-3.68189e-11
3.07605e-11
1.20343e-11
4.68095e-11
3.97848e-11
3.72003e-11
-2.20304e-11
-2.01942e-11
-1.99857e-11
-1.04234e-11
-6.64961e-12
7.43657e-12
-5.85004e-12
-1.81836e-11
-2.77519e-11
-4.2621e-11
-4.29988e-11
-2.361e-11
-4.69445e-11
1.98102e-11
-1.83727e-11
6.07581e-12
-7.06012e-11
-3.7732e-11
-2.65103e-10
1.79975e-10
2.85552e-09
-2.64446e-10
1.83954e-10
1.45623e-09
-7.31501e-10
-5.48394e-10
-1.22229e-10
-4.62641e-12
-6.43287e-11
2.45738e-11
-9.41854e-11
-1.87078e-11
-4.22286e-11
-1.19442e-11
2.20153e-11
-1.68772e-09
6.34339e-11
2.24545e-11
4.87684e-11
1.30005e-12
-1.7107e-10
-7.01872e-12
-1.26263e-11
1.11703e-13
1.03529e-12
-3.96709e-12
5.0144e-12
-3.19068e-11
-1.15616e-11
-5.73379e-11
-1.447e-11
-5.66837e-11
-2.97328e-11
-4.50775e-11
-9.5075e-12
9.30464e-11
4.378e-11
-2.28159e-10
-2.93147e-11
3.96553e-10
2.13798e-10
-8.58308e-10
-4.34621e-10
1.34313e-11
4.88961e-11
9.48412e-12
7.67822e-11
-1.38444e-10
-4.17167e-11
-1.48156e-10
-1.53491e-11
-8.30003e-11
4.78448e-12
-6.04308e-12
1.09273e-11
5.90527e-11
4.87742e-12
6.0104e-11
2.20048e-11
2.86729e-11
6.72074e-12
-1.27051e-11
6.78686e-12
-1.05498e-11
-1.5355e-11
2.0538e-11
-3.33451e-11
2.6552e-11
-7.24301e-11
-1.43204e-11
-5.73716e-11
-4.16528e-11
4.87473e-12
-4.88657e-11
3.4455e-11
5.54458e-11
-3.3438e-11
-2.00307e-11
-5.48244e-11
1.91912e-10
-1.14932e-10
-6.75645e-10
9.82877e-11
1.77253e-10
-8.50482e-11
-1.50351e-10
-1.12508e-10
-9.08113e-11
-1.20427e-10
-1.34551e-11
-8.91194e-11
1.09615e-11
-1.26561e-11
-5.4795e-12
6.09326e-11
-5.14827e-12
5.33526e-11
4.06665e-11
4.59274e-11
1.51219e-11
-1.38844e-11
1.07947e-11
-2.82026e-11
-2.68394e-11
2.62496e-11
-4.7268e-11
5.96481e-11
-6.05898e-11
3.99643e-12
-6.87546e-11
-5.70107e-11
1.13587e-11
-2.36966e-11
-1.46998e-11
-5.70909e-11
9.11271e-11
1.05842e-10
7.79433e-10
-3.3625e-10
1.59363e-09
-4.76369e-08
-3.06876e-10
-5.3298e-10
-1.08947e-10
-1.57557e-10
-5.59621e-11
-5.47395e-11
-9.58463e-11
-1.72124e-11
-7.93843e-11
1.95556e-11
-7.40137e-12
-3.57846e-11
5.71492e-11
-4.12016e-11
3.91882e-11
3.72503e-11
5.63413e-11
9.96572e-12
-1.66922e-11
8.28356e-12
-4.58566e-11
-3.40237e-11
2.31793e-11
-5.57471e-11
8.8587e-11
-4.94245e-11
2.38551e-11
-2.22339e-11
-6.97275e-11
-2.2866e-11
-7.1315e-11
-5.75421e-12
3.72457e-11
-1.48483e-10
-1.05587e-11
-9.35141e-10
2.6647e-10
-1.76937e-09
-1.15736e-09
1.24341e-10
1.56757e-11
1.60899e-11
-1.18811e-10
-4.06957e-11
-6.75399e-11
-2.28331e-11
8.71997e-12
-1.58044e-11
3.83971e-12
1.94245e-12
-5.71297e-11
3.80318e-11
-9.18701e-11
2.80468e-11
1.79035e-11
5.73182e-11
-4.02185e-12
-2.69324e-11
-4.25266e-13
-5.42144e-11
-3.01356e-11
2.26534e-11
-5.94915e-11
1.03113e-10
-3.5948e-11
4.20727e-11
-1.41296e-11
-9.3478e-11
-2.89175e-11
-9.39236e-11
-1.21757e-10
3.27771e-11
4.43931e-11
1.77494e-10
-2.97425e-10
-1.07954e-10
1.53271e-10
1.59034e-10
-1.10122e-10
-2.05361e-10
-8.63066e-11
-1.5442e-10
1.3166e-11
1.20569e-11
2.79238e-11
6.80359e-11
1.42466e-11
2.67466e-11
7.95553e-12
-8.00885e-11
1.97974e-11
-1.18067e-10
3.17536e-11
1.83243e-11
6.64042e-11
-1.28574e-11
-3.98196e-11
-1.49658e-11
-5.33979e-11
-2.44992e-11
3.64488e-11
-4.75551e-11
1.04128e-10
-4.02623e-11
4.09558e-11
-6.45757e-12
-1.06212e-10
-2.42024e-11
-1.29644e-10
-5.43664e-11
4.41626e-12
-8.53721e-11
1.37609e-10
-1.06805e-11
1.35363e-10
-8.48098e-11
-1.5317e-10
-6.01878e-11
-1.16467e-10
2.42477e-11
-3.5758e-11
4.30183e-11
6.23213e-11
3.74162e-11
9.32535e-11
1.7794e-11
3.05081e-11
-4.09689e-13
-9.53506e-11
7.70259e-12
-1.20221e-10
4.14223e-11
4.17694e-11
8.34406e-11
-7.93723e-12
-4.26867e-11
-2.26361e-11
-4.86543e-11
-3.12101e-11
4.76195e-11
-3.15706e-11
1.00622e-10
-4.13414e-11
2.05953e-11
-1.06098e-11
-1.06032e-10
-1.78288e-11
-1.47655e-10
-3.56707e-11
-2.52065e-11
-5.19992e-11
8.16263e-11
-4.35596e-12
9.16652e-11
-3.2168e-11
-5.18603e-11
6.26676e-12
-7.60014e-11
2.62644e-11
-2.25301e-11
3.55077e-11
5.55158e-11
4.01898e-11
8.08088e-11
1.75628e-11
1.75137e-11
-7.99244e-13
-9.4415e-11
8.78583e-12
-1.02695e-10
4.36928e-11
5.80709e-11
8.88415e-11
1.90056e-12
-2.41063e-11
-2.17438e-11
-4.69639e-11
-4.40588e-11
3.22961e-11
-2.99644e-11
8.56308e-11
-2.70234e-11
9.49628e-12
-2.79899e-11
-9.5501e-11
-1.07511e-11
-1.16345e-10
-3.03908e-11
-4.13872e-11
-1.93778e-11
3.5453e-11
4.35382e-13
1.12905e-11
-2.33924e-11
-6.74556e-11
-8.53046e-12
-1.05913e-10
-2.33807e-12
-6.52383e-11
3.41827e-11
1.66604e-11
3.44694e-11
4.09114e-11
1.46293e-11
-7.54356e-12
1.97757e-11
-8.33667e-11
2.99492e-11
-8.3755e-11
3.9033e-11
4.55874e-11
6.99101e-11
-6.84144e-12
5.53682e-12
-2.94249e-11
-3.86918e-11
-4.94608e-11
-4.18501e-12
-3.00631e-11
5.17654e-11
-8.96361e-12
2.00803e-11
-2.9225e-11
-5.92738e-11
-3.02279e-11
-7.09276e-11
-3.21198e-11
-2.8557e-11
-1.55142e-11
1.47403e-11
-1.72463e-11
-9.85778e-12
2.58605e-11
-8.43827e-11
3.35278e-12
-1.08271e-10
-5.08433e-12
-6.65906e-11
1.29489e-11
-4.23087e-12
2.66263e-11
2.22987e-12
4.28359e-11
-2.04654e-11
4.91108e-11
-5.86001e-11
3.49127e-11
-6.89827e-11
3.14281e-11
5.86794e-12
3.3444e-11
-3.46758e-11
1.66103e-11
-5.3695e-11
-2.06055e-11
-4.31852e-11
-1.72017e-11
-1.56579e-11
1.751e-11
6.95455e-13
1.86766e-11
-2.0581e-11
-2.11141e-11
-4.21849e-11
-3.21969e-11
-3.33797e-11
-9.18532e-12
-1.20094e-11
6.01658e-12
1.931e-11
-1.3828e-11
5.50138e-12
-4.01904e-11
-1.25075e-11
-7.00638e-11
-1.60755e-11
-4.71273e-11
2.94727e-12
-1.80766e-11
4.89969e-11
-1.14921e-11
8.02853e-11
-1.36922e-11
5.31236e-11
-2.77395e-11
1.58877e-11
-4.23255e-11
3.91099e-11
-1.57911e-11
7.62782e-12
-6.27954e-11
-8.37442e-11
-4.06019e-11
6.01369e-12
1.02917e-11
-1.86066e-11
-4.88939e-11
-4.02859e-11
-7.68059e-12
1.9009e-11
2.42456e-11
8.54324e-12
-1.14131e-11
-5.48024e-12
5.31696e-11
9.52507e-11
5.78059e-11
1.31295e-11
5.35412e-11
)
;

boundaryField
{
    sides
    {
        type            calculated;
        value           uniform 0;
    }
    inlet
    {
        type            calculated;
        value           uniform 0;
    }
    outlet
    {
        type            calculated;
        value           nonuniform List<scalar> 
20
(
-2.44481e-11
3.70672e-11
4.87198e-11
7.05119e-11
4.92064e-11
2.16946e-11
2.40132e-11
2.82397e-11
1.71665e-11
5.04657e-11
2.22209e-11
5.94677e-12
6.12457e-12
3.11342e-11
6.13974e-11
6.5923e-11
4.80285e-11
3.91554e-11
6.88676e-11
1.03349e-10
)
;
    }
    frontAndBack
    {
        type            empty;
        value           nonuniform List<scalar> 0();
    }
}


// ************************************************************************* //
