/*--------------------------------*- C++ -*----------------------------------*\
  =========                 |
  \\      /  F ield         | OpenFOAM: The Open Source CFD Toolbox
   \\    /   O peration     | Website:  https://openfoam.org
    \\  /    A nd           | Version:  9
     \\/     M anipulation  |
\*---------------------------------------------------------------------------*/
FoamFile
{
    format      ascii;
    class       volScalarField;
    location    "47";
    object      h_0;
}
// * * * * * * * * * * * * * * * * * * * * * * * * * * * * * * * * * * * * * //

dimensions      [0 1 0 0 0 0 0];

internalField   nonuniform List<scalar> 
400
(
0.0100004
0.0100004
0.0100003
0.0100001
0.00999998
0.00999977
0.00999954
0.0099993
0.00999909
0.00999892
0.00999884
0.00999884
0.00999896
0.00999917
0.00999943
0.00999969
0.0099999
0.01
0.0100001
0.01
0.0100004
0.0100003
0.0100002
0.0100001
0.00999989
0.00999967
0.00999942
0.00999915
0.0099989
0.0099987
0.00999859
0.00999862
0.00999877
0.00999902
0.00999932
0.00999961
0.00999982
0.00999993
0.00999998
0.00999999
0.0100004
0.0100003
0.0100002
0.0100001
0.00999989
0.00999965
0.00999936
0.00999906
0.00999876
0.00999851
0.00999838
0.00999839
0.00999857
0.0099989
0.0099993
0.00999968
0.00999995
0.0100001
0.0100001
0.01
0.0100004
0.0100004
0.0100003
0.0100001
0.00999993
0.00999965
0.00999931
0.00999891
0.0099985
0.00999812
0.00999791
0.00999793
0.00999824
0.00999876
0.00999934
0.00999977
0.00999998
0.01
0.00999997
0.00999997
0.0100005
0.0100005
0.0100004
0.0100003
0.01
0.00999972
0.00999929
0.00999877
0.00999818
0.00999761
0.0099972
0.00999723
0.00999772
0.00999861
0.00999956
0.0100002
0.0100004
0.0100003
0.0100001
0.00999999
0.0100007
0.0100006
0.0100006
0.0100004
0.0100002
0.0099999
0.00999937
0.00999864
0.00999777
0.00999694
0.00999634
0.0099963
0.00999709
0.00999845
0.00999976
0.0100005
0.0100005
0.0100002
0.00999994
0.00999992
0.0100008
0.0100008
0.0100008
0.0100007
0.0100006
0.0100003
0.0099997
0.00999869
0.00999719
0.00999539
0.00999425
0.00999456
0.00999672
0.00999951
0.0100013
0.0100016
0.0100008
0.0100001
0.00999974
0.00999987
0.010001
0.010001
0.0100011
0.0100011
0.0100011
0.0100009
0.0100004
0.00999931
0.00999741
0.00999432
0.00999066
0.00999029
0.00999451
0.0100002
0.0100033
0.0100031
0.0100013
0.00999986
0.0099995
0.00999983
0.0100011
0.0100011
0.0100013
0.0100016
0.0100019
0.010002
0.0100014
0.00999953
0.00999555
0.00998978
0.00998669
0.00998973
0.00999806
0.0100037
0.0100045
0.0100024
0.0100003
0.00999936
0.00999944
0.00999988
0.0100011
0.0100012
0.0100014
0.0100019
0.0100027
0.0100041
0.0100059
0.0100079
0.0100049
0.00897852
0.00895238
0.00997588
0.0100088
0.0100178
0.0100105
0.0100023
0.00999888
0.00999892
0.00999979
0.0100002
0.010001
0.0100011
0.0100014
0.0100019
0.0100026
0.010004
0.0100058
0.0100078
0.0100049
0.00897846
0.00895242
0.00997583
0.0100088
0.0100178
0.0100104
0.0100023
0.00999887
0.0099989
0.00999976
0.0100001
0.0100009
0.0100009
0.0100011
0.0100014
0.0100017
0.0100018
0.0100012
0.00999934
0.00999535
0.00998956
0.00998664
0.00998958
0.00999794
0.0100036
0.0100043
0.0100023
0.0100002
0.00999934
0.00999946
0.00999989
0.0100006
0.0100007
0.0100007
0.0100008
0.0100008
0.0100006
0.0100001
0.00999902
0.00999715
0.0099941
0.00999027
0.00999004
0.00999427
0.00999997
0.0100031
0.0100029
0.0100011
0.00999978
0.00999947
0.00999982
0.0100003
0.0100003
0.0100003
0.0100003
0.0100001
0.00999983
0.00999926
0.00999826
0.00999677
0.00999499
0.00999382
0.00999419
0.00999639
0.00999922
0.0100011
0.0100014
0.0100007
0.00999991
0.00999965
0.00999984
0.01
0.01
0.00999996
0.00999985
0.00999965
0.00999932
0.00999879
0.00999808
0.00999724
0.00999644
0.00999588
0.00999588
0.00999669
0.00999809
0.00999943
0.0100002
0.0100003
0.01
0.00999983
0.00999989
0.00999977
0.00999974
0.00999965
0.00999952
0.00999931
0.009999
0.00999859
0.00999808
0.00999752
0.00999696
0.00999659
0.00999664
0.00999718
0.00999811
0.00999909
0.00999978
0.01
0.01
0.00999992
0.00999993
0.00999954
0.00999949
0.0099994
0.00999926
0.00999906
0.0099988
0.00999847
0.00999809
0.0099977
0.00999737
0.0099972
0.00999726
0.0099976
0.00999818
0.00999882
0.00999935
0.00999967
0.00999979
0.00999985
0.00999992
0.00999934
0.00999929
0.0099992
0.00999907
0.00999889
0.00999866
0.00999839
0.00999809
0.0099978
0.00999757
0.00999746
0.00999753
0.00999777
0.00999817
0.00999864
0.00999908
0.00999943
0.00999965
0.0099998
0.00999992
0.00999918
0.00999914
0.00999906
0.00999893
0.00999877
0.00999856
0.00999834
0.0099981
0.00999789
0.00999773
0.00999766
0.00999771
0.0099979
0.00999821
0.0099986
0.00999899
0.00999932
0.00999958
0.00999977
0.00999992
0.00999904
0.009999
0.00999892
0.00999879
0.00999862
0.00999843
0.00999822
0.009998
0.00999781
0.00999768
0.00999763
0.00999769
0.00999787
0.00999814
0.00999848
0.00999883
0.00999915
0.00999942
0.00999966
0.00999987
)
;

boundaryField
{
    sides
    {
        type            zeroGradient;
    }
    inlet
    {
        type            zeroGradient;
    }
    outlet
    {
        type            fixedValue;
        value           uniform 0.01;
    }
    frontAndBack
    {
        type            empty;
    }
}


// ************************************************************************* //
