/*--------------------------------*- C++ -*----------------------------------*\
  =========                 |
  \\      /  F ield         | OpenFOAM: The Open Source CFD Toolbox
   \\    /   O peration     | Website:  https://openfoam.org
    \\  /    A nd           | Version:  9
     \\/     M anipulation  |
\*---------------------------------------------------------------------------*/
FoamFile
{
    format      ascii;
    class       volScalarField;
    location    "47";
    object      hTotal;
}
// * * * * * * * * * * * * * * * * * * * * * * * * * * * * * * * * * * * * * //

dimensions      [0 1 0 0 0 0 0];

internalField   nonuniform List<scalar> 
400
(
0.0100004
0.0100004
0.0100003
0.0100002
0.00999998
0.00999977
0.00999954
0.00999931
0.00999909
0.00999893
0.00999884
0.00999884
0.00999896
0.00999917
0.00999943
0.00999969
0.0099999
0.01
0.0100001
0.01
0.0100004
0.0100003
0.0100002
0.0100001
0.00999989
0.00999967
0.00999942
0.00999915
0.00999891
0.00999871
0.0099986
0.00999862
0.00999877
0.00999902
0.00999932
0.0099996
0.00999981
0.00999993
0.00999997
0.00999999
0.0100004
0.0100003
0.0100002
0.0100001
0.00999989
0.00999965
0.00999937
0.00999906
0.00999876
0.00999851
0.00999838
0.00999839
0.00999857
0.0099989
0.0099993
0.00999967
0.00999995
0.0100001
0.0100001
0.01
0.0100004
0.0100004
0.0100003
0.0100001
0.00999993
0.00999965
0.00999931
0.00999891
0.00999849
0.00999812
0.00999791
0.00999793
0.00999824
0.00999876
0.00999933
0.00999977
0.00999997
0.01
0.00999997
0.00999997
0.0100005
0.0100005
0.0100004
0.0100003
0.01
0.00999972
0.00999929
0.00999877
0.00999817
0.00999761
0.00999721
0.00999722
0.00999773
0.00999861
0.00999955
0.0100002
0.0100004
0.0100003
0.0100001
0.00999999
0.0100007
0.0100006
0.0100006
0.0100004
0.0100002
0.00999989
0.00999936
0.00999863
0.00999777
0.00999693
0.00999636
0.0099963
0.00999709
0.00999845
0.00999975
0.0100005
0.0100005
0.0100002
0.00999993
0.00999992
0.0100008
0.0100008
0.0100008
0.0100007
0.0100006
0.0100003
0.00999969
0.00999869
0.00999718
0.0099954
0.00999422
0.00999458
0.00999671
0.0099995
0.0100013
0.0100016
0.0100008
0.01
0.00999974
0.00999987
0.010001
0.010001
0.0100011
0.0100011
0.0100011
0.0100009
0.0100004
0.0099993
0.0099974
0.00999437
0.0099904
0.00999029
0.00999452
0.0100002
0.0100033
0.0100031
0.0100013
0.00999985
0.00999949
0.00999983
0.0100011
0.0100011
0.0100013
0.0100016
0.0100019
0.010002
0.0100014
0.00999952
0.00999554
0.0099897
0.00998693
0.00998971
0.00999804
0.0100037
0.0100044
0.0100024
0.0100003
0.00999935
0.00999944
0.00999988
0.0100011
0.0100012
0.0100014
0.0100019
0.0100027
0.0100041
0.0100059
0.0100079
0.0100049
0.0099785
0.00995238
0.00997584
0.0100088
0.0100178
0.0100105
0.0100023
0.00999887
0.00999891
0.00999978
0.0100002
0.010001
0.0100011
0.0100014
0.0100019
0.0100026
0.010004
0.0100058
0.0100078
0.0100049
0.00997846
0.00995243
0.00997583
0.0100088
0.0100178
0.0100104
0.0100023
0.00999886
0.0099989
0.00999975
0.0100001
0.0100009
0.0100009
0.0100011
0.0100014
0.0100017
0.0100018
0.0100012
0.00999932
0.00999534
0.00998955
0.00998685
0.00998961
0.00999793
0.0100036
0.0100043
0.0100023
0.0100002
0.00999933
0.00999946
0.00999989
0.0100006
0.0100007
0.0100007
0.0100008
0.0100008
0.0100006
0.0100001
0.00999902
0.00999714
0.00999408
0.00999005
0.00998999
0.00999426
0.00999997
0.0100031
0.0100029
0.0100011
0.00999978
0.00999947
0.00999982
0.0100003
0.0100003
0.0100003
0.0100003
0.0100001
0.00999982
0.00999925
0.00999826
0.00999676
0.00999499
0.00999377
0.00999419
0.00999637
0.00999921
0.0100011
0.0100014
0.0100006
0.00999991
0.00999964
0.00999983
0.01
0.01
0.00999996
0.00999984
0.00999965
0.00999931
0.00999879
0.00999808
0.00999724
0.00999644
0.00999588
0.00999587
0.00999669
0.00999808
0.00999943
0.0100002
0.0100003
0.01
0.00999982
0.00999988
0.00999978
0.00999974
0.00999965
0.00999952
0.00999931
0.009999
0.00999859
0.00999808
0.00999752
0.00999697
0.00999659
0.00999664
0.00999718
0.00999811
0.00999909
0.00999978
0.01
0.01
0.00999991
0.00999993
0.00999954
0.00999949
0.0099994
0.00999926
0.00999907
0.0099988
0.00999847
0.00999809
0.0099977
0.00999738
0.00999721
0.00999727
0.00999761
0.00999818
0.00999882
0.00999935
0.00999966
0.00999979
0.00999984
0.00999992
0.00999934
0.00999929
0.00999921
0.00999907
0.00999889
0.00999866
0.00999839
0.00999809
0.0099978
0.00999758
0.00999746
0.00999753
0.00999777
0.00999817
0.00999864
0.00999908
0.00999942
0.00999965
0.0099998
0.00999992
0.00999918
0.00999914
0.00999906
0.00999894
0.00999877
0.00999857
0.00999834
0.0099981
0.00999789
0.00999773
0.00999766
0.00999771
0.0099979
0.00999821
0.0099986
0.00999899
0.00999932
0.00999957
0.00999977
0.00999992
0.00999904
0.009999
0.00999892
0.00999879
0.00999863
0.00999844
0.00999822
0.00999801
0.00999782
0.00999768
0.00999763
0.00999769
0.00999787
0.00999814
0.00999848
0.00999883
0.00999915
0.00999942
0.00999966
0.00999987
)
;

boundaryField
{
    sides
    {
        type            calculated;
        value           nonuniform List<scalar> 
40
(
0.00999904
0.009999
0.00999892
0.00999879
0.00999863
0.00999844
0.00999822
0.00999801
0.00999782
0.00999768
0.00999763
0.00999769
0.00999787
0.00999814
0.00999848
0.00999883
0.00999915
0.00999942
0.00999966
0.00999987
0.0100004
0.0100004
0.0100003
0.0100002
0.00999998
0.00999977
0.00999954
0.00999931
0.00999909
0.00999893
0.00999884
0.00999884
0.00999896
0.00999917
0.00999943
0.00999969
0.0099999
0.01
0.0100001
0.01
)
;
    }
    inlet
    {
        type            calculated;
        value           nonuniform List<scalar> 
20
(
0.0100004
0.0100004
0.0100004
0.0100004
0.0100005
0.0100007
0.0100008
0.010001
0.0100011
0.0100011
0.010001
0.0100009
0.0100006
0.0100003
0.01
0.00999978
0.00999954
0.00999934
0.00999918
0.00999904
)
;
    }
    outlet
    {
        type            calculated;
        value           uniform 0.01;
    }
    frontAndBack
    {
        type            empty;
    }
}


// ************************************************************************* //
