/*--------------------------------*- C++ -*----------------------------------*\
  =========                 |
  \\      /  F ield         | OpenFOAM: The Open Source CFD Toolbox
   \\    /   O peration     | Website:  https://openfoam.org
    \\  /    A nd           | Version:  9
     \\/     M anipulation  |
\*---------------------------------------------------------------------------*/
FoamFile
{
    format      ascii;
    class       volVectorField;
    location    "60";
    object      ddt0(hU);
}
// * * * * * * * * * * * * * * * * * * * * * * * * * * * * * * * * * * * * * //

dimensions      [0 2 -2 0 0 0 0];

internalField   nonuniform List<vector> 
400
(
(3.53063e-09 1.51036e-09 0)
(6.55123e-11 4.23343e-10 0)
(-1.38739e-09 -2.8456e-09 0)
(1.00031e-09 -3.34106e-09 0)
(2.11081e-09 -1.1283e-09 0)
(-8.18748e-10 -6.06106e-11 0)
(-4.06871e-09 5.01847e-11 0)
(-5.82164e-09 1.01797e-09 0)
(-4.81693e-10 1.74027e-09 0)
(3.28655e-09 1.67096e-09 0)
(4.47619e-09 4.75642e-09 0)
(4.10012e-09 2.28677e-09 0)
(1.30364e-10 2.60484e-09 0)
(1.23351e-09 6.2355e-10 0)
(9.9855e-10 -3.83381e-10 0)
(1.82231e-09 9.46583e-10 0)
(4.77579e-09 2.26447e-09 0)
(5.23575e-09 2.3648e-09 0)
(3.19528e-09 2.4237e-10 0)
(3.18092e-09 3.51291e-10 0)
(1.31883e-09 5.18873e-09 0)
(-4.64913e-10 1.08444e-09 0)
(-1.89354e-09 -6.87728e-09 0)
(1.06389e-09 -7.53592e-09 0)
(1.71238e-09 -2.7587e-09 0)
(-2.02157e-10 -9.54483e-10 0)
(-3.28229e-09 2.04067e-09 0)
(-2.42616e-09 2.77285e-09 0)
(-1.66747e-09 5.08468e-09 0)
(5.22468e-09 3.25451e-09 0)
(3.39943e-09 6.45615e-09 0)
(2.16147e-09 6.95651e-09 0)
(2.91751e-09 3.61793e-09 0)
(5.01259e-10 6.77156e-10 0)
(2.81583e-09 -1.61353e-09 0)
(3.00134e-09 9.77912e-10 0)
(3.71283e-09 6.40562e-09 0)
(5.6359e-09 8.26159e-09 0)
(7.49345e-09 2.02552e-09 0)
(6.01033e-09 -7.56265e-10 0)
(-2.37307e-09 7.19589e-09 0)
(-3.12611e-09 6.1355e-10 0)
(-2.72664e-09 -8.34294e-09 0)
(6.69801e-10 -8.30584e-09 0)
(9.40442e-10 -4.52174e-09 0)
(5.09453e-10 2.03261e-10 0)
(-8.46633e-10 4.26459e-09 0)
(1.96843e-10 4.0007e-09 0)
(-2.60356e-10 1.06126e-09 0)
(-1.56635e-10 4.9195e-09 0)
(6.37729e-09 -8.52748e-11 0)
(6.25774e-10 8.37978e-09 0)
(3.80392e-09 2.62393e-09 0)
(4.21479e-09 -3.95431e-09 0)
(4.36019e-09 -3.97911e-09 0)
(6.76547e-09 -2.66848e-10 0)
(6.4921e-09 7.42551e-09 0)
(5.14987e-09 9.95109e-09 0)
(5.56042e-09 2.48391e-09 0)
(4.46676e-09 -1.79462e-09 0)
(-4.6141e-09 5.57141e-09 0)
(-5.72285e-09 -9.21069e-10 0)
(-3.33102e-09 -7.79335e-09 0)
(-5.56291e-10 -7.98269e-09 0)
(6.09367e-10 -4.17616e-09 0)
(2.82943e-10 3.40407e-09 0)
(2.78414e-09 4.41347e-09 0)
(-1.57657e-09 -2.4689e-10 0)
(3.87863e-09 -4.73614e-09 0)
(-3.14915e-09 -2.22836e-09 0)
(-9.02496e-10 9.24958e-09 0)
(1.02914e-08 -1.29799e-09 0)
(-2.45554e-09 4.28216e-09 0)
(5.82374e-09 -4.27274e-09 0)
(1.00768e-08 -8.30957e-09 0)
(8.78251e-09 -2.66219e-09 0)
(7.71164e-09 6.60634e-09 0)
(6.62725e-09 7.34519e-09 0)
(7.32214e-09 -3.18417e-09 0)
(5.72338e-09 -4.10615e-09 0)
(-4.4598e-09 2.51643e-09 0)
(-6.54276e-09 -2.18665e-09 0)
(-3.49041e-09 -6.83444e-09 0)
(-1.32936e-09 -6.7173e-09 0)
(-1.19437e-09 -1.24419e-09 0)
(1.39236e-09 5.02214e-09 0)
(2.09426e-10 2.82543e-09 0)
(3.71364e-09 -8.51052e-09 0)
(-7.21751e-09 -1.24222e-09 0)
(1.52054e-08 -1.43234e-08 0)
(-1.1117e-08 1.05684e-08 0)
(-2.00633e-09 7.84003e-09 0)
(1.39605e-08 -3.46402e-09 0)
(-3.89681e-09 -5.62128e-10 0)
(5.13999e-09 -5.28075e-09 0)
(1.27829e-08 -4.30617e-09 0)
(9.28064e-09 3.52275e-09 0)
(3.47772e-09 3.5324e-09 0)
(4.82165e-09 -6.91717e-09 0)
(8.46591e-09 -5.92685e-09 0)
(-2.69159e-09 -3.3697e-10 0)
(-5.75445e-09 -2.77049e-09 0)
(-2.17369e-09 -5.98948e-09 0)
(-2.18844e-09 -5.50364e-09 0)
(-1.84441e-09 1.29874e-10 0)
(-1.20682e-09 4.7489e-09 0)
(1.66215e-10 -1.11407e-09 0)
(1.31078e-09 -3.41146e-09 0)
(-2.96629e-10 -1.36801e-08 0)
(-1.0337e-08 1.39845e-08 0)
(2.57144e-08 -5.21643e-08 0)
(-2.49635e-08 2.09528e-08 0)
(1.60348e-09 4.4337e-09 0)
(1.38493e-08 -7.00984e-09 0)
(-4.86564e-10 -3.96613e-09 0)
(3.12704e-09 -2.64367e-09 0)
(5.88998e-09 1.53978e-09 0)
(3.17334e-09 1.2531e-09 0)
(4.67238e-09 -6.11757e-09 0)
(9.2861e-09 -4.78269e-09 0)
(-8.75927e-10 -2.27693e-09 0)
(-2.99667e-09 -2.4319e-09 0)
(-4.59895e-10 -4.90374e-09 0)
(-2.07419e-09 -5.40718e-09 0)
(-3.74598e-09 -6.04854e-10 0)
(-2.55444e-09 2.92986e-09 0)
(8.56625e-10 1.28335e-09 0)
(-4.68828e-09 -1.39509e-09 0)
(1.71557e-08 -6.19656e-09 0)
(-5.66624e-08 2.51416e-08 0)
(4.42177e-08 -1.59806e-07 0)
(7.89943e-08 -4.1895e-08 0)
(-2.23034e-08 1.98551e-08 0)
(-2.72567e-09 1.59704e-09 0)
(8.37835e-09 -5.05769e-09 0)
(2.99551e-09 -1.81586e-09 0)
(1.3286e-09 2.43706e-09 0)
(-2.13681e-10 2.32391e-09 0)
(2.0421e-09 -3.94259e-09 0)
(8.62369e-09 -3.08162e-09 0)
(5.21253e-10 -2.64886e-09 0)
(4.66522e-10 -1.56227e-09 0)
(1.4169e-09 -4.04073e-09 0)
(-2.5053e-09 -5.83945e-09 0)
(-4.09664e-09 -1.34139e-09 0)
(-2.70395e-09 2.11898e-09 0)
(-7.76135e-11 4.09139e-09 0)
(3.23542e-09 5.43512e-10 0)
(1.1511e-08 2.72011e-09 0)
(-9.11582e-08 -3.43692e-08 0)
(-6.77519e-07 2.13648e-07 0)
(2.40188e-07 4.35792e-08 0)
(6.85997e-08 -9.88556e-09 0)
(-9.27808e-09 -7.61966e-10 0)
(-2.91609e-09 -3.96337e-09 0)
(1.0954e-09 -2.77012e-09 0)
(-5.24022e-10 1.84029e-09 0)
(-1.01111e-09 2.61037e-09 0)
(1.01335e-09 -4.8348e-10 0)
(5.95261e-09 5.40008e-12 0)
(9.87586e-10 -1.67794e-09 0)
(3.4828e-09 -8.30541e-10 0)
(2.3127e-09 -3.80837e-09 0)
(-2.32748e-09 -5.56767e-09 0)
(-4.63228e-09 -1.0728e-09 0)
(-1.74948e-09 2.83139e-09 0)
(7.12408e-10 3.63088e-09 0)
(-1.468e-12 2.68128e-09 0)
(-9.69846e-09 2.0803e-09 0)
(9.04619e-08 -3.47691e-08 0)
(6.82357e-07 2.01489e-07 0)
(-2.41038e-07 3.48744e-08 0)
(-6.04188e-08 -1.41954e-08 0)
(1.82201e-08 -5.04079e-09 0)
(8.54878e-09 -4.21255e-09 0)
(3.85989e-09 -3.86206e-09 0)
(2.6059e-09 -1.05626e-09 0)
(6.12788e-10 1.60746e-09 0)
(3.33144e-09 1.26801e-09 0)
(5.36515e-09 -6.8971e-11 0)
(9.98238e-10 -5.12976e-10 0)
(4.68703e-09 -3.54987e-10 0)
(2.6115e-09 -2.83746e-09 0)
(-1.9735e-09 -3.78926e-09 0)
(-3.23197e-09 4.50441e-11 0)
(-1.27082e-09 2.02877e-09 0)
(8.59477e-10 1.99224e-09 0)
(5.13288e-09 1.34229e-10 0)
(-1.62457e-08 -5.81172e-09 0)
(4.32139e-08 1.61661e-08 0)
(-4.74367e-08 -1.39291e-07 0)
(-6.72441e-08 -5.67911e-08 0)
(3.38582e-08 1.28802e-08 0)
(1.36834e-08 -2.09071e-09 0)
(2.4734e-09 -3.37995e-09 0)
(2.60582e-09 -4.04202e-09 0)
(6.88895e-10 -4.80524e-09 0)
(5.23601e-09 -2.44658e-09 0)
(5.23831e-09 1.78453e-10 0)
(3.43075e-09 3.55306e-10 0)
(1.00373e-09 2.58446e-10 0)
(4.4298e-09 2.85916e-11 0)
(2.34202e-09 7.26816e-11 0)
(-1.18659e-09 -3.33864e-10 0)
(-2.63061e-09 1.83652e-10 0)
(-1.01061e-09 -2.14551e-10 0)
(1.58209e-10 -3.20699e-09 0)
(-2.53965e-09 -8.15791e-10 0)
(-6.58241e-09 -1.03075e-08 0)
(3.27491e-08 -1.11676e-08 0)
(-9.83848e-08 1.67438e-08 0)
(1.35493e-08 1.40144e-08 0)
(1.09467e-08 -1.00568e-08 0)
(-1.57237e-09 -6.31014e-09 0)
(8.8502e-09 -1.60926e-09 0)
(2.477e-09 -2.7203e-09 0)
(1.84735e-09 -4.48298e-09 0)
(8.41652e-09 -4.0341e-09 0)
(1.02758e-08 -5.76277e-10 0)
(6.04981e-09 2.19867e-09 0)
(1.11627e-09 8.35455e-10 0)
(3.21619e-09 2.06322e-10 0)
(1.93759e-09 2.76737e-09 0)
(-8.37101e-10 3.64003e-09 0)
(-2.19714e-09 -7.15056e-10 0)
(-2.26677e-09 -3.85211e-09 0)
(-1.07854e-09 -5.45182e-09 0)
(-3.97956e-09 -5.36647e-09 0)
(-2.022e-08 8.19343e-09 0)
(2.1045e-08 2.40064e-08 0)
(6.12245e-07 -9.06245e-08 0)
(-1.34918e-07 9.14771e-09 0)
(-8.31093e-09 5.55783e-09 0)
(2.11328e-08 7.34713e-09 0)
(7.07234e-09 4.05301e-09 0)
(8.37273e-10 3.55636e-10 0)
(2.952e-09 -1.92054e-09 0)
(9.28782e-09 -2.30516e-09 0)
(9.98324e-09 2.69797e-10 0)
(5.50546e-09 1.95252e-09 0)
(8.29784e-10 1.71951e-09 0)
(8.86278e-10 3.36724e-10 0)
(1.63759e-09 3.93079e-09 0)
(-6.5943e-10 6.08272e-09 0)
(-2.51328e-09 -8.57937e-10 0)
(-3.16179e-09 -7.30412e-09 0)
(-1.90594e-09 -6.43404e-09 0)
(-3.83582e-10 -2.91831e-09 0)
(2.23603e-08 8.57175e-09 0)
(-5.10382e-08 3.18944e-08 0)
(-6.03043e-07 -5.85641e-08 0)
(1.53875e-07 8.58093e-10 0)
(8.946e-09 1.50173e-08 0)
(-6.97369e-09 9.4916e-09 0)
(-1.43929e-09 5.37064e-09 0)
(-8.90394e-10 1.98162e-09 0)
(2.40927e-09 -2.12056e-09 0)
(6.5546e-09 -3.21793e-09 0)
(6.51495e-09 3.73198e-10 0)
(4.55003e-09 2.11951e-09 0)
(-8.17244e-10 2.30896e-09 0)
(-2.2596e-09 1.0602e-09 0)
(8.03399e-10 3.4244e-09 0)
(-9.00666e-11 5.84456e-09 0)
(-2.80478e-09 -5.31258e-10 0)
(-3.09227e-09 -7.92724e-09 0)
(-2.32003e-09 -6.60717e-09 0)
(3.52219e-09 2.55075e-10 0)
(2.87158e-10 3.85695e-09 0)
(-1.58389e-08 -1.92148e-08 0)
(7.94337e-08 8.38295e-08 0)
(-5.04335e-09 -2.81945e-10 0)
(4.05322e-10 -8.79444e-09 0)
(1.82403e-09 7.34575e-10 0)
(-1.68425e-09 3.2413e-09 0)
(2.89822e-10 8.47163e-10 0)
(2.02227e-09 -3.93497e-09 0)
(3.67523e-09 -4.74227e-09 0)
(3.91385e-09 6.33947e-10 0)
(5.37919e-09 2.62998e-09 0)
(-3.23208e-09 1.18164e-09 0)
(-5.74895e-09 2.13819e-09 0)
(-7.41172e-10 3.04076e-09 0)
(4.8429e-10 3.0872e-09 0)
(-1.79629e-09 -1.94967e-10 0)
(-3.47719e-09 -6.23919e-09 0)
(-6.33176e-10 -3.90784e-09 0)
(3.79892e-10 1.83844e-09 0)
(1.13755e-09 1.62067e-09 0)
(7.18857e-09 2.3036e-09 0)
(-7.38825e-09 -4.55107e-09 0)
(1.52684e-09 -1.24395e-08 0)
(1.97999e-10 -4.45124e-09 0)
(-3.96686e-10 -1.38235e-09 0)
(1.46441e-09 1.3751e-09 0)
(2.43318e-09 -7.84159e-10 0)
(3.22519e-09 -5.84718e-09 0)
(3.19288e-09 -5.47713e-09 0)
(4.74716e-09 2.54505e-09 0)
(8.01663e-09 4.25779e-09 0)
(-4.93837e-09 -2.06473e-09 0)
(-7.55644e-09 2.52403e-09 0)
(-2.96487e-09 5.08571e-09 0)
(1.03627e-09 1.79592e-09 0)
(-3.34037e-10 -1.30279e-09 0)
(-1.81606e-09 -3.15486e-09 0)
(-1.44419e-09 -1.39786e-09 0)
(9.18474e-10 3.91043e-09 0)
(9.28847e-10 4.61667e-09 0)
(-3.27259e-09 -8.71759e-10 0)
(-2.21822e-09 -8.12817e-09 0)
(2.69382e-09 -8.25882e-09 0)
(1.54998e-09 -7.4207e-09 0)
(8.70995e-10 -2.27804e-09 0)
(2.68248e-09 8.46352e-10 0)
(6.26876e-09 -1.53256e-09 0)
(6.57897e-09 -7.93313e-09 0)
(6.31135e-09 -5.87958e-09 0)
(8.78156e-09 5.41058e-09 0)
(9.76309e-09 6.19657e-09 0)
(-4.2646e-09 -6.08446e-09 0)
(-6.29966e-09 1.13191e-09 0)
(-4.37198e-09 8.47527e-09 0)
(4.70966e-10 4.88594e-09 0)
(1.21595e-09 -1.85825e-09 0)
(-5.6158e-10 -2.52867e-09 0)
(-1.30125e-09 -9.22002e-10 0)
(1.33567e-10 3.32866e-09 0)
(-8.19347e-11 3.51599e-09 0)
(2.38325e-09 2.13395e-09 0)
(2.35736e-09 -3.85027e-10 0)
(1.81193e-09 -5.26065e-09 0)
(-6.1016e-11 -4.07226e-09 0)
(1.80713e-09 1.65113e-10 0)
(6.53777e-09 3.27454e-09 0)
(7.92587e-09 -5.34317e-10 0)
(9.93995e-09 -7.40278e-09 0)
(1.20861e-08 -5.68486e-09 0)
(1.20116e-08 5.44701e-09 0)
(7.67639e-09 6.02262e-09 0)
(-1.08948e-09 -8.31751e-09 0)
(-2.7012e-09 -1.35184e-09 0)
(-3.80074e-09 1.02302e-08 0)
(-4.91236e-10 1.02885e-08 0)
(1.4222e-09 7.04832e-10 0)
(-1.46705e-10 -4.65592e-09 0)
(-1.78176e-09 -3.13828e-09 0)
(-1.94807e-09 -1.53094e-09 0)
(1.79355e-09 9.19978e-10 0)
(4.11397e-09 9.83622e-10 0)
(4.36782e-09 1.88331e-10 0)
(2.76609e-09 -1.60992e-09 0)
(5.63867e-10 1.72527e-10 0)
(3.13501e-09 5.54986e-09 0)
(5.68646e-09 6.71505e-09 0)
(8.56947e-09 3.55415e-09 0)
(1.26739e-08 -2.59918e-09 0)
(1.32782e-08 -5.20483e-09 0)
(9.25859e-09 1.06801e-09 0)
(2.97385e-09 2.91043e-09 0)
(2.73124e-09 -7.10048e-09 0)
(1.16503e-09 -3.22269e-09 0)
(-1.32694e-09 7.33151e-09 0)
(-6.88217e-10 1.12447e-08 0)
(-1.91711e-10 3.75267e-09 0)
(-1.27681e-09 -4.30788e-09 0)
(-3.35312e-09 -5.81686e-09 0)
(-3.22027e-09 -5.18732e-09 0)
(1.49056e-09 -3.91229e-09 0)
(6.71956e-09 -3.11064e-09 0)
(7.63898e-09 -2.71256e-09 0)
(2.30817e-09 -2.58384e-09 0)
(5.08749e-10 1.29647e-09 0)
(2.8596e-09 5.77648e-09 0)
(5.70174e-09 7.22108e-09 0)
(8.34187e-09 5.91762e-09 0)
(8.75576e-09 1.56222e-10 0)
(5.55125e-09 -5.77547e-09 0)
(8.77569e-10 -4.03178e-09 0)
(-8.89694e-10 -4.85488e-10 0)
(4.94089e-09 -2.77955e-09 0)
(3.28229e-09 -1.92365e-09 0)
(1.14207e-09 2.15654e-09 0)
(2.71017e-10 4.7248e-09 0)
(-1.14157e-09 2.35458e-09 0)
(-2.91667e-09 -1.38055e-09 0)
(-5.07055e-09 -3.04404e-09 0)
(-4.95528e-09 -3.20104e-09 0)
(3.7724e-10 -3.20227e-09 0)
(6.33253e-09 -2.6042e-09 0)
(7.1621e-09 -3.25324e-09 0)
(4.26184e-09 -2.50574e-09 0)
(2.0629e-09 3.15969e-10 0)
(2.62145e-09 2.30507e-09 0)
(4.67841e-09 3.01775e-09 0)
(5.19393e-09 2.49634e-09 0)
(2.56965e-09 -1.01043e-10 0)
(-1.61541e-09 -3.18927e-09 0)
(-4.27086e-09 -3.05667e-09 0)
(-8.94338e-10 -8.98379e-10 0)
)
;

boundaryField
{
    sides
    {
        type            calculated;
        value           nonuniform List<vector> 
40
(
(4.94089e-09 0 0)
(3.28229e-09 0 0)
(1.14207e-09 0 0)
(2.71017e-10 0 0)
(-1.14157e-09 0 0)
(-2.91667e-09 0 0)
(-5.07055e-09 0 0)
(-4.95528e-09 0 0)
(3.7724e-10 0 0)
(6.33253e-09 0 0)
(7.1621e-09 0 0)
(4.26184e-09 0 0)
(2.0629e-09 0 0)
(2.62145e-09 0 0)
(4.67841e-09 0 0)
(5.19393e-09 0 0)
(2.56965e-09 0 0)
(-1.61541e-09 0 0)
(-4.27086e-09 0 0)
(-8.94338e-10 0 0)
(3.53063e-09 0 0)
(6.55123e-11 0 0)
(-1.38739e-09 0 0)
(1.00031e-09 0 0)
(2.11081e-09 0 0)
(-8.18748e-10 0 0)
(-4.06871e-09 0 0)
(-5.82164e-09 0 0)
(-4.81693e-10 0 0)
(3.28655e-09 0 0)
(4.47619e-09 0 0)
(4.10012e-09 0 0)
(1.30364e-10 0 0)
(1.23351e-09 0 0)
(9.9855e-10 0 0)
(1.82231e-09 0 0)
(4.77579e-09 0 0)
(5.23575e-09 0 0)
(3.19528e-09 0 0)
(3.18092e-09 0 0)
)
;
    }
    inlet
    {
        type            calculated;
        value           uniform (0 0 0);
    }
    outlet
    {
        type            calculated;
        value           nonuniform List<vector> 
20
(
(3.18092e-09 3.51291e-10 0)
(6.01033e-09 -7.56265e-10 0)
(4.46676e-09 -1.79462e-09 0)
(5.72338e-09 -4.10615e-09 0)
(8.46591e-09 -5.92685e-09 0)
(9.2861e-09 -4.78269e-09 0)
(8.62369e-09 -3.08162e-09 0)
(5.95261e-09 5.40008e-12 0)
(5.36515e-09 -6.8971e-11 0)
(3.43075e-09 3.55306e-10 0)
(6.04981e-09 2.19867e-09 0)
(5.50546e-09 1.95252e-09 0)
(4.55003e-09 2.11951e-09 0)
(5.37919e-09 2.62998e-09 0)
(8.01663e-09 4.25779e-09 0)
(9.76309e-09 6.19657e-09 0)
(7.67639e-09 6.02262e-09 0)
(2.97385e-09 2.91043e-09 0)
(-8.89694e-10 -4.85488e-10 0)
(-8.94338e-10 -8.98379e-10 0)
)
;
    }
    frontAndBack
    {
        type            empty;
    }
}


// ************************************************************************* //
