/*--------------------------------*- C++ -*----------------------------------*\
  =========                 |
  \\      /  F ield         | OpenFOAM: The Open Source CFD Toolbox
   \\    /   O peration     | Website:  https://openfoam.org
    \\  /    A nd           | Version:  9
     \\/     M anipulation  |
\*---------------------------------------------------------------------------*/
FoamFile
{
    format      ascii;
    class       volVectorField;
    location    "60";
    object      hU;
}
// * * * * * * * * * * * * * * * * * * * * * * * * * * * * * * * * * * * * * //

dimensions      [0 2 -1 0 0 0 0];

internalField   nonuniform List<vector> 
400
(
(0.001 -2.46341e-08 0)
(0.00100004 -7.14784e-08 0)
(0.00100012 -1.14139e-07 0)
(0.00100024 -1.52794e-07 0)
(0.0010004 -1.87354e-07 0)
(0.00100058 -2.17235e-07 0)
(0.00100078 -2.3806e-07 0)
(0.00100099 -2.46412e-07 0)
(0.00100118 -2.36686e-07 0)
(0.00100133 -2.10785e-07 0)
(0.0010014 -1.67583e-07 0)
(0.0010014 -1.28185e-07 0)
(0.00100129 -9.89217e-08 0)
(0.00100111 -9.30903e-08 0)
(0.00100087 -9.93646e-08 0)
(0.00100065 -1.34823e-07 0)
(0.00100044 -1.55702e-07 0)
(0.00100034 -2.00419e-07 0)
(0.00100026 -1.88164e-07 0)
(0.00100033 -2.68155e-07 0)
(0.001 -2.73183e-08 0)
(0.00100005 -8.10822e-08 0)
(0.00100013 -1.3083e-07 0)
(0.00100026 -1.75457e-07 0)
(0.00100042 -2.13777e-07 0)
(0.00100062 -2.41753e-07 0)
(0.00100084 -2.48594e-07 0)
(0.00100108 -2.22934e-07 0)
(0.0010013 -1.55314e-07 0)
(0.00100147 -4.67206e-08 0)
(0.00100157 9.54795e-08 0)
(0.00100154 2.48499e-07 0)
(0.00100141 3.89268e-07 0)
(0.00100119 4.76362e-07 0)
(0.00100093 5.05721e-07 0)
(0.00100067 4.53856e-07 0)
(0.00100048 3.80749e-07 0)
(0.00100037 2.57599e-07 0)
(0.00100033 2.05069e-07 0)
(0.00100029 8.16274e-08 0)
(0.001 -5.31227e-08 0)
(0.00100005 -1.62489e-07 0)
(0.00100013 -2.70879e-07 0)
(0.00100026 -3.75746e-07 0)
(0.00100043 -4.74291e-07 0)
(0.00100065 -5.57408e-07 0)
(0.0010009 -6.07111e-07 0)
(0.00100117 -6.01028e-07 0)
(0.00100143 -5.19238e-07 0)
(0.00100165 -3.50373e-07 0)
(0.00100177 -1.08196e-07 0)
(0.00100176 1.63368e-07 0)
(0.00100159 4.00552e-07 0)
(0.00100131 5.18577e-07 0)
(0.00100095 4.99827e-07 0)
(0.00100062 3.56265e-07 0)
(0.00100037 2.06128e-07 0)
(0.00100026 4.6697e-08 0)
(0.00100022 -3.84738e-09 0)
(0.0010003 -1.16729e-07 0)
(0.001 -7.43186e-08 0)
(0.00100004 -2.27036e-07 0)
(0.00100013 -3.8003e-07 0)
(0.00100026 -5.32787e-07 0)
(0.00100045 -6.81153e-07 0)
(0.0010007 -8.1163e-07 0)
(0.001001 -8.92967e-07 0)
(0.00100135 -8.89927e-07 0)
(0.00100171 -7.5777e-07 0)
(0.00100203 -4.74111e-07 0)
(0.00100222 -2.06986e-08 0)
(0.00100219 4.92302e-07 0)
(0.00100193 9.34233e-07 0)
(0.00100147 1.13659e-06 0)
(0.00100097 1.05378e-06 0)
(0.00100058 7.45251e-07 0)
(0.00100041 4.26962e-07 0)
(0.00100035 1.6993e-07 0)
(0.0010004 1.00421e-07 0)
(0.00100035 7.57046e-10 0)
(0.001 -9.20487e-08 0)
(0.00100004 -2.83405e-07 0)
(0.00100012 -4.82746e-07 0)
(0.00100025 -6.96406e-07 0)
(0.00100045 -9.20808e-07 0)
(0.00100073 -1.14037e-06 0)
(0.0010011 -1.30282e-06 0)
(0.00100156 -1.34238e-06 0)
(0.00100207 -1.17771e-06 0)
(0.00100257 -7.78918e-07 0)
(0.0010029 -1.68724e-07 0)
(0.00100288 5.78451e-07 0)
(0.00100244 1.22689e-06 0)
(0.00100167 1.50756e-06 0)
(0.00100086 1.3733e-06 0)
(0.00100031 9.65795e-07 0)
(0.00100013 5.83583e-07 0)
(0.00100022 3.1257e-07 0)
(0.00100037 2.58882e-07 0)
(0.00100043 1.67809e-07 0)
(0.001 -1.04857e-07 0)
(0.00100003 -3.24075e-07 0)
(0.00100009 -5.67785e-07 0)
(0.0010002 -8.46849e-07 0)
(0.00100038 -1.17246e-06 0)
(0.00100069 -1.52594e-06 0)
(0.00100115 -1.86331e-06 0)
(0.00100179 -2.05898e-06 0)
(0.00100254 -1.91483e-06 0)
(0.00100326 -1.19853e-06 0)
(0.00100377 8.04219e-08 0)
(0.00100378 1.54109e-06 0)
(0.0010031 2.42912e-06 0)
(0.00100192 2.29986e-06 0)
(0.00100082 1.42803e-06 0)
(0.00100019 4.93207e-07 0)
(0.00100018 1.45511e-08 0)
(0.00100037 -8.76703e-08 0)
(0.00100064 5.67433e-08 0)
(0.00100055 4.96304e-08 0)
(0.001 -1.04561e-07 0)
(0.001 -3.38631e-07 0)
(0.00100002 -6.06839e-07 0)
(0.00100008 -9.63831e-07 0)
(0.00100021 -1.39217e-06 0)
(0.00100049 -1.94736e-06 0)
(0.001001 -2.49299e-06 0)
(0.00100189 -3.08833e-06 0)
(0.00100321 -3.23566e-06 0)
(0.00100473 -2.87793e-06 0)
(0.00100574 -6.77887e-07 0)
(0.00100536 2.55325e-06 0)
(0.0010035 4.82582e-06 0)
(0.00100112 4.73306e-06 0)
(0.000999611 3.02678e-06 0)
(0.000999373 1.26513e-06 0)
(0.00100001 4.32555e-07 0)
(0.00100056 3.24177e-07 0)
(0.00100093 5.5884e-07 0)
(0.00100066 5.33984e-07 0)
(0.000999995 -9.45721e-08 0)
(0.000999969 -2.92897e-07 0)
(0.000999908 -5.8084e-07 0)
(0.000999877 -9.58435e-07 0)
(0.00099988 -1.57762e-06 0)
(0.0010001 -2.34603e-06 0)
(0.00100051 -3.40541e-06 0)
(0.00100153 -4.12785e-06 0)
(0.00100309 -4.37472e-06 0)
(0.00100601 -2.55273e-06 0)
(0.00100909 7.65766e-07 0)
(0.00100916 4.26591e-06 0)
(0.00100551 4.71411e-06 0)
(0.00100074 2.77906e-06 0)
(0.000998151 7.34023e-07 0)
(0.000998275 -2.73489e-07 0)
(0.0009998 -2.84272e-07 0)
(0.00100088 -1.09352e-08 0)
(0.00100133 2.10357e-07 0)
(0.00100085 1.03209e-07 0)
(0.000999995 -5.07197e-08 0)
(0.000999916 -2.06507e-07 0)
(0.000999757 -3.89081e-07 0)
(0.000999532 -7.3635e-07 0)
(0.000999289 -1.33887e-06 0)
(0.000999214 -2.48213e-06 0)
(0.00099971 -4.68917e-06 0)
(0.0010014 -8.06984e-06 0)
(0.00100492 -1.32865e-05 0)
(0.00100958 -1.49158e-05 0)
(0.00101191 3.85266e-06 0)
(0.00100892 1.87273e-05 0)
(0.00100222 1.57766e-05 0)
(0.000997571 5.73868e-06 0)
(0.000996888 -3.17112e-07 0)
(0.000998462 -1.26264e-06 0)
(0.00100027 -9.25424e-08 0)
(0.00100101 6.34979e-07 0)
(0.00100107 6.52159e-07 0)
(0.00100054 2.44767e-07 0)
(0.000999804 -2.03555e-08 0)
(0.00100017 -6.76425e-08 0)
(0.000999217 -1.52473e-07 0)
(0.000999905 -2.49506e-07 0)
(0.000997523 -5.92494e-07 0)
(0.000998847 -1.13138e-06 0)
(0.00099335 -2.88364e-06 0)
(0.000997534 -5.59227e-06 0)
(0.000991668 -1.15417e-05 0)
(0.000915838 -1.27051e-05 0)
(0.000951469 2.65298e-07 0)
(0.00101022 1.46357e-05 0)
(0.000990956 1.30834e-05 0)
(0.000983978 5.139e-06 0)
(0.000989588 1.93132e-07 0)
(0.000996283 -7.8157e-07 0)
(0.000999239 -1.10548e-07 0)
(0.000999415 2.4927e-07 0)
(0.000998649 1.75904e-07 0)
(0.000998506 -1.83512e-07 0)
(0.000999804 1.35403e-08 0)
(0.00100017 4.6698e-08 0)
(0.000999216 1.18e-07 0)
(0.000999903 1.9994e-07 0)
(0.00099752 5.29264e-07 0)
(0.000998841 1.05187e-06 0)
(0.000993343 2.78745e-06 0)
(0.000997522 5.47482e-06 0)
(0.000991652 1.13972e-05 0)
(0.000915813 1.25481e-05 0)
(0.000951428 -4.78802e-07 0)
(0.00101021 -1.49103e-05 0)
(0.000990952 -1.34107e-05 0)
(0.00098397 -5.53752e-06 0)
(0.00098957 -6.49962e-07 0)
(0.000996245 2.47034e-07 0)
(0.000999198 -4.72731e-07 0)
(0.00099937 -1.00139e-06 0)
(0.000998635 -9.86366e-07 0)
(0.000998456 -8.87278e-07 0)
(0.000999995 4.39233e-08 0)
(0.000999916 1.86171e-07 0)
(0.000999756 3.55477e-07 0)
(0.000999531 6.88214e-07 0)
(0.000999287 1.27664e-06 0)
(0.000999213 2.40243e-06 0)
(0.000999705 4.59122e-06 0)
(0.00100139 7.94485e-06 0)
(0.0010049 1.31341e-05 0)
(0.00100958 1.47214e-05 0)
(0.0010119 -4.06386e-06 0)
(0.0010089 -1.90012e-05 0)
(0.00100215 -1.60941e-05 0)
(0.000997482 -6.1226e-06 0)
(0.000996817 -8.57682e-08 0)
(0.000998403 7.72808e-07 0)
(0.00100017 -4.28619e-07 0)
(0.00100085 -1.30399e-06 0)
(0.00100088 -1.37651e-06 0)
(0.00100037 -1.24942e-06 0)
(0.000999996 8.80158e-08 0)
(0.000999969 2.73546e-07 0)
(0.000999906 5.48119e-07 0)
(0.000999872 9.11735e-07 0)
(0.000999872 1.51384e-06 0)
(0.00100008 2.26267e-06 0)
(0.00100048 3.29705e-06 0)
(0.00100149 3.99473e-06 0)
(0.00100304 4.21432e-06 0)
(0.00100595 2.36848e-06 0)
(0.00100901 -9.7565e-07 0)
(0.00100907 -4.53505e-06 0)
(0.00100543 -5.01626e-06 0)
(0.00100067 -3.12792e-06 0)
(0.000998059 -1.13237e-06 0)
(0.000998136 -2.54582e-07 0)
(0.000999625 -3.24708e-07 0)
(0.00100064 -7.39623e-07 0)
(0.00100106 -9.63398e-07 0)
(0.00100055 -1.07252e-06 0)
(0.001 9.85501e-08 0)
(0.001 3.20117e-07 0)
(0.00100002 5.7575e-07 0)
(0.00100007 9.191e-07 0)
(0.0010002 1.33345e-06 0)
(0.00100047 1.87199e-06 0)
(0.00100097 2.40277e-06 0)
(0.00100186 2.98015e-06 0)
(0.00100318 3.11464e-06 0)
(0.00100469 2.73112e-06 0)
(0.00100569 5.06706e-07 0)
(0.00100528 -2.75368e-06 0)
(0.00100339 -5.07528e-06 0)
(0.00100097 -5.06858e-06 0)
(0.000999411 -3.44987e-06 0)
(0.000999124 -1.7968e-06 0)
(0.000999747 -1.02276e-06 0)
(0.00100026 -1.05648e-06 0)
(0.00100062 -1.30229e-06 0)
(0.00100024 -1.51392e-06 0)
(0.001 9.96181e-08 0)
(0.00100003 3.07651e-07 0)
(0.00100008 5.40117e-07 0)
(0.00100019 8.07018e-07 0)
(0.00100037 1.12076e-06 0)
(0.00100066 1.46022e-06 0)
(0.00100112 1.78285e-06 0)
(0.00100174 1.95722e-06 0)
(0.00100248 1.78645e-06 0)
(0.00100318 1.0347e-06 0)
(0.00100366 -2.80883e-07 0)
(0.00100364 -1.78187e-06 0)
(0.00100292 -2.70762e-06 0)
(0.00100171 -2.62921e-06 0)
(0.00100058 -1.77884e-06 0)
(0.000999907 -8.97636e-07 0)
(0.000999861 -4.28777e-07 0)
(0.000999984 -4.45023e-07 0)
(0.00100022 -6.11021e-07 0)
(0.00100001 -8.46744e-07 0)
(0.001 8.73572e-08 0)
(0.00100004 2.69226e-07 0)
(0.00100011 4.59057e-07 0)
(0.00100024 6.62678e-07 0)
(0.00100043 8.76567e-07 0)
(0.0010007 1.08515e-06 0)
(0.00100106 1.23464e-06 0)
(0.0010015 1.25936e-06 0)
(0.001002 1.07788e-06 0)
(0.00100249 6.57337e-07 0)
(0.0010028 1.65979e-08 0)
(0.00100275 -7.69996e-07 0)
(0.00100228 -1.44728e-06 0)
(0.00100146 -1.77155e-06 0)
(0.00100063 -1.66752e-06 0)
(0.00100001 -1.35017e-06 0)
(0.000999797 -1.03104e-06 0)
(0.000999768 -9.34188e-07 0)
(0.000999887 -9.4016e-07 0)
(0.000999769 -1.10678e-06 0)
(0.001 7.00418e-08 0)
(0.00100004 2.14038e-07 0)
(0.00100013 3.58661e-07 0)
(0.00100025 5.02873e-07 0)
(0.00100043 6.43244e-07 0)
(0.00100067 7.66457e-07 0)
(0.00100096 8.41626e-07 0)
(0.00100129 8.31459e-07 0)
(0.00100163 6.94964e-07 0)
(0.00100191 4.06829e-07 0)
(0.00100206 -4.77285e-08 0)
(0.001002 -5.75603e-07 0)
(0.00100171 -1.03308e-06 0)
(0.0010012 -1.27891e-06 0)
(0.00100065 -1.22927e-06 0)
(0.00100017 -9.9634e-07 0)
(0.000999918 -7.03852e-07 0)
(0.000999743 -5.55139e-07 0)
(0.000999754 -4.8369e-07 0)
(0.000999562 -5.97346e-07 0)
(0.001 5.08872e-08 0)
(0.00100004 1.52993e-07 0)
(0.00100013 2.50391e-07 0)
(0.00100025 3.40478e-07 0)
(0.00100041 4.21517e-07 0)
(0.00100062 4.84146e-07 0)
(0.00100086 5.11872e-07 0)
(0.00100112 4.77299e-07 0)
(0.00100137 3.63797e-07 0)
(0.00100157 1.5569e-07 0)
(0.00100167 -1.17814e-07 0)
(0.00100161 -4.20989e-07 0)
(0.0010014 -6.79764e-07 0)
(0.00100104 -8.40534e-07 0)
(0.00100064 -8.50105e-07 0)
(0.00100023 -7.72521e-07 0)
(0.000999953 -6.40013e-07 0)
(0.000999691 -5.96872e-07 0)
(0.00099963 -5.6035e-07 0)
(0.000999389 -6.84687e-07 0)
(0.001 3.47962e-08 0)
(0.00100004 1.06318e-07 0)
(0.00100012 1.76581e-07 0)
(0.00100023 2.43158e-07 0)
(0.00100038 3.02757e-07 0)
(0.00100056 3.50579e-07 0)
(0.00100077 3.77294e-07 0)
(0.00100098 3.71007e-07 0)
(0.00100117 3.20788e-07 0)
(0.0010013 2.23375e-07 0)
(0.00100137 8.46763e-08 0)
(0.00100131 -7.12737e-08 0)
(0.00100115 -2.05578e-07 0)
(0.00100087 -2.96347e-07 0)
(0.00100054 -3.12299e-07 0)
(0.00100017 -2.83113e-07 0)
(0.000999902 -2.04601e-07 0)
(0.000999614 -1.6989e-07 0)
(0.000999519 -1.19034e-07 0)
(0.000999252 -1.98856e-07 0)
(0.001 -4.10173e-09 0)
(0.00100004 -9.58324e-09 0)
(0.00100012 -1.23581e-08 0)
(0.00100024 -1.41368e-08 0)
(0.00100039 -1.6698e-08 0)
(0.00100056 -2.25266e-08 0)
(0.00100075 -3.32423e-08 0)
(0.00100094 -5.29135e-08 0)
(0.00100112 -8.16563e-08 0)
(0.00100124 -1.226e-07 0)
(0.00100128 -1.70785e-07 0)
(0.00100122 -2.31687e-07 0)
(0.00100107 -2.90302e-07 0)
(0.00100081 -3.40973e-07 0)
(0.00100054 -3.59685e-07 0)
(0.00100018 -3.68453e-07 0)
(0.000999946 -3.43147e-07 0)
(0.000999609 -3.53466e-07 0)
(0.000999524 -3.28301e-07 0)
(0.000999135 -4.10873e-07 0)
)
;

boundaryField
{
    sides
    {
        type            slip;
    }
    inlet
    {
        type            fixedValue;
        value           uniform (0.001 0 0);
    }
    outlet
    {
        type            zeroGradient;
    }
    frontAndBack
    {
        type            empty;
    }
}


// ************************************************************************* //
