/*--------------------------------*- C++ -*----------------------------------*\
  =========                 |
  \\      /  F ield         | OpenFOAM: The Open Source CFD Toolbox
   \\    /   O peration     | Website:  https://openfoam.org
    \\  /    A nd           | Version:  9
     \\/     M anipulation  |
\*---------------------------------------------------------------------------*/
FoamFile
{
    format      ascii;
    class       volVectorField;
    location    "60";
    object      hU_0;
}
// * * * * * * * * * * * * * * * * * * * * * * * * * * * * * * * * * * * * * //

dimensions      [0 2 -1 0 0 0 0];

internalField   nonuniform List<vector> 
400
(
(0.001 -2.48524e-08 0)
(0.00100004 -7.15014e-08 0)
(0.00100012 -1.13838e-07 0)
(0.00100024 -1.52488e-07 0)
(0.0010004 -1.87264e-07 0)
(0.00100058 -2.17231e-07 0)
(0.00100078 -2.3816e-07 0)
(0.00100099 -2.46526e-07 0)
(0.00100118 -2.36897e-07 0)
(0.00100133 -2.10937e-07 0)
(0.0010014 -1.67993e-07 0)
(0.0010014 -1.2844e-07 0)
(0.00100129 -9.90615e-08 0)
(0.00100111 -9.31174e-08 0)
(0.00100087 -9.92539e-08 0)
(0.00100065 -1.34845e-07 0)
(0.00100044 -1.55926e-07 0)
(0.00100034 -2.00598e-07 0)
(0.00100026 -1.88056e-07 0)
(0.00100033 -2.681e-07 0)
(0.001 -2.79176e-08 0)
(0.00100005 -8.11497e-08 0)
(0.00100014 -1.30148e-07 0)
(0.00100026 -1.74786e-07 0)
(0.00100042 -2.13522e-07 0)
(0.00100062 -2.41762e-07 0)
(0.00100085 -2.48973e-07 0)
(0.00100108 -2.23302e-07 0)
(0.0010013 -1.55755e-07 0)
(0.00100147 -4.70649e-08 0)
(0.00100156 9.49995e-08 0)
(0.00100154 2.47841e-07 0)
(0.00100141 3.89065e-07 0)
(0.00100119 4.76476e-07 0)
(0.00100093 5.06044e-07 0)
(0.00100067 4.53922e-07 0)
(0.00100048 3.80163e-07 0)
(0.00100037 2.56839e-07 0)
(0.00100033 2.05063e-07 0)
(0.00100029 8.18386e-08 0)
(0.001 -5.38161e-08 0)
(0.00100005 -1.62551e-07 0)
(0.00100013 -2.70139e-07 0)
(0.00100026 -3.74979e-07 0)
(0.00100043 -4.73879e-07 0)
(0.00100065 -5.57649e-07 0)
(0.0010009 -6.07668e-07 0)
(0.00100117 -6.01497e-07 0)
(0.00100143 -5.19246e-07 0)
(0.00100165 -3.50719e-07 0)
(0.00100176 -1.08372e-07 0)
(0.00100176 1.62845e-07 0)
(0.00100159 4.00271e-07 0)
(0.00100131 5.19069e-07 0)
(0.00100095 5.0041e-07 0)
(0.00100062 3.56455e-07 0)
(0.00100037 2.0551e-07 0)
(0.00100026 4.57976e-08 0)
(0.00100022 -3.97417e-09 0)
(0.0010003 -1.16475e-07 0)
(0.001 -7.4759e-08 0)
(0.00100005 -2.27029e-07 0)
(0.00100013 -3.79417e-07 0)
(0.00100026 -5.32019e-07 0)
(0.00100045 -6.80833e-07 0)
(0.00100069 -8.12093e-07 0)
(0.001001 -8.93493e-07 0)
(0.00100135 -8.89814e-07 0)
(0.00100171 -7.57551e-07 0)
(0.00100203 -4.73601e-07 0)
(0.00100222 -2.15745e-08 0)
(0.00100219 4.92174e-07 0)
(0.00100193 9.34023e-07 0)
(0.00100147 1.13683e-06 0)
(0.00100097 1.05449e-06 0)
(0.00100058 7.45592e-07 0)
(0.00100041 4.26442e-07 0)
(0.00100035 1.69284e-07 0)
(0.0010004 1.00727e-07 0)
(0.00100034 1.17012e-09 0)
(0.001 -9.21579e-08 0)
(0.00100004 -2.83324e-07 0)
(0.00100012 -4.82261e-07 0)
(0.00100025 -6.95798e-07 0)
(0.00100045 -9.20711e-07 0)
(0.00100073 -1.14088e-06 0)
(0.0010011 -1.30301e-06 0)
(0.00100156 -1.34185e-06 0)
(0.00100207 -1.17737e-06 0)
(0.00100257 -7.78286e-07 0)
(0.0010029 -1.68749e-07 0)
(0.00100288 5.77165e-07 0)
(0.00100244 1.22692e-06 0)
(0.00100167 1.50765e-06 0)
(0.00100086 1.37359e-06 0)
(0.00100031 9.66061e-07 0)
(0.00100013 5.83247e-07 0)
(0.00100022 3.12155e-07 0)
(0.00100037 2.59364e-07 0)
(0.00100043 1.68298e-07 0)
(0.001 -1.0476e-07 0)
(0.00100003 -3.23951e-07 0)
(0.00100009 -5.67357e-07 0)
(0.0010002 -8.46334e-07 0)
(0.00100038 -1.17243e-06 0)
(0.00100069 -1.52632e-06 0)
(0.00100115 -1.86329e-06 0)
(0.00100179 -2.05883e-06 0)
(0.00100254 -1.91363e-06 0)
(0.00100326 -1.19971e-06 0)
(0.00100377 8.43577e-08 0)
(0.00100378 1.541e-06 0)
(0.0010031 2.42822e-06 0)
(0.00100192 2.3003e-06 0)
(0.00100082 1.42842e-06 0)
(0.00100019 4.93341e-07 0)
(0.00100017 1.42991e-08 0)
(0.00100037 -8.79886e-08 0)
(0.00100064 5.70335e-08 0)
(0.00100055 4.99531e-08 0)
(0.001 -1.0441e-07 0)
(0.001 -3.38531e-07 0)
(0.00100002 -6.06428e-07 0)
(0.00100008 -9.63269e-07 0)
(0.00100021 -1.39205e-06 0)
(0.00100049 -1.94763e-06 0)
(0.001001 -2.49327e-06 0)
(0.00100189 -3.08823e-06 0)
(0.00100321 -3.23565e-06 0)
(0.00100473 -2.87681e-06 0)
(0.00100574 -6.76544e-07 0)
(0.00100536 2.55826e-06 0)
(0.0010035 4.82523e-06 0)
(0.00100113 4.73278e-06 0)
(0.00099961 3.02724e-06 0)
(0.000999373 1.26538e-06 0)
(0.00100001 4.32278e-07 0)
(0.00100056 3.23745e-07 0)
(0.00100093 5.5895e-07 0)
(0.00100066 5.34174e-07 0)
(0.000999995 -9.44747e-08 0)
(0.000999969 -2.92844e-07 0)
(0.000999908 -5.80426e-07 0)
(0.000999877 -9.57834e-07 0)
(0.000999881 -1.57746e-06 0)
(0.0010001 -2.34631e-06 0)
(0.00100051 -3.40593e-06 0)
(0.00100153 -4.12795e-06 0)
(0.00100309 -4.37453e-06 0)
(0.00100601 -2.55268e-06 0)
(0.00100912 7.59778e-07 0)
(0.00100916 4.25934e-06 0)
(0.0010055 4.71405e-06 0)
(0.00100074 2.77936e-06 0)
(0.000998151 7.34527e-07 0)
(0.000998275 -2.73063e-07 0)
(0.0009998 -2.84379e-07 0)
(0.00100088 -1.12444e-08 0)
(0.00100133 2.10334e-07 0)
(0.00100085 1.03226e-07 0)
(0.000999995 -5.07006e-08 0)
(0.000999916 -2.0646e-07 0)
(0.000999757 -3.88665e-07 0)
(0.000999532 -7.35822e-07 0)
(0.00099929 -1.3388e-06 0)
(0.000999214 -2.48244e-06 0)
(0.00099971 -4.68962e-06 0)
(0.0010014 -8.07006e-06 0)
(0.00100491 -1.32862e-05 0)
(0.00100959 -1.49155e-05 0)
(0.00101188 3.84717e-06 0)
(0.00100892 1.87215e-05 0)
(0.00100222 1.5777e-05 0)
(0.00099757 5.73932e-06 0)
(0.000996887 -3.1654e-07 0)
(0.000998462 -1.26212e-06 0)
(0.00100027 -9.22898e-08 0)
(0.00100101 6.3493e-07 0)
(0.00100107 6.52184e-07 0)
(0.00100054 2.44833e-07 0)
(0.000999804 -2.03575e-08 0)
(0.00100017 -6.75922e-08 0)
(0.000999216 -1.52162e-07 0)
(0.000999905 -2.49203e-07 0)
(0.000997523 -5.92534e-07 0)
(0.000998847 -1.13157e-06 0)
(0.00099335 -2.88381e-06 0)
(0.000997534 -5.59213e-06 0)
(0.000991669 -1.15416e-05 0)
(0.000915837 -1.27034e-05 0)
(0.000951466 2.65134e-07 0)
(0.00101023 1.46416e-05 0)
(0.000990956 1.30834e-05 0)
(0.000983976 5.13907e-06 0)
(0.000989587 1.9347e-07 0)
(0.000996282 -7.81141e-07 0)
(0.000999239 -1.10015e-07 0)
(0.000999414 2.49631e-07 0)
(0.000998649 1.76092e-07 0)
(0.000998506 -1.83466e-07 0)
(0.000999804 1.35639e-08 0)
(0.00100017 4.67214e-08 0)
(0.000999216 1.18006e-07 0)
(0.000999903 1.99942e-07 0)
(0.000997521 5.29213e-07 0)
(0.000998842 1.05198e-06 0)
(0.000993343 2.78777e-06 0)
(0.000997522 5.47498e-06 0)
(0.000991653 1.13983e-05 0)
(0.000915809 1.25476e-05 0)
(0.000951432 -4.74021e-07 0)
(0.00101021 -1.4911e-05 0)
(0.000990951 -1.34106e-05 0)
(0.00098397 -5.53714e-06 0)
(0.000989569 -6.49822e-07 0)
(0.000996245 2.47235e-07 0)
(0.000999198 -4.72334e-07 0)
(0.000999369 -1.00093e-06 0)
(0.000998634 -9.86213e-07 0)
(0.000998456 -8.87422e-07 0)
(0.000999995 4.39569e-08 0)
(0.000999916 1.86174e-07 0)
(0.000999756 3.5519e-07 0)
(0.000999531 6.87902e-07 0)
(0.000999287 1.27674e-06 0)
(0.000999213 2.40286e-06 0)
(0.000999706 4.59189e-06 0)
(0.00100139 7.94509e-06 0)
(0.0010049 1.31333e-05 0)
(0.00100958 1.47201e-05 0)
(0.00101189 -4.06244e-06 0)
(0.0010089 -1.90007e-05 0)
(0.00100215 -1.60945e-05 0)
(0.000997481 -6.12328e-06 0)
(0.000996817 -8.63828e-08 0)
(0.000998403 7.7258e-07 0)
(0.00100017 -4.28494e-07 0)
(0.00100085 -1.30374e-06 0)
(0.00100088 -1.37657e-06 0)
(0.00100037 -1.24966e-06 0)
(0.000999996 8.79758e-08 0)
(0.000999968 2.73559e-07 0)
(0.000999906 5.47701e-07 0)
(0.000999872 9.11203e-07 0)
(0.000999872 1.51402e-06 0)
(0.00100008 2.26344e-06 0)
(0.00100048 3.29776e-06 0)
(0.00100149 3.99499e-06 0)
(0.00100304 4.21307e-06 0)
(0.00100594 2.367e-06 0)
(0.00100903 -9.75905e-07 0)
(0.00100906 -4.53385e-06 0)
(0.00100543 -5.01702e-06 0)
(0.00100067 -3.12888e-06 0)
(0.000998059 -1.13308e-06 0)
(0.000998136 -2.54922e-07 0)
(0.000999625 -3.24596e-07 0)
(0.00100064 -7.39347e-07 0)
(0.00100106 -9.63497e-07 0)
(0.00100055 -1.07279e-06 0)
(0.001 9.83999e-08 0)
(0.001 3.20133e-07 0)
(0.00100002 5.75415e-07 0)
(0.00100007 9.18526e-07 0)
(0.0010002 1.33358e-06 0)
(0.00100047 1.87282e-06 0)
(0.00100097 2.40347e-06 0)
(0.00100186 2.98022e-06 0)
(0.00100318 3.11436e-06 0)
(0.00100469 2.73117e-06 0)
(0.00100568 5.07327e-07 0)
(0.00100527 -2.75475e-06 0)
(0.00100339 -5.0748e-06 0)
(0.00100097 -5.06864e-06 0)
(0.000999411 -3.45018e-06 0)
(0.000999124 -1.79693e-06 0)
(0.000999747 -1.02244e-06 0)
(0.00100026 -1.05599e-06 0)
(0.00100062 -1.30227e-06 0)
(0.00100024 -1.51415e-06 0)
(0.001 9.94847e-08 0)
(0.00100003 3.07638e-07 0)
(0.00100008 5.39944e-07 0)
(0.00100019 8.06617e-07 0)
(0.00100037 1.12073e-06 0)
(0.00100066 1.46083e-06 0)
(0.00100112 1.78334e-06 0)
(0.00100174 1.95723e-06 0)
(0.00100248 1.78636e-06 0)
(0.00100318 1.03482e-06 0)
(0.00100366 -2.82473e-07 0)
(0.00100364 -1.78106e-06 0)
(0.00100292 -2.70718e-06 0)
(0.00100171 -2.62905e-06 0)
(0.00100058 -1.77892e-06 0)
(0.000999907 -8.97538e-07 0)
(0.000999861 -4.28206e-07 0)
(0.000999984 -4.44327e-07 0)
(0.00100022 -6.10951e-07 0)
(0.00100001 -8.47003e-07 0)
(0.001 8.7469e-08 0)
(0.00100004 2.69177e-07 0)
(0.00100011 4.58808e-07 0)
(0.00100024 6.62437e-07 0)
(0.00100043 8.76477e-07 0)
(0.0010007 1.08544e-06 0)
(0.00100106 1.23487e-06 0)
(0.0010015 1.25925e-06 0)
(0.001002 1.07769e-06 0)
(0.00100249 6.57406e-07 0)
(0.0010028 1.73633e-08 0)
(0.00100275 -7.69163e-07 0)
(0.00100228 -1.44647e-06 0)
(0.00100146 -1.77124e-06 0)
(0.00100063 -1.66752e-06 0)
(0.00100001 -1.34997e-06 0)
(0.000999796 -1.03022e-06 0)
(0.000999768 -9.33391e-07 0)
(0.000999886 -9.4031e-07 0)
(0.000999767 -1.1072e-06 0)
(0.001 7.05519e-08 0)
(0.00100004 2.14016e-07 0)
(0.00100013 3.58062e-07 0)
(0.00100025 5.02474e-07 0)
(0.00100043 6.43261e-07 0)
(0.00100067 7.66636e-07 0)
(0.00100096 8.41825e-07 0)
(0.00100129 8.31322e-07 0)
(0.00100163 6.9479e-07 0)
(0.00100191 4.06778e-07 0)
(0.00100206 -4.74248e-08 0)
(0.001002 -5.74947e-07 0)
(0.00100171 -1.03257e-06 0)
(0.0010012 -1.27885e-06 0)
(0.00100065 -1.22951e-06 0)
(0.00100017 -9.96249e-07 0)
(0.000999917 -7.0306e-07 0)
(0.000999742 -5.54467e-07 0)
(0.000999753 -4.84113e-07 0)
(0.00099956 -5.97909e-07 0)
(0.001 5.16942e-08 0)
(0.00100004 1.53077e-07 0)
(0.00100013 2.49443e-07 0)
(0.00100025 3.39643e-07 0)
(0.00100041 4.21545e-07 0)
(0.00100062 4.84603e-07 0)
(0.00100086 5.12274e-07 0)
(0.00100112 4.77477e-07 0)
(0.00100137 3.63734e-07 0)
(0.00100157 1.55567e-07 0)
(0.00100167 -1.17758e-07 0)
(0.00100161 -4.20765e-07 0)
(0.0010014 -6.79739e-07 0)
(0.00100104 -8.41008e-07 0)
(0.00100064 -8.50766e-07 0)
(0.00100022 -7.72854e-07 0)
(0.000999952 -6.3973e-07 0)
(0.00099969 -5.96519e-07 0)
(0.000999629 -5.60799e-07 0)
(0.000999388 -6.85184e-07 0)
(0.001 3.55385e-08 0)
(0.00100004 1.06527e-07 0)
(0.00100012 1.75758e-07 0)
(0.00100023 2.422e-07 0)
(0.00100038 3.02657e-07 0)
(0.00100056 3.5115e-07 0)
(0.00100077 3.77909e-07 0)
(0.00100098 3.71483e-07 0)
(0.00100117 3.21034e-07 0)
(0.0010013 2.23537e-07 0)
(0.00100136 8.48484e-08 0)
(0.00100131 -7.11156e-08 0)
(0.00100115 -2.05757e-07 0)
(0.00100087 -2.96961e-07 0)
(0.00100054 -3.13063e-07 0)
(0.00100017 -2.83731e-07 0)
(0.000999901 -2.04706e-07 0)
(0.000999613 -1.69657e-07 0)
(0.000999519 -1.19178e-07 0)
(0.000999252 -1.9911e-07 0)
(0.001 -3.80512e-09 0)
(0.00100004 -9.45009e-09 0)
(0.00100012 -1.26412e-08 0)
(0.00100024 -1.45489e-08 0)
(0.00100039 -1.67868e-08 0)
(0.00100056 -2.22913e-08 0)
(0.00100075 -3.29225e-08 0)
(0.00100094 -5.26231e-08 0)
(0.00100112 -8.14254e-08 0)
(0.00100123 -1.22426e-07 0)
(0.00100128 -1.7056e-07 0)
(0.00100122 -2.31516e-07 0)
(0.00100107 -2.90388e-07 0)
(0.00100081 -3.41249e-07 0)
(0.00100054 -3.6002e-07 0)
(0.00100018 -3.68741e-07 0)
(0.000999946 -3.43213e-07 0)
(0.000999609 -3.53324e-07 0)
(0.000999524 -3.28252e-07 0)
(0.000999135 -4.10923e-07 0)
)
;

boundaryField
{
    sides
    {
        type            slip;
    }
    inlet
    {
        type            fixedValue;
        value           uniform (0.001 0 0);
    }
    outlet
    {
        type            zeroGradient;
    }
    frontAndBack
    {
        type            empty;
    }
}


// ************************************************************************* //
