/*--------------------------------*- C++ -*----------------------------------*\
  =========                 |
  \\      /  F ield         | OpenFOAM: The Open Source CFD Toolbox
   \\    /   O peration     | Website:  https://openfoam.org
    \\  /    A nd           | Version:  9
     \\/     M anipulation  |
\*---------------------------------------------------------------------------*/
FoamFile
{
    format      ascii;
    class       surfaceScalarField;
    location    "60";
    object      phi;
}
// * * * * * * * * * * * * * * * * * * * * * * * * * * * * * * * * * * * * * //

dimensions      [0 4 -1 0 0 0 0];

internalField   nonuniform List<scalar> 
760
(
5.0001e-06
-9.49549e-11
5.00041e-06
-3.13088e-10
5.00093e-06
-5.21198e-10
5.00163e-06
-7.10547e-10
5.0025e-06
-8.76488e-10
5.0035e-06
-1.00816e-09
5.00456e-06
-1.06902e-09
5.00558e-06
-1.02168e-09
5.00641e-06
-8.33661e-10
5.00693e-06
-5.20007e-10
5.00705e-06
-1.18416e-10
5.00666e-06
3.98965e-10
5.00581e-06
8.53698e-10
5.00471e-06
1.10182e-09
5.00354e-06
1.17406e-09
5.00258e-06
9.59525e-10
5.00186e-06
7.22792e-10
5.00162e-06
2.45962e-10
5.00152e-06
1.05165e-10
-3.90609e-10
5.00013e-06
-2.16464e-10
5.00046e-06
-6.47371e-10
5.001e-06
-1.06201e-09
5.00174e-06
-1.45268e-09
5.00266e-06
-1.80943e-09
5.00375e-06
-2.10302e-09
5.00494e-06
-2.2617e-09
5.00612e-06
-2.20608e-09
5.00714e-06
-1.85606e-09
5.00778e-06
-1.16345e-09
5.00775e-06
-8.59115e-11
5.00726e-06
8.90592e-10
5.00628e-06
1.83777e-09
5.00497e-06
2.40952e-09
5.00369e-06
2.4465e-09
5.00278e-06
1.8671e-09
5.00225e-06
1.25528e-09
5.00192e-06
5.81102e-10
5.00166e-06
3.65027e-10
-1.45194e-10
5.00011e-06
-3.25486e-10
5.00044e-06
-9.73049e-10
5.00097e-06
-1.59983e-09
5.00174e-06
-2.21713e-09
5.00273e-06
-2.80999e-09
5.00395e-06
-3.32494e-09
5.00533e-06
-3.64167e-09
5.00674e-06
-3.61028e-09
5.00794e-06
-3.0686e-09
5.00873e-06
-1.95466e-09
5.00894e-06
-3.00889e-10
5.00826e-06
1.56831e-09
5.00688e-06
3.21393e-09
5.00517e-06
4.11804e-09
5.00352e-06
4.08837e-09
5.00232e-06
3.06602e-09
5.00167e-06
1.90312e-09
5.00148e-06
7.66386e-10
5.00145e-06
3.87219e-10
-2.21106e-10
5.0001e-06
-4.26155e-10
5.00041e-06
-1.28743e-09
5.00096e-06
-2.14014e-09
5.00176e-06
-3.02114e-09
5.00286e-06
-3.91385e-09
5.0043e-06
-4.75456e-09
5.00603e-06
-5.36935e-09
5.00796e-06
-5.55158e-09
5.00985e-06
-4.96171e-09
5.01108e-06
-3.19479e-09
5.01121e-06
-4.17788e-10
5.01e-06
2.76416e-09
5.00766e-06
5.55183e-09
5.00516e-06
6.61796e-09
5.00349e-06
5.75226e-09
5.00271e-06
3.83476e-09
5.00249e-06
2.12159e-09
5.00232e-06
9.31621e-10
5.002e-06
6.9755e-10
3.39404e-10
5.00008e-06
-5.09628e-10
5.00034e-06
-1.54881e-09
5.00084e-06
-2.6356e-09
5.00165e-06
-3.82258e-09
5.00287e-06
-5.13246e-09
5.00459e-06
-6.46871e-09
5.00681e-06
-7.59357e-09
5.00943e-06
-8.17448e-09
5.0124e-06
-7.93075e-09
5.0148e-06
-5.59394e-09
5.01483e-06
-4.73338e-10
5.01286e-06
4.75114e-09
5.00868e-06
9.71913e-09
5.00461e-06
1.06899e-08
5.00225e-06
8.10912e-09
5.00175e-06
4.32989e-09
5.00205e-06
1.81602e-09
5.00226e-06
7.14668e-10
5.00202e-06
9.356e-10
6.27041e-10
5.00004e-06
-5.53706e-10
5.0002e-06
-1.70468e-09
5.00055e-06
-2.97383e-09
5.00122e-06
-4.49295e-09
5.00242e-06
-6.33061e-09
5.00454e-06
-8.58085e-09
5.00761e-06
-1.06724e-08
5.01169e-06
-1.22381e-08
5.01553e-06
-1.17946e-08
5.01903e-06
-9.05312e-09
5.02022e-06
-1.70675e-09
5.01602e-06
8.93789e-09
5.00952e-06
1.62445e-08
5.00422e-06
1.59832e-08
5.00218e-06
1.01496e-08
5.00251e-06
4.00582e-09
5.00328e-06
1.03986e-09
5.0034e-06
5.89461e-10
5.0028e-06
1.53311e-09
1.42313e-09
4.99998e-06
-5.35449e-10
4.99994e-06
-1.65916e-09
5.00004e-06
-3.06134e-09
5.00037e-06
-4.82096e-09
5.00123e-06
-7.19196e-09
5.00294e-06
-1.02821e-08
5.00682e-06
-1.4549e-08
5.01394e-06
-1.93575e-08
5.02378e-06
-2.16033e-08
5.0309e-06
-1.62567e-08
5.0288e-06
6.04779e-10
5.01676e-06
2.08955e-08
5.00419e-06
2.87907e-08
4.99874e-06
2.14453e-08
5.00058e-06
8.31061e-09
5.00286e-06
1.73468e-09
5.00373e-06
1.7186e-10
5.00367e-06
6.47176e-10
5.00306e-06
2.1545e-09
1.68424e-09
4.99987e-06
-3.99845e-10
4.99956e-06
-1.33874e-09
4.99913e-06
-2.62814e-09
4.99886e-06
-4.55011e-09
4.99934e-06
-7.6681e-09
5.00038e-06
-1.13097e-08
5.00366e-06
-1.7835e-08
5.00984e-06
-2.55201e-08
5.02492e-06
-3.66843e-08
5.05604e-06
-4.75047e-08
5.05011e-06
6.44921e-09
5.02323e-06
4.78635e-08
4.99819e-06
5.37904e-08
4.9935e-06
2.612e-08
4.99947e-06
2.33703e-09
5.00408e-06
-2.87381e-09
5.00492e-06
-6.62592e-10
5.00373e-06
1.83497e-09
5.00352e-06
2.37956e-09
9.7517e-10
4.99977e-06
-1.6368e-10
4.99916e-06
-7.14701e-10
4.99792e-06
-1.38887e-09
4.99612e-06
-2.73784e-09
4.99403e-06
-5.57855e-09
4.99376e-06
-1.10287e-08
4.99947e-06
-2.35371e-08
5.01715e-06
-4.32021e-08
5.05569e-06
-7.52217e-08
5.06694e-06
-5.86229e-08
5.0497e-06
2.37556e-08
4.99648e-06
1.00975e-07
4.98932e-06
6.09872e-08
4.99592e-06
1.95266e-08
5.0002e-06
-1.94291e-09
5.00294e-06
-5.61343e-09
5.00253e-06
-2.56343e-10
5.00185e-06
2.52173e-09
5.00255e-06
1.68315e-09
8.49785e-11
4.99986e-06
-1.65655e-11
4.99921e-06
-5.22329e-11
4.99791e-06
-8.78156e-11
4.99531e-06
-1.29925e-10
4.98991e-06
-1.68726e-10
4.97911e-06
-2.16482e-10
4.95584e-06
-2.65645e-10
4.91297e-06
-3.26913e-10
4.83813e-06
-4.15327e-10
4.78003e-06
-4.46548e-10
4.80426e-06
-6.33372e-10
4.90606e-06
-7.39801e-10
4.96781e-06
-7.49308e-10
4.98824e-06
-9.13404e-10
4.98746e-06
-1.17147e-09
4.98327e-06
-1.43159e-09
4.98457e-06
-1.55893e-09
4.98891e-06
-1.82447e-09
4.99248e-06
-1.88718e-09
-2.57814e-09
4.99986e-06
1.30164e-10
4.99921e-06
6.09155e-10
4.99791e-06
1.21812e-09
4.9953e-06
2.48527e-09
4.98989e-06
5.25089e-09
4.97907e-06
1.06061e-08
4.95579e-06
2.30203e-08
4.9129e-06
4.25523e-08
4.83804e-06
7.44632e-08
4.77975e-06
5.78285e-08
4.80425e-06
-2.51753e-08
4.90603e-06
-1.02461e-07
4.96779e-06
-6.25286e-08
4.98808e-06
-2.12065e-08
4.98737e-06
-4.61029e-10
4.98294e-06
2.98766e-09
4.98444e-06
-3.05701e-09
4.9889e-06
-6.28115e-09
4.99236e-06
-5.34694e-09
-4.97779e-09
4.99977e-06
3.65457e-10
4.99915e-06
1.23694e-09
4.99792e-06
2.45695e-09
4.99611e-06
4.30332e-09
4.99403e-06
7.33528e-09
4.99375e-06
1.08922e-08
4.99945e-06
1.73281e-08
5.01709e-06
2.49072e-08
5.05561e-06
3.59319e-08
5.06712e-06
4.64257e-08
5.04953e-06
-7.03733e-09
4.99612e-06
-4.90872e-08
4.98887e-06
-5.52348e-08
4.99571e-06
-2.8035e-08
5.00012e-06
-4.87161e-09
5.00232e-06
7.7954e-10
5.00167e-06
-2.40084e-09
5.00092e-06
-5.52851e-09
5.00169e-06
-6.12325e-09
-5.94594e-09
4.99987e-06
5.02516e-10
4.99955e-06
1.56127e-09
4.99912e-06
2.89808e-09
4.99884e-06
4.58731e-09
4.99929e-06
6.88904e-09
5.00028e-06
9.89865e-09
5.00349e-06
1.41221e-08
5.00962e-06
1.87904e-08
5.02463e-06
2.09306e-08
5.05555e-06
1.54028e-08
5.04975e-06
-1.6724e-09
5.02284e-06
-2.21565e-08
4.99788e-06
-3.02992e-08
4.99317e-06
-2.33275e-08
4.99865e-06
-1.03494e-08
5.00346e-06
-4.03405e-09
5.00374e-06
-2.68096e-09
5.00237e-06
-4.15333e-09
5.00217e-06
-5.92626e-09
-6.52974e-09
4.99998e-06
5.2489e-10
4.99993e-06
1.61548e-09
5.00001e-06
2.82492e-09
5.00032e-06
4.28306e-09
5.00114e-06
6.06206e-09
5.00281e-06
8.23779e-09
5.00669e-06
1.024e-08
5.0138e-06
1.16941e-08
5.02359e-06
1.11396e-08
5.03073e-06
8.27374e-09
5.02842e-06
6.24051e-10
5.01626e-06
-1.00362e-08
5.00351e-06
-1.75464e-08
4.99778e-06
-1.76002e-08
4.99942e-06
-1.19871e-08
5.00162e-06
-6.23053e-09
5.00242e-06
-3.47531e-09
5.00214e-06
-3.87784e-09
5.0012e-06
-4.98491e-09
-5.96999e-09
5.00004e-06
4.85279e-10
5.00018e-06
1.47255e-09
5.00051e-06
2.50612e-09
5.00116e-06
3.63558e-09
5.00233e-06
4.88964e-09
5.0044e-06
6.16327e-09
5.00743e-06
7.22132e-09
5.01141e-06
7.71959e-09
5.01515e-06
7.40783e-09
5.01855e-06
4.87946e-09
5.01957e-06
-4.15937e-10
5.01524e-06
-5.70301e-09
5.00855e-06
-1.08586e-08
5.00312e-06
-1.21659e-08
5.00089e-06
-9.75311e-09
5.00102e-06
-6.36148e-09
5.00156e-06
-4.01961e-09
5.00132e-06
-3.6385e-09
5.00036e-06
-4.02023e-09
-4.96916e-09
5.00008e-06
4.04102e-10
5.00033e-06
1.22432e-09
5.0008e-06
2.03588e-09
5.00158e-06
2.86462e-09
5.00276e-06
3.70729e-09
5.00442e-06
4.50338e-09
5.00657e-06
5.07301e-09
5.00911e-06
5.18317e-09
5.01204e-06
4.4717e-09
5.01442e-06
2.51166e-09
5.01416e-06
-1.4719e-10
5.01209e-06
-3.63778e-09
5.00776e-06
-6.52537e-09
5.0035e-06
-7.9011e-09
5.00094e-06
-7.19116e-09
5.00014e-06
-5.56303e-09
5.00012e-06
-3.99453e-09
4.99988e-06
-3.41214e-09
4.99918e-06
-3.32033e-09
-4.16614e-09
5.0001e-06
3.02482e-10
5.0004e-06
9.20545e-10
5.00091e-06
1.52177e-09
5.00168e-06
2.10076e-09
5.00275e-06
2.6491e-09
5.00413e-06
3.11877e-09
5.0058e-06
3.40193e-09
5.00764e-06
3.33483e-09
5.00934e-06
2.76912e-09
5.01028e-06
1.57271e-09
5.01044e-06
-3.07887e-10
5.00904e-06
-2.23455e-09
5.00651e-06
-4.00057e-09
5.00369e-06
-5.07133e-09
5.00156e-06
-5.05912e-09
5.00036e-06
-4.36353e-09
4.99972e-06
-3.35373e-09
4.99918e-06
-2.88286e-09
4.99846e-06
-2.61328e-09
-3.21357e-09
5.00011e-06
1.98181e-10
5.00042e-06
6.04483e-10
5.00093e-06
9.99119e-10
5.00167e-06
1.36848e-09
5.00263e-06
1.69913e-09
5.00379e-06
1.95687e-09
5.0051e-06
2.07969e-09
5.00646e-06
1.9701e-09
5.00766e-06
1.56326e-09
5.0084e-06
8.27055e-10
5.00822e-06
-1.35304e-10
5.00734e-06
-1.35856e-09
5.00571e-06
-2.36909e-09
5.0037e-06
-3.05693e-09
5.00181e-06
-3.1682e-09
5.00035e-06
-2.904e-09
4.99932e-06
-2.33291e-09
4.99853e-06
-2.09493e-09
4.99773e-06
-1.83034e-09
-2.28018e-09
5.00009e-06
1.13694e-10
5.00038e-06
3.08581e-10
5.00088e-06
5.00042e-10
5.00156e-06
6.81203e-10
5.00242e-06
8.38179e-10
5.00342e-06
9.53394e-10
5.00449e-06
1.00094e-09
5.00552e-06
9.40003e-10
5.00634e-06
7.3672e-10
5.00681e-06
3.57167e-10
5.00682e-06
-1.46151e-10
5.00608e-06
-6.30774e-10
5.0048e-06
-1.0889e-09
5.00317e-06
-1.42422e-09
5.0015e-06
-1.49894e-09
5.00003e-06
-1.43972e-09
4.99888e-06
-1.19122e-09
4.99793e-06
-1.13794e-09
4.99708e-06
-9.7877e-10
-1.42769e-09
5.00012e-06
5.00043e-06
5.00093e-06
5.0016e-06
5.00242e-06
5.00337e-06
5.00437e-06
5.00531e-06
5.00605e-06
5.00641e-06
5.00626e-06
5.00563e-06
5.00454e-06
5.00312e-06
5.00162e-06
5.00017e-06
4.99898e-06
4.99785e-06
4.99689e-06
)
;

boundaryField
{
    sides
    {
        type            calculated;
        value           uniform 0;
    }
    inlet
    {
        type            calculated;
        value           nonuniform List<scalar> 
20
(
-5e-06
-5e-06
-5e-06
-5e-06
-5e-06
-5e-06
-5e-06
-5e-06
-5e-06
-5e-06
-5e-06
-5e-06
-5e-06
-5e-06
-5e-06
-5e-06
-5e-06
-5e-06
-5e-06
-5e-06
)
;
    }
    outlet
    {
        type            calculated;
        value           nonuniform List<scalar> 
20
(
5.00191e-06
5.00141e-06
5.00152e-06
5.00143e-06
5.00173e-06
5.00201e-06
5.0028e-06
5.00423e-06
5.00345e-06
4.99515e-06
4.99476e-06
5.00266e-06
5.00275e-06
5.00064e-06
4.99936e-06
4.99837e-06
4.9975e-06
4.99679e-06
4.99622e-06
4.99546e-06
)
;
    }
    frontAndBack
    {
        type            empty;
        value           nonuniform List<scalar> 0();
    }
}


// ************************************************************************* //
