/*--------------------------------*- C++ -*----------------------------------*\
  =========                 |
  \\      /  F ield         | OpenFOAM: The Open Source CFD Toolbox
   \\    /   O peration     | Website:  https://openfoam.org
    \\  /    A nd           | Version:  9
     \\/     M anipulation  |
\*---------------------------------------------------------------------------*/
FoamFile
{
    format      ascii;
    class       volVectorField;
    location    "60";
    object      U;
}
// * * * * * * * * * * * * * * * * * * * * * * * * * * * * * * * * * * * * * //

dimensions      [0 1 -1 0 0 0 0];

internalField   nonuniform List<vector> 
400
(
(0.0999963 -2.46331e-06 0)
(0.100001 -7.14759e-06 0)
(0.10001 -1.14136e-05 0)
(0.100023 -1.52793e-05 0)
(0.10004 -1.87355e-05 0)
(0.100061 -2.1724e-05 0)
(0.100083 -2.38072e-05 0)
(0.100107 -2.46429e-05 0)
(0.100128 -2.36708e-05 0)
(0.100144 -2.10809e-05 0)
(0.100152 -1.67604e-05 0)
(0.100152 -1.28201e-05 0)
(0.10014 -9.89324e-06 0)
(0.10012 -9.30984e-06 0)
(0.100093 -9.93706e-06 0)
(0.100068 -1.34827e-05 0)
(0.100045 -1.55704e-05 0)
(0.100034 -2.00418e-05 0)
(0.100025 -1.88163e-05 0)
(0.100033 -2.68154e-05 0)
(0.0999968 -2.73174e-06 0)
(0.100002 -8.10799e-06 0)
(0.100012 -1.30827e-05 0)
(0.100026 -1.75456e-05 0)
(0.100044 -2.1378e-05 0)
(0.100066 -2.41762e-05 0)
(0.100091 -2.48609e-05 0)
(0.100117 -2.22953e-05 0)
(0.100141 -1.55332e-05 0)
(0.100161 -4.67268e-06 0)
(0.100171 9.54932e-06 0)
(0.100168 2.48534e-05 0)
(0.100154 3.89317e-05 0)
(0.100129 4.7641e-05 0)
(0.1001 5.05757e-05 0)
(0.100071 4.53875e-05 0)
(0.100051 3.80757e-05 0)
(0.100037 2.57601e-05 0)
(0.100033 2.0507e-05 0)
(0.100029 8.16276e-06 0)
(0.0999967 -5.31209e-06 0)
(0.100002 -1.62484e-05 0)
(0.100011 -2.70873e-05 0)
(0.100025 -3.75744e-05 0)
(0.100044 -4.74297e-05 0)
(0.100068 -5.57429e-05 0)
(0.100096 -6.07151e-05 0)
(0.100127 -6.01087e-05 0)
(0.100156 -5.19304e-05 0)
(0.10018 -3.50426e-05 0)
(0.100193 -1.08213e-05 0)
(0.100192 1.63395e-05 0)
(0.100174 4.00611e-05 0)
(0.100142 5.18636e-05 0)
(0.100102 4.99864e-05 0)
(0.100066 3.56277e-05 0)
(0.100038 2.0613e-05 0)
(0.100026 4.66967e-06 0)
(0.100021 -3.84735e-07 0)
(0.100029 -1.16729e-05 0)
(0.0999961 -7.43156e-06 0)
(0.100001 -2.27028e-05 0)
(0.10001 -3.8002e-05 0)
(0.100025 -5.3278e-05 0)
(0.100046 -6.8116e-05 0)
(0.100073 -8.1166e-05 0)
(0.100107 -8.93031e-05 0)
(0.100146 -8.90026e-05 0)
(0.100186 -7.57886e-05 0)
(0.100222 -4.74201e-05 0)
(0.100243 -2.0703e-06 0)
(0.10024 4.92406e-05 0)
(0.100211 9.344e-05 0)
(0.100159 0.000113674 0)
(0.100104 0.000105385 0)
(0.100061 7.4527e-05 0)
(0.100042 4.26963e-05 0)
(0.100035 1.6993e-05 0)
(0.10004 1.00421e-05 0)
(0.100035 7.57048e-08 0)
(0.0999951 -9.20441e-06 0)
(0.0999993 -2.83392e-05 0)
(0.100008 -4.82728e-05 0)
(0.100023 -6.9639e-05 0)
(0.100045 -9.20808e-05 0)
(0.100076 -0.000114041 0)
(0.100117 -0.000130291 0)
(0.100168 -0.000134255 0)
(0.100225 -0.000117793 0)
(0.100281 -7.79106e-05 0)
(0.100318 -1.68771e-05 0)
(0.100316 5.78613e-05 0)
(0.100267 0.000122717 0)
(0.100182 0.000150777 0)
(0.100091 0.000137337 0)
(0.100029 9.65778e-05 0)
(0.10001 5.83561e-05 0)
(0.100019 3.12562e-05 0)
(0.100036 2.5888e-05 0)
(0.100043 1.67809e-05 0)
(0.0999937 -1.0485e-05 0)
(0.0999967 -3.24055e-05 0)
(0.100003 -5.67754e-05 0)
(0.100015 -8.46813e-05 0)
(0.100036 -0.000117243 0)
(0.10007 -0.000152596 0)
(0.100122 -0.000186343 0)
(0.100193 -0.000205926 0)
(0.100277 -0.000191526 0)
(0.100357 -0.00011989 0)
(0.100414 8.04514e-06 0)
(0.100415 0.000154166 0)
(0.100339 0.000242983 0)
(0.100208 0.000230023 0)
(0.100085 0.000142807 0)
(0.100015 4.93185e-05 0)
(0.100013 1.45504e-06 0)
(0.100035 -8.76687e-06 0)
(0.100065 5.67437e-06 0)
(0.100055 4.96308e-06 0)
(0.0999921 -1.04553e-05 0)
(0.0999926 -3.38604e-05 0)
(0.0999948 -6.06793e-05 0)
(0.100001 -9.63763e-05 0)
(0.100016 -0.00013921 0)
(0.100046 -0.000194732 0)
(0.100103 -0.000249307 0)
(0.100202 -0.000308874 0)
(0.10035 -0.000323658 0)
(0.100519 -0.000287926 0)
(0.100632 -6.7828e-05 0)
(0.100591 0.000255464 0)
(0.100383 0.000482742 0)
(0.100118 0.000473331 0)
(0.0999479 0.000302638 0)
(0.099922 0.000126494 0)
(0.0999928 4.3252e-05 0)
(0.100056 3.24175e-05 0)
(0.100095 5.58855e-05 0)
(0.100067 5.33991e-05 0)
(0.0999902 -9.45633e-06 0)
(0.0999872 -2.92868e-05 0)
(0.0999806 -5.8078e-05 0)
(0.0999769 -9.58332e-05 0)
(0.0999774 -0.000157745 0)
(0.100001 -0.000234583 0)
(0.100047 -0.00034053 0)
(0.10016 -0.000412815 0)
(0.100335 -0.000437586 0)
(0.100658 -0.000255417 0)
(0.101006 7.66503e-05 0)
(0.101015 0.000427005 0)
(0.100606 0.00047167 0)
(0.100072 0.0002779 0)
(0.099782 7.33779e-05 0)
(0.0997969 -2.73405e-05 0)
(0.0999673 -2.84236e-05 0)
(0.100089 -1.09354e-06 0)
(0.100138 2.10367e-05 0)
(0.100087 1.03211e-05 0)
(0.0999892 -5.07144e-06 0)
(0.0999804 -2.06484e-05 0)
(0.0999628 -3.89031e-05 0)
(0.0999377 -7.36236e-05 0)
(0.0999106 -0.000133862 0)
(0.099902 -0.000248165 0)
(0.099957 -0.000468851 0)
(0.100145 -0.000807025 0)
(0.100537 -0.00132925 0)
(0.101063 -0.00149312 0)
(0.101323 0.00038577 0)
(0.100996 0.00187466 0)
(0.100241 0.00157797 0)
(0.0997203 0.000573657 0)
(0.0996446 -3.16972e-05 0)
(0.099822 -0.000126233 0)
(0.100024 -9.25397e-06 0)
(0.100107 6.3502e-05 0)
(0.100113 6.52195e-05 0)
(0.100056 2.4477e-05 0)
(0.09997 -2.03534e-06 0)
(0.100006 -6.76346e-06 0)
(0.0999076 -1.52451e-05 0)
(0.0999716 -2.49459e-05 0)
(0.0997258 -5.92337e-05 0)
(0.0998442 -0.000113092 0)
(0.0992768 -0.000288195 0)
(0.0996753 -0.00055879 0)
(0.0991182 -0.0011536 0)
(0.102004 -0.00141506 0)
(0.106281 2.96343e-05 0)
(0.101267 0.00146712 0)
(0.099008 0.00130719 0)
(0.0982227 0.000512986 0)
(0.0988554 1.9293e-05 0)
(0.0996052 -7.81389e-05 0)
(0.0999353 -1.1056e-05 0)
(0.0999524 2.49297e-05 0)
(0.0998671 1.75908e-05 0)
(0.0998491 -1.83509e-05 0)
(0.0999707 1.3539e-06 0)
(0.100006 4.66928e-06 0)
(0.0999082 1.17985e-05 0)
(0.0999721 1.99903e-05 0)
(0.0997262 5.29127e-05 0)
(0.0998443 0.000105145 0)
(0.0992766 0.000278583 0)
(0.0996746 0.000547057 0)
(0.099117 0.00113917 0)
(0.102001 0.00139757 0)
(0.106277 -5.34832e-05 0)
(0.101266 -0.00149465 0)
(0.0990083 -0.0013399 0)
(0.0982225 -0.00055277 0)
(0.098854 -6.49286e-05 0)
(0.0996016 2.46977e-05 0)
(0.0999312 -4.72785e-05 0)
(0.0999481 -0.00010015 0)
(0.099866 -9.8639e-05 0)
(0.0998443 -8.87266e-05 0)
(0.0999912 4.39196e-06 0)
(0.0999824 1.86154e-05 0)
(0.0999646 3.55438e-05 0)
(0.0999396 6.88121e-05 0)
(0.0999124 0.000127643 0)
(0.099904 0.000240201 0)
(0.0999584 0.000459066 0)
(0.100146 0.00079454 0)
(0.100537 0.00131402 0)
(0.101063 0.00147368 0)
(0.101325 -0.000406927 0)
(0.100996 -0.00190211 0)
(0.100235 -0.00160974 0)
(0.0997124 -0.00061204 0)
(0.0996388 -8.57312e-06 0)
(0.0998174 7.72631e-05 0)
(0.100015 -4.2861e-05 0)
(0.100092 -0.000130408 0)
(0.100093 -0.000137658 0)
(0.100038 -0.000124944 0)
(0.0999936 8.80105e-06 0)
(0.0999905 2.73528e-05 0)
(0.0999837 5.48081e-05 0)
(0.0999797 9.11667e-05 0)
(0.0999799 0.000151373 0)
(0.100003 0.000226255 0)
(0.100048 0.000329704 0)
(0.100159 0.000399513 0)
(0.100333 0.000421553 0)
(0.100655 0.000236989 0)
(0.101 -9.7661e-05 0)
(0.101007 -0.000453958 0)
(0.100601 -0.000501915 0)
(0.100067 -0.000312793 0)
(0.0997751 -0.000113202 0)
(0.0997848 -2.54508e-05 0)
(0.0999512 -3.24671e-05 0)
(0.100067 -7.3964e-05 0)
(0.100112 -9.63449e-05 0)
(0.100057 -0.000107254 0)
(0.0999968 9.8547e-06 0)
(0.0999972 3.20107e-05 0)
(0.0999991 5.75733e-05 0)
(0.100005 9.19078e-05 0)
(0.100019 0.000133344 0)
(0.100049 0.000187203 0)
(0.100105 0.000240295 0)
(0.100203 0.000298067 0)
(0.100351 0.000311566 0)
(0.10052 0.000273249 0)
(0.100631 5.07021e-05 0)
(0.100586 -0.000275529 0)
(0.100375 -0.000507713 0)
(0.100105 -0.000506899 0)
(0.0999304 -0.000344951 0)
(0.099899 -0.000179656 0)
(0.0999684 -0.000102269 0)
(0.100027 -0.000105649 0)
(0.100065 -0.000130234 0)
(0.100025 -0.000151394 0)
(0.0999998 9.96178e-06 0)
(0.100003 3.07651e-05 0)
(0.100009 5.40121e-05 0)
(0.10002 8.07033e-05 0)
(0.10004 0.00011208 0)
(0.100073 0.000146032 0)
(0.100124 0.000178307 0)
(0.100194 0.00019576 0)
(0.100276 0.000178695 0)
(0.100354 0.000103508 0)
(0.100408 -2.80999e-05 0)
(0.100405 -0.000178262 0)
(0.100326 -0.000270852 0)
(0.10019 -0.000262972 0)
(0.100064 -0.000177895 0)
(0.0999892 -8.97623e-05 0)
(0.0999838 -4.28767e-05 0)
(0.0999985 -4.45023e-05 0)
(0.100024 -6.11032e-05 0)
(0.100002 -8.46754e-05 0)
(0.100003 8.73593e-06 0)
(0.100007 2.69233e-05 0)
(0.100015 4.59074e-05 0)
(0.100029 6.62712e-05 0)
(0.10005 8.7663e-05 0)
(0.10008 0.000108526 0)
(0.10012 0.000123482 0)
(0.10017 0.000125961 0)
(0.100225 0.000107815 0)
(0.100279 6.57539e-05 0)
(0.100315 1.66036e-06 0)
(0.100309 -7.70258e-05 0)
(0.100256 -0.000144769 0)
(0.100166 -0.000177189 0)
(0.100072 -0.000166768 0)
(0.100003 -0.000135021 0)
(0.0999794 -0.000103104 0)
(0.0999769 -9.34189e-05 0)
(0.0999896 -9.40169e-05 0)
(0.0999775 -0.000110679 0)
(0.100005 7.00452e-06 0)
(0.10001 2.1405e-05 0)
(0.100019 3.58683e-05 0)
(0.100033 5.02912e-05 0)
(0.100053 6.43307e-05 0)
(0.100079 7.66551e-05 0)
(0.100111 8.41757e-05 0)
(0.100148 8.31619e-05 0)
(0.100186 6.95126e-05 0)
(0.100218 4.06937e-05 0)
(0.100235 -4.7742e-06 0)
(0.100228 -5.75763e-05 0)
(0.100195 -0.000103333 0)
(0.100139 -0.000127915 0)
(0.100077 -0.000122942 0)
(0.100023 -9.96407e-05 0)
(0.0999953 -7.03877e-05 0)
(0.0999765 -5.55151e-05 0)
(0.099977 -4.83698e-05 0)
(0.0999569 -5.97351e-05 0)
(0.100007 5.08907e-06 0)
(0.100012 1.53004e-05 0)
(0.100021 2.50412e-05 0)
(0.100034 3.40511e-05 0)
(0.100053 4.21565e-05 0)
(0.100076 4.84213e-05 0)
(0.100103 5.11956e-05 0)
(0.100131 4.77391e-05 0)
(0.10016 3.63878e-05 0)
(0.100182 1.55728e-05 0)
(0.100193 -1.17844e-05 0)
(0.100186 -4.21095e-05 0)
(0.100162 -6.79918e-05 0)
(0.100122 -8.40691e-05 0)
(0.100078 -8.50223e-05 0)
(0.100032 -7.72594e-05 0)
(0.100001 -6.40051e-05 0)
(0.0999728 -5.96894e-05 0)
(0.0999651 -5.60362e-05 0)
(0.0999397 -6.84692e-05 0)
(0.100009 3.47991e-06 0)
(0.100013 1.06328e-05 0)
(0.100021 1.76598e-05 0)
(0.100034 2.43185e-05 0)
(0.100051 3.02795e-05 0)
(0.100071 3.5063e-05 0)
(0.100094 3.77358e-05 0)
(0.100117 3.71079e-05 0)
(0.100138 3.20857e-05 0)
(0.100153 2.23426e-05 0)
(0.10016 8.46965e-06 0)
(0.100155 -7.12904e-06 0)
(0.100137 -2.05622e-05 0)
(0.100105 -2.96401e-05 0)
(0.100068 -3.12344e-05 0)
(0.100027 -2.83143e-05 0)
(0.0999972 -2.04616e-05 0)
(0.0999657 -1.69897e-05 0)
(0.0999543 -1.19037e-05 0)
(0.0999261 -1.98858e-05 0)
(0.10001 -4.10213e-07 0)
(0.100015 -9.58421e-07 0)
(0.100024 -1.23595e-06 0)
(0.100036 -1.41386e-06 0)
(0.100053 -1.67004e-06 0)
(0.100072 -2.25302e-06 0)
(0.100093 -3.32484e-06 0)
(0.100115 -5.29242e-06 0)
(0.100134 -8.16744e-06 0)
(0.100147 -1.22629e-05 0)
(0.100152 -1.70826e-05 0)
(0.100145 -2.31742e-05 0)
(0.100129 -2.90365e-05 0)
(0.1001 -3.41038e-05 0)
(0.100069 -3.59742e-05 0)
(0.10003 -3.68497e-05 0)
(0.100003 -3.43177e-05 0)
(0.0999669 -3.53487e-05 0)
(0.0999559 -3.28313e-05 0)
(0.0999148 -4.10879e-05 0)
)
;

boundaryField
{
    sides
    {
        type            calculated;
        value           nonuniform List<vector> 
40
(
(0.10001 0 0)
(0.100015 0 0)
(0.100024 0 0)
(0.100036 0 0)
(0.100053 0 0)
(0.100072 0 0)
(0.100093 0 0)
(0.100115 0 0)
(0.100134 0 0)
(0.100147 0 0)
(0.100152 0 0)
(0.100145 0 0)
(0.100129 0 0)
(0.1001 0 0)
(0.100069 0 0)
(0.10003 0 0)
(0.100003 0 0)
(0.0999669 0 0)
(0.0999559 0 0)
(0.0999148 0 0)
(0.0999963 0 0)
(0.100001 0 0)
(0.10001 0 0)
(0.100023 0 0)
(0.10004 0 0)
(0.100061 0 0)
(0.100083 0 0)
(0.100107 0 0)
(0.100128 0 0)
(0.100144 0 0)
(0.100152 0 0)
(0.100152 0 0)
(0.10014 0 0)
(0.10012 0 0)
(0.100093 0 0)
(0.100068 0 0)
(0.100045 0 0)
(0.100034 0 0)
(0.100025 0 0)
(0.100033 0 0)
)
;
    }
    inlet
    {
        type            calculated;
        value           nonuniform List<vector> 
20
(
(0.0999961 0 0)
(0.0999966 0 0)
(0.0999965 0 0)
(0.099996 0 0)
(0.099995 0 0)
(0.0999936 0 0)
(0.0999921 0 0)
(0.0999906 0 0)
(0.0999897 0 0)
(0.0999896 0 0)
(0.0999903 0 0)
(0.0999917 0 0)
(0.099994 0 0)
(0.0999968 0 0)
(0.0999997 0 0)
(0.100002 0 0)
(0.100005 0 0)
(0.100007 0 0)
(0.100008 0 0)
(0.10001 0 0)
)
;
    }
    outlet
    {
        type            calculated;
        value           nonuniform List<vector> 
20
(
(0.100033 -2.68155e-05 0)
(0.100029 8.16274e-06 0)
(0.10003 -1.16729e-05 0)
(0.100035 7.57046e-08 0)
(0.100043 1.67809e-05 0)
(0.100055 4.96304e-06 0)
(0.100066 5.33984e-05 0)
(0.100085 1.03209e-05 0)
(0.100054 2.44767e-05 0)
(0.0998506 -1.83512e-05 0)
(0.0998456 -8.87278e-05 0)
(0.100037 -0.000124942 0)
(0.100055 -0.000107252 0)
(0.100024 -0.000151392 0)
(0.100001 -8.46744e-05 0)
(0.0999769 -0.000110678 0)
(0.0999562 -5.97346e-05 0)
(0.0999389 -6.84687e-05 0)
(0.0999252 -1.98856e-05 0)
(0.0999135 -4.10873e-05 0)
)
;
    }
    frontAndBack
    {
        type            empty;
    }
}


// ************************************************************************* //
