/*--------------------------------*- C++ -*----------------------------------*\
  =========                 |
  \\      /  F ield         | OpenFOAM: The Open Source CFD Toolbox
   \\    /   O peration     | Website:  https://openfoam.org
    \\  /    A nd           | Version:  9
     \\/     M anipulation  |
\*---------------------------------------------------------------------------*/
FoamFile
{
    format      ascii;
    class       volVectorField;
    location    "29";
    object      ddtCorrDdt0(hU);
}
// * * * * * * * * * * * * * * * * * * * * * * * * * * * * * * * * * * * * * //

dimensions      [0 2 -2 0 0 0 0];

internalField   nonuniform List<vector> 
400
(
(-2.00466e-08 5.75221e-09 0)
(4.6072e-08 9.45561e-09 0)
(4.76423e-08 1.55733e-08 0)
(-1.62069e-08 1.8687e-08 0)
(-5.07219e-08 -6.62904e-09 0)
(-7.8225e-09 -4.05792e-08 0)
(7.20323e-08 -4.3686e-08 0)
(1.14596e-07 -1.33418e-08 0)
(8.28795e-08 4.99596e-09 0)
(1.80462e-08 -8.74365e-09 0)
(-2.8392e-09 -4.06688e-08 0)
(2.04563e-08 -3.35773e-08 0)
(3.9729e-08 -1.54969e-08 0)
(-2.25345e-09 3.29665e-09 0)
(-6.94616e-08 1.17532e-08 0)
(-1.17177e-07 -1.41874e-09 0)
(-1.28423e-07 -1.96355e-08 0)
(-7.52481e-08 -1.89463e-08 0)
(-6.89348e-08 -7.12328e-09 0)
(-1.18835e-07 7.21398e-09 0)
(-1.93622e-08 4.73489e-09 0)
(2.9507e-08 7.71558e-09 0)
(3.03597e-08 2.36073e-08 0)
(-2.89042e-08 4.37101e-08 0)
(-5.72305e-08 -9.87756e-09 0)
(-1.35636e-08 -1.03135e-07 0)
(6.52702e-08 -1.19527e-07 0)
(1.10331e-07 -4.66958e-08 0)
(8.53143e-08 4.98602e-09 0)
(2.12835e-08 -2.13015e-08 0)
(1.13451e-08 -7.65982e-08 0)
(3.4514e-08 -9.60003e-08 0)
(3.19259e-08 -3.71875e-08 0)
(2.82753e-09 2.1464e-08 0)
(-5.46365e-08 3.70325e-08 0)
(-1.02213e-07 9.67653e-09 0)
(-1.16093e-07 -4.77057e-08 0)
(-8.78172e-08 -4.43987e-08 0)
(-8.13998e-08 5.87315e-08 0)
(-1.18447e-07 5.99079e-08 0)
(-1.73412e-08 -1.39722e-09 0)
(6.79972e-09 -5.32436e-09 0)
(3.4879e-09 2.87761e-08 0)
(-3.90649e-08 7.2827e-08 0)
(-5.82811e-08 -7.01571e-09 0)
(-2.1879e-08 -1.52305e-07 0)
(4.18291e-08 -1.70865e-07 0)
(9.26215e-08 -6.16905e-08 0)
(8.4075e-08 2.09935e-08 0)
(5.42597e-08 -2.20639e-08 0)
(1.71685e-08 -1.07655e-07 0)
(3.35384e-08 -1.35504e-07 0)
(5.00164e-08 -5.72522e-08 0)
(9.77941e-09 3.71702e-08 0)
(-4.03917e-08 5.88001e-08 0)
(-8.51174e-08 1.57953e-08 0)
(-1.00003e-07 -6.27388e-08 0)
(-5.17868e-08 -6.82321e-08 0)
(-5.68469e-08 5.73681e-08 0)
(-1.17358e-07 6.99157e-08 0)
(-1.53509e-08 1.64757e-09 0)
(-1.79434e-08 -6.59654e-09 0)
(-2.40018e-08 4.84294e-08 0)
(-5.93345e-08 1.08957e-07 0)
(-6.87301e-08 -8.75609e-10 0)
(-3.03401e-08 -1.79577e-07 0)
(2.85905e-08 -1.96148e-07 0)
(7.79631e-08 -5.09144e-08 0)
(8.45182e-08 4.32233e-08 0)
(5.9317e-08 -7.09375e-09 0)
(6.22255e-08 -1.62092e-07 0)
(5.52122e-08 -1.66394e-07 0)
(5.79377e-08 -7.31629e-08 0)
(3.4134e-08 3.43238e-08 0)
(-1.38516e-08 6.95467e-08 0)
(-5.02291e-08 1.78273e-08 0)
(-7.62126e-08 -8.10468e-08 0)
(-9.03427e-08 -8.42399e-08 0)
(-9.35558e-08 7.97987e-08 0)
(-1.01394e-07 9.8368e-08 0)
(-1.25609e-08 7.47169e-09 0)
(-4.33475e-08 -5.07626e-09 0)
(-5.73156e-08 6.2081e-08 0)
(-7.91789e-08 1.31205e-07 0)
(-7.29327e-08 1.49213e-08 0)
(-4.10421e-08 -1.7532e-07 0)
(7.00682e-09 -1.91801e-07 0)
(5.04397e-08 -3.73689e-08 0)
(9.50055e-08 6.42688e-08 0)
(7.18165e-08 2.53301e-09 0)
(7.12524e-08 -1.24187e-07 0)
(1.10956e-07 -1.94642e-07 0)
(6.4582e-08 -9.0092e-08 0)
(5.71784e-08 1.97116e-08 0)
(3.6837e-08 4.89296e-08 0)
(-6.74791e-09 1.64358e-09 0)
(-4.19933e-08 -1.00701e-07 0)
(-4.06093e-08 -9.69723e-08 0)
(-6.07728e-08 1.06353e-07 0)
(-1.08696e-07 1.18284e-07 0)
(-1.06161e-08 1.39913e-08 0)
(-6.50844e-08 -2.89869e-09 0)
(-8.88311e-08 6.97809e-08 0)
(-9.97082e-08 1.42469e-07 0)
(-8.01846e-08 3.42957e-08 0)
(-4.54317e-08 -1.4941e-07 0)
(-1.41752e-08 -1.68729e-07 0)
(3.77081e-08 -2.12543e-08 0)
(7.54873e-08 1.01018e-07 0)
(1.50658e-07 2.94424e-09 0)
(9.5338e-08 -8.5337e-08 0)
(8.89705e-08 -1.75795e-07 0)
(9.35443e-08 -9.94221e-08 0)
(6.52499e-08 2.60019e-08 0)
(7.13147e-08 4.06323e-08 0)
(6.21531e-08 -2.21742e-08 0)
(1.39192e-08 -1.18259e-07 0)
(-4.98652e-08 -1.17189e-07 0)
(-7.95516e-08 6.87086e-08 0)
(-8.30925e-08 1.00505e-07 0)
(-1.01553e-08 1.90522e-08 0)
(-8.1463e-08 -1.8747e-09 0)
(-1.17571e-07 6.65459e-08 0)
(-1.18192e-07 1.39711e-07 0)
(-8.10849e-08 5.16288e-08 0)
(-5.50481e-08 -1.11654e-07 0)
(-3.48186e-08 -1.34508e-07 0)
(2.0364e-08 -5.27093e-09 0)
(9.02015e-08 7.58031e-08 0)
(1.39475e-07 3.23873e-08 0)
(2.14147e-07 -2.34376e-07 0)
(6.38738e-08 -1.25859e-07 0)
(1.03167e-07 -1.00535e-07 0)
(1.06631e-07 -1.09862e-09 0)
(9.17819e-08 3.4186e-08 0)
(9.58272e-08 -2.2871e-08 0)
(5.86546e-08 -1.21433e-07 0)
(-1.07001e-08 -1.11673e-07 0)
(-4.77332e-08 8.42448e-08 0)
(-6.91979e-08 1.07631e-07 0)
(-1.02885e-08 2.11287e-08 0)
(-9.34185e-08 -1.61451e-09 0)
(-1.39257e-07 5.23264e-08 0)
(-1.31462e-07 1.18367e-07 0)
(-8.43811e-08 5.69928e-08 0)
(-5.9882e-08 -7.4336e-08 0)
(-5.91769e-08 -9.26726e-08 0)
(-1.66514e-08 2.03563e-08 0)
(1.00773e-07 8.19076e-08 0)
(1.94649e-08 8.98381e-09 0)
(7.32901e-07 -2.42783e-08 0)
(2.61603e-07 -2.03642e-07 0)
(4.73052e-08 -1.01775e-07 0)
(1.22768e-07 -3.13259e-08 0)
(1.50931e-07 -7.02381e-09 0)
(1.44915e-07 -4.30948e-08 0)
(1.0834e-07 -1.17835e-07 0)
(2.43863e-08 -1.01059e-07 0)
(-3.39686e-08 5.16234e-08 0)
(-4.31005e-08 8.01067e-08 0)
(-1.03197e-08 1.68489e-08 0)
(-1.02174e-07 -2.67377e-09 0)
(-1.54113e-07 3.24194e-08 0)
(-1.38324e-07 7.9896e-08 0)
(-8.41109e-08 4.47239e-08 0)
(-6.65547e-08 -3.95745e-08 0)
(-6.13264e-08 -5.27382e-08 0)
(-9.19667e-09 1.97845e-08 0)
(6.15071e-08 6.02849e-08 0)
(3.06883e-07 1.07547e-08 0)
(-3.81623e-07 1.15355e-08 0)
(1.80958e-08 -1.445e-07 0)
(1.86768e-07 -5.90941e-08 0)
(1.41933e-07 -2.24496e-08 0)
(1.6313e-07 -1.93834e-08 0)
(1.70936e-07 -4.25935e-08 0)
(1.39262e-07 -7.78538e-08 0)
(5.0068e-08 -7.12671e-08 0)
(-1.25018e-08 3.76933e-08 0)
(-1.46023e-08 6.1128e-08 0)
(-1.00515e-08 6.2603e-09 0)
(-1.0429e-07 -5.21062e-09 0)
(-1.60887e-07 6.93756e-09 0)
(-1.44198e-07 2.54413e-08 0)
(-8.21961e-08 1.52039e-08 0)
(-6.94303e-08 -1.14562e-08 0)
(-8.43632e-08 -1.52454e-08 0)
(-3.10456e-08 6.75717e-09 0)
(8.42633e-08 8.06214e-09 0)
(1.52627e-07 3.35814e-08 0)
(1.2625e-07 -1.12444e-07 0)
(2.17964e-07 2.93771e-08 0)
(1.41673e-07 -2.63668e-08 0)
(1.4486e-07 -2.54051e-08 0)
(1.75912e-07 -2.08782e-08 0)
(1.81204e-07 -2.72519e-08 0)
(1.49655e-07 -2.56853e-08 0)
(6.21382e-08 -1.95265e-08 0)
(-6.42111e-11 3.54046e-08 0)
(-6.31166e-09 4.17126e-08 0)
(-9.03654e-09 -5.32364e-09 0)
(-1.03997e-07 -7.21701e-09 0)
(-1.6092e-07 -2.42457e-08 0)
(-1.45961e-07 -3.83301e-08 0)
(-8.41498e-08 -2.25094e-08 0)
(-7.06873e-08 1.40886e-08 0)
(-8.24183e-08 2.24835e-08 0)
(-3.02113e-08 4.79427e-09 0)
(9.93254e-08 1.97695e-08 0)
(1.28225e-07 3.41829e-09 0)
(1.84461e-07 4.12929e-08 0)
(1.71375e-07 2.86545e-08 0)
(1.16193e-07 -2.44119e-10 0)
(1.61312e-07 -2.72931e-08 0)
(1.73808e-07 -4.75294e-08 0)
(1.78034e-07 -2.97666e-08 0)
(1.48979e-07 9.69182e-09 0)
(6.16423e-08 2.55607e-08 0)
(-2.41018e-09 1.90723e-08 0)
(-6.50191e-09 1.39712e-08 0)
(-8.29997e-09 -1.53045e-08 0)
(-1.01885e-07 -1.03425e-08 0)
(-1.54642e-07 -5.2324e-08 0)
(-1.43954e-07 -9.47159e-08 0)
(-9.15795e-08 -5.16489e-08 0)
(-7.08665e-08 4.08621e-08 0)
(-6.64562e-08 6.21422e-08 0)
(-6.56969e-09 -3.44257e-09 0)
(7.29446e-08 -4.65135e-08 0)
(1.64971e-07 -1.50572e-08 0)
(4.15287e-07 8.69114e-08 0)
(1.73468e-07 6.65072e-08 0)
(1.45147e-07 2.15305e-08 0)
(1.22011e-07 -3.74698e-08 0)
(1.59491e-07 -4.48177e-08 0)
(1.81309e-07 -1.39163e-08 0)
(1.36421e-07 5.28993e-08 0)
(3.93159e-08 7.26837e-08 0)
(-1.62071e-08 8.92917e-09 0)
(-1.33597e-08 -1.23914e-08 0)
(-9.33994e-09 -2.31725e-08 0)
(-9.48156e-08 -1.5047e-08 0)
(-1.40561e-07 -7.71029e-08 0)
(-1.3854e-07 -1.39872e-07 0)
(-9.21573e-08 -6.72758e-08 0)
(-6.34083e-08 7.51571e-08 0)
(-5.86798e-08 9.93588e-08 0)
(-1.53912e-08 1.81251e-09 0)
(8.69083e-08 -7.21709e-08 0)
(1.60217e-07 -1.59652e-08 0)
(-3.29709e-08 1.22669e-07 0)
(1.11992e-07 1.28594e-07 0)
(1.05802e-07 5.64206e-08 0)
(1.43784e-07 -2.50476e-08 0)
(1.58801e-07 -4.49967e-08 0)
(1.43079e-07 -7.13796e-09 0)
(1.03766e-07 9.07531e-08 0)
(2.00734e-08 1.06806e-07 0)
(-3.57184e-08 -9.1436e-09 0)
(-3.21609e-08 -3.73341e-08 0)
(-1.05792e-08 -2.86609e-08 0)
(-8.38793e-08 -1.91088e-08 0)
(-1.22224e-07 -9.28047e-08 0)
(-1.26953e-07 -1.65788e-07 0)
(-8.92567e-08 -6.74715e-08 0)
(-5.99127e-08 1.07649e-07 0)
(-3.45556e-08 1.37789e-07 0)
(1.8033e-08 1.14514e-08 0)
(8.05737e-08 -6.38934e-08 0)
(1.57194e-07 1.60818e-09 0)
(1.33195e-07 1.09453e-07 0)
(1.07954e-07 1.75481e-07 0)
(1.29806e-07 9.47466e-08 0)
(1.11548e-07 -3.15945e-08 0)
(1.07145e-07 -7.81752e-08 0)
(1.00853e-07 -1.72177e-08 0)
(5.94461e-08 1.0905e-07 0)
(-1.49136e-08 1.20893e-07 0)
(-5.45557e-08 -2.7552e-08 0)
(-5.0194e-08 -5.6085e-08 0)
(-1.14476e-08 -3.05411e-08 0)
(-6.55998e-08 -2.17747e-08 0)
(-9.52446e-08 -9.31022e-08 0)
(-1.12884e-07 -1.65694e-07 0)
(-8.98477e-08 -5.4558e-08 0)
(-5.21307e-08 1.38121e-07 0)
(-1.59244e-08 1.70372e-07 0)
(3.28183e-08 2.33073e-08 0)
(9.15061e-08 -7.4554e-08 0)
(1.11918e-07 1.53675e-08 0)
(1.28288e-07 1.55657e-07 0)
(1.24839e-07 2.07568e-07 0)
(9.45524e-08 8.27446e-08 0)
(7.95636e-08 -4.71776e-08 0)
(7.40629e-08 -7.36558e-08 0)
(5.96737e-08 -9.55517e-09 0)
(1.34729e-08 1.11735e-07 0)
(-4.28516e-08 1.2511e-07 0)
(-7.07111e-08 -3.60694e-08 0)
(-7.006e-08 -6.59506e-08 0)
(-1.14774e-08 -2.71978e-08 0)
(-4.08231e-08 -2.22464e-08 0)
(-6.24467e-08 -8.46916e-08 0)
(-9.36098e-08 -1.4924e-07 0)
(-8.7548e-08 -3.09792e-08 0)
(-4.53244e-08 1.64065e-07 0)
(5.64717e-09 1.88985e-07 0)
(6.07014e-08 4.39413e-08 0)
(9.24914e-08 -5.80689e-08 0)
(1.13512e-07 1.89411e-08 0)
(8.99082e-08 1.62164e-07 0)
(7.03134e-08 2.00842e-07 0)
(8.16134e-08 9.8507e-08 0)
(6.87302e-08 -3.02324e-08 0)
(3.76199e-08 -6.97662e-08 0)
(-5.37684e-09 -1.83598e-08 0)
(-4.65028e-08 9.99538e-08 0)
(-6.63474e-08 1.11214e-07 0)
(-8.19939e-08 -5.07442e-08 0)
(-8.91992e-08 -7.15501e-08 0)
(-1.18269e-08 -1.98125e-08 0)
(-1.44368e-08 -2.09285e-08 0)
(-2.96053e-08 -6.99861e-08 0)
(-6.99738e-08 -1.20937e-07 0)
(-7.92512e-08 -9.01177e-09 0)
(-3.88455e-08 1.70379e-07 0)
(2.44057e-08 1.92608e-07 0)
(7.80281e-08 5.82737e-08 0)
(9.47664e-08 -3.77332e-08 0)
(7.20575e-08 1.82736e-08 0)
(7.08674e-08 1.33038e-07 0)
(9.38673e-08 1.68922e-07 0)
(7.45448e-08 6.56866e-08 0)
(3.21123e-08 -5.46741e-08 0)
(-1.29342e-08 -8.81005e-08 0)
(-5.64183e-08 -3.52587e-08 0)
(-8.90343e-08 7.91131e-08 0)
(-8.73287e-08 9.16065e-08 0)
(-8.75931e-08 -5.38497e-08 0)
(-9.88585e-08 -6.7747e-08 0)
(-1.45124e-08 -1.52906e-08 0)
(1.17887e-08 -2.12478e-08 0)
(2.62552e-09 -5.98062e-08 0)
(-5.07151e-08 -9.43693e-08 0)
(-7.19227e-08 3.93123e-09 0)
(-2.87808e-08 1.55333e-07 0)
(4.61862e-08 1.73873e-07 0)
(9.75516e-08 6.01834e-08 0)
(9.09005e-08 -1.92085e-08 0)
(5.87449e-08 2.04848e-08 0)
(3.74899e-08 1.11496e-07 0)
(4.07305e-08 1.22898e-07 0)
(5.60205e-08 3.60407e-08 0)
(3.17909e-08 -5.53159e-08 0)
(-3.02437e-08 -7.92581e-08 0)
(-9.17254e-08 -3.76859e-08 0)
(-1.20057e-07 5.23074e-08 0)
(-9.38002e-08 6.97942e-08 0)
(-8.72957e-08 -3.88681e-08 0)
(-1.07157e-07 -5.32127e-08 0)
(-1.54111e-08 -5.65207e-09 0)
(3.1719e-08 -9.91348e-09 0)
(2.45863e-08 -3.26513e-08 0)
(-3.16258e-08 -5.55151e-08 0)
(-5.89677e-08 6.2688e-09 0)
(-1.79912e-08 1.07296e-07 0)
(5.65879e-08 1.24636e-07 0)
(1.03906e-07 5.3251e-08 0)
(8.7172e-08 -1.83519e-09 0)
(3.07555e-08 1.84518e-08 0)
(2.32622e-08 6.82161e-08 0)
(5.89338e-08 8.12533e-08 0)
(6.39738e-08 2.95082e-08 0)
(1.09982e-08 -3.64454e-08 0)
(-6.46197e-08 -5.95064e-08 0)
(-1.22283e-07 -3.46507e-08 0)
(-1.33551e-07 2.80935e-08 0)
(-8.47388e-08 4.37283e-08 0)
(-7.62044e-08 -2.6487e-08 0)
(-1.09233e-07 -3.4713e-08 0)
(-1.98342e-08 1.89113e-09 0)
(4.17838e-08 1.37222e-09 0)
(3.71966e-08 -3.3694e-09 0)
(-2.55603e-08 -1.31347e-08 0)
(-5.68271e-08 1.80856e-09 0)
(-1.21639e-08 3.49414e-08 0)
(6.80712e-08 4.48258e-08 0)
(1.1354e-07 2.58644e-08 0)
(8.52282e-08 5.64628e-09 0)
(3.16259e-08 7.62303e-09 0)
(1.39838e-08 3.44593e-08 0)
(3.46463e-08 2.92696e-08 0)
(4.96703e-08 1.90467e-09 0)
(8.08597e-09 -2.1155e-08 0)
(-6.44055e-08 -2.54551e-08 0)
(-1.22046e-07 -1.40838e-08 0)
(-1.33333e-07 9.75925e-09 0)
(-8.27815e-08 1.51196e-08 0)
(-7.52572e-08 -1.09323e-08 0)
(-1.1303e-07 -1.26202e-08 0)
)
;

boundaryField
{
    sides
    {
        type            calculated;
        value           nonuniform List<vector> 
40
(
(-1.98342e-08 0 0)
(4.17838e-08 0 0)
(3.71966e-08 0 0)
(-2.55603e-08 0 0)
(-5.68271e-08 0 0)
(-1.21639e-08 0 0)
(6.80712e-08 0 0)
(1.1354e-07 0 0)
(8.52282e-08 0 0)
(3.16259e-08 0 0)
(1.39838e-08 0 0)
(3.46463e-08 0 0)
(4.96703e-08 0 0)
(8.08597e-09 0 0)
(-6.44055e-08 0 0)
(-1.22046e-07 0 0)
(-1.33333e-07 0 0)
(-8.27815e-08 0 0)
(-7.52572e-08 0 0)
(-1.1303e-07 0 0)
(-2.00466e-08 0 0)
(4.6072e-08 0 0)
(4.76423e-08 0 0)
(-1.62069e-08 0 0)
(-5.07219e-08 0 0)
(-7.8225e-09 0 0)
(7.20323e-08 0 0)
(1.14596e-07 0 0)
(8.28795e-08 0 0)
(1.80462e-08 0 0)
(-2.8392e-09 0 0)
(2.04563e-08 0 0)
(3.9729e-08 0 0)
(-2.25345e-09 0 0)
(-6.94616e-08 0 0)
(-1.17177e-07 0 0)
(-1.28423e-07 0 0)
(-7.52481e-08 0 0)
(-6.89348e-08 0 0)
(-1.18835e-07 0 0)
)
;
    }
    inlet
    {
        type            calculated;
        value           uniform (0 0 0);
    }
    outlet
    {
        type            calculated;
        value           nonuniform List<vector> 
20
(
(-1.18835e-07 7.21398e-09 0)
(-1.18447e-07 5.99079e-08 0)
(-1.17358e-07 6.99157e-08 0)
(-1.01394e-07 9.8368e-08 0)
(-1.08696e-07 1.18284e-07 0)
(-8.30925e-08 1.00505e-07 0)
(-6.91979e-08 1.07631e-07 0)
(-4.31005e-08 8.01067e-08 0)
(-1.46023e-08 6.1128e-08 0)
(-6.31166e-09 4.17126e-08 0)
(-6.50191e-09 1.39712e-08 0)
(-1.33597e-08 -1.23914e-08 0)
(-3.21609e-08 -3.73341e-08 0)
(-5.0194e-08 -5.6085e-08 0)
(-7.006e-08 -6.59506e-08 0)
(-8.91992e-08 -7.15501e-08 0)
(-9.88585e-08 -6.7747e-08 0)
(-1.07157e-07 -5.32127e-08 0)
(-1.09233e-07 -3.4713e-08 0)
(-1.1303e-07 -1.26202e-08 0)
)
;
    }
    frontAndBack
    {
        type            empty;
    }
}


// ************************************************************************* //
