/*--------------------------------*- C++ -*----------------------------------*\
  =========                 |
  \\      /  F ield         | OpenFOAM: The Open Source CFD Toolbox
   \\    /   O peration     | Website:  https://openfoam.org
    \\  /    A nd           | Version:  9
     \\/     M anipulation  |
\*---------------------------------------------------------------------------*/
FoamFile
{
    format      ascii;
    class       surfaceScalarField;
    location    "29";
    object      ddtCorrDdt0(phi);
}
// * * * * * * * * * * * * * * * * * * * * * * * * * * * * * * * * * * * * * //

dimensions      [0 4 -2 0 0 0 0];

internalField   nonuniform List<scalar> 
760
(
2.16118e-10
8.09677e-12
2.48122e-10
2.10869e-11
4.20246e-11
5.8952e-11
-2.32911e-10
1.16439e-10
-2.14453e-10
-5.27064e-11
1.63455e-10
-3.37892e-10
5.23097e-10
-4.00037e-10
5.5545e-10
-1.49246e-10
2.6165e-10
8.99434e-12
5.04856e-11
-7.16598e-11
3.19041e-11
-3.40813e-10
1.46721e-10
-3.5961e-10
1.0805e-10
-1.29825e-10
-1.7021e-10
6.79161e-11
-4.59608e-10
1.33355e-10
-6.10917e-10
1.19996e-11
-5.4369e-10
-1.99754e-10
-3.49104e-10
-1.66047e-10
-4.90005e-10
1.69161e-10
1.72153e-10
1.50799e-10
-2.67349e-12
1.51597e-10
-9.81872e-12
-4.40769e-11
1.09777e-10
-2.68393e-10
2.69557e-10
-2.32975e-10
-4.8461e-11
1.14116e-10
-6.49504e-10
5.03576e-10
-7.46341e-10
5.43789e-10
-2.76005e-10
3.04655e-10
7.5709e-11
3.55374e-11
-1.11706e-10
1.62781e-10
-7.17707e-10
1.48483e-10
-5.50272e-10
9.53662e-11
-2.23805e-10
-1.11333e-10
1.47757e-10
-3.86752e-10
2.48257e-10
-5.7058e-10
8.11132e-11
-5.3514e-10
-2.50593e-10
-4.11559e-10
-2.6956e-10
-4.64883e-10
2.23218e-10
3.76591e-10
6.10542e-11
3.36688e-12
4.44625e-12
-3.36778e-11
-1.39766e-10
1.77271e-10
-2.7109e-10
4.45465e-10
-2.6434e-10
-3.36324e-11
2.36124e-11
-8.64238e-10
3.99617e-10
-9.3225e-10
4.98098e-10
-3.14762e-10
3.53526e-10
1.70717e-10
2.45663e-10
-8.56731e-11
7.35039e-11
-6.9788e-10
2.38089e-10
-7.19044e-10
1.38687e-10
-3.36221e-10
-6.37913e-11
2.00744e-10
-3.10616e-10
3.2863e-10
-4.70856e-10
8.10314e-11
-3.77428e-10
-3.75853e-10
-2.65715e-10
-3.99286e-10
-4.92824e-10
4.3328e-10
3.79763e-10
-5.23897e-11
2.21775e-11
-1.3758e-10
-2.99308e-11
-2.41243e-10
2.7155e-10
-3.50306e-10
5.92407e-10
-3.39709e-10
8.07693e-12
-3.53164e-12
-9.0248e-10
3.10571e-10
-1.00657e-09
4.82116e-10
-2.07422e-10
3.72576e-10
2.10202e-10
3.25157e-10
-9.51604e-12
3.2583e-10
-7.54753e-10
2.54395e-10
-8.91008e-10
2.47097e-10
-4.00356e-10
5.61861e-11
1.24001e-10
-1.58694e-10
3.09428e-10
-3.34075e-10
6.43326e-11
-4.43031e-10
-4.18553e-10
-4.50722e-10
-4.27221e-10
-4.63579e-10
3.9194e-10
4.76448e-10
-1.57555e-10
5.63397e-11
-2.87595e-10
-1.42168e-11
-3.59302e-10
3.36468e-10
-4.41601e-10
6.74625e-10
-3.66102e-10
1.10378e-10
-9.6048e-11
-8.30767e-10
2.37876e-10
-8.89685e-10
3.51489e-10
-2.0245e-10
5.58286e-10
4.20361e-10
2.2739e-10
1.11755e-11
6.07265e-10
-6.52757e-10
3.8991e-10
-1.04713e-09
2.80318e-10
-4.5167e-10
2.60089e-10
1.81029e-10
7.59156e-11
2.34417e-10
-1.1715e-10
-7.02556e-11
-2.15053e-10
-5.87511e-10
-2.76136e-10
-5.41127e-10
-4.34346e-10
4.97017e-10
5.92767e-10
-2.35319e-10
8.85913e-11
-4.16627e-10
9.62529e-13
-5.02728e-10
3.5087e-10
-5.23061e-10
7.0876e-10
-3.95968e-10
2.12318e-10
-1.17594e-10
-6.30798e-10
8.21738e-11
-7.59237e-10
3.33233e-10
-6.64761e-11
6.03726e-10
4.58205e-10
7.4564e-10
-1.02643e-10
3.21446e-10
-3.60598e-10
5.55611e-10
-6.44607e-10
3.49172e-10
-6.47195e-10
3.29767e-10
-1.97431e-11
3.57339e-10
1.59013e-10
1.95044e-10
-1.20816e-10
-1.00079e-10
-5.91294e-10
-3.39215e-10
-5.52753e-10
-4.15495e-10
4.16962e-10
5.24015e-10
-2.81274e-10
1.08267e-10
-5.32868e-10
4.31039e-12
-6.37426e-10
3.12334e-10
-5.79909e-10
6.54116e-10
-3.89958e-10
2.94881e-10
-2.17415e-10
-4.6053e-10
-3.66391e-11
-5.82945e-10
4.18201e-10
3.52046e-11
4.32005e-10
3.10006e-10
1.21865e-09
6.03125e-10
5.24545e-10
-4.44391e-09
3.79831e-10
-6.56074e-10
5.83029e-10
-3.25258e-10
4.63557e-10
-5.42421e-11
4.72938e-10
-9.03746e-12
4.04895e-10
-1.86365e-10
1.08454e-10
7.44504e-10
-1.48861e-10
-5.77835e-10
-3.1279e-10
3.41181e-10
4.61196e-10
-3.10046e-10
1.05757e-10
-6.2339e-10
-1.15588e-12
-7.41304e-10
2.35694e-10
-5.95314e-10
5.28574e-10
-4.16102e-10
2.68325e-10
-3.02965e-10
-2.588e-10
-1.60069e-10
-3.71821e-10
1.65545e-10
9.31635e-11
8.54302e-10
4.19487e-10
8.66008e-10
-5.55299e-10
3.53274e-09
3.10524e-08
3.16747e-10
-1.26738e-09
4.46207e-10
-5.92016e-10
7.08065e-10
-1.19889e-10
7.24583e-10
-2.87241e-11
6.47955e-10
-1.82936e-10
3.3237e-10
-4.92194e-10
-5.59057e-11
-4.38588e-10
-1.98659e-10
2.30878e-10
3.70122e-10
-3.34537e-10
6.5967e-11
-6.90213e-10
-1.06179e-11
-7.93264e-10
1.11046e-10
-6.04866e-10
2.84747e-10
-4.26346e-10
1.65018e-10
-3.51669e-10
-1.55914e-10
-1.40163e-10
-1.55565e-10
2.85387e-10
6.96428e-11
4.60012e-10
1.03391e-10
9.46962e-10
6.16856e-10
-1.97392e-09
-3.79184e-09
9.41358e-10
-7.44139e-11
7.83719e-10
-2.97577e-11
7.52343e-10
-7.76956e-11
8.47407e-10
-1.32925e-10
7.43751e-10
-1.64505e-10
4.95319e-10
-5.26771e-10
5.80602e-11
-2.14481e-10
-6.47815e-11
1.60624e-10
2.06111e-10
-3.41944e-10
-1.61781e-12
-7.10277e-10
-3.41109e-11
-8.26821e-10
-4.24038e-11
-5.9939e-10
-3.34675e-11
-4.4713e-10
-2.22835e-11
-4.17757e-10
1.64604e-11
-2.20553e-10
1.5735e-12
1.09553e-10
4.60164e-11
8.15078e-10
1.0566e-10
4.94983e-10
3.0751e-11
9.87362e-10
2.95865e-10
8.80742e-10
2.2209e-10
6.23258e-10
-1.61883e-10
8.41765e-10
-1.15614e-10
9.06734e-10
-1.59805e-10
8.21031e-10
-1.6087e-10
5.20511e-10
-5.32496e-11
1.36272e-10
4.87407e-12
-3.33721e-11
1.28306e-10
1.4159e-10
-3.47692e-10
-5.92405e-11
-7.00164e-10
-4.90769e-11
-8.31214e-10
-1.98298e-10
-6.18993e-10
-3.50394e-10
-4.40325e-10
-1.98101e-10
-4.31891e-10
1.54137e-10
-2.22937e-10
2.43959e-10
1.96961e-10
-4.67357e-11
7.31058e-10
5.93209e-12
6.14948e-10
-2.41355e-10
1.08009e-09
-4.27804e-10
5.40263e-10
-5.39796e-11
7.22855e-10
1.10771e-10
8.33955e-10
-7.74027e-11
8.88962e-10
-2.21671e-10
8.25674e-10
-1.12728e-10
5.18364e-10
1.71837e-10
1.13852e-10
2.5168e-10
-2.56773e-11
8.04408e-11
7.7976e-12
-3.49807e-10
-1.00223e-10
-6.71428e-10
-7.4837e-11
-8.06564e-10
-3.49189e-10
-6.52564e-10
-6.12353e-10
-4.58308e-10
-3.04552e-10
-3.5903e-10
2.75545e-10
-1.85565e-10
3.92717e-10
2.92308e-10
3.8437e-11
6.4092e-10
-3.85355e-10
1.44909e-09
-6.92275e-12
1.47113e-09
2.90103e-08
8.10299e-10
8.63504e-10
6.25458e-10
2.08826e-10
7.18654e-10
-2.18709e-10
8.72134e-10
-3.23954e-10
7.82056e-10
-1.91803e-10
4.52313e-10
3.76148e-10
1.50091e-11
4.67878e-10
-8.05172e-11
6.3557e-13
-1.25076e-10
-3.43888e-10
-1.36005e-10
-6.12138e-10
-1.0192e-10
-7.5508e-10
-4.52007e-10
-6.5046e-10
-7.84384e-10
-4.35527e-10
-3.57207e-10
-3.19701e-10
4.436e-10
-1.43013e-10
5.92483e-10
2.21044e-10
3.14606e-11
6.47553e-10
-3.16402e-10
4.34402e-10
-1.88846e-10
1.56317e-10
7.1241e-10
5.09072e-10
5.95252e-10
6.36974e-10
3.55308e-10
7.66024e-10
-1.90876e-10
7.38324e-10
-2.57494e-10
6.43022e-10
-1.29898e-11
3.09631e-10
4.85986e-10
-9.13909e-11
5.879e-10
-1.72944e-10
-8.71735e-11
-2.29248e-10
-3.18677e-10
-1.56337e-10
-5.43338e-10
-1.12479e-10
-6.69613e-10
-4.754e-10
-6.22116e-10
-8.40222e-10
-4.18301e-10
-3.11644e-10
-2.50987e-10
6.04518e-10
1.00854e-11
7.71597e-10
3.22532e-10
7.8624e-11
5.33757e-10
-3.09e-10
9.67524e-10
1.25068e-10
4.36177e-10
5.06661e-10
6.58397e-10
1.00082e-09
5.69173e-10
4.65433e-10
5.40921e-10
-1.18784e-10
5.41701e-10
-3.05413e-10
4.19688e-10
-3.75023e-11
9.69541e-11
5.56218e-10
-2.12646e-10
6.23632e-10
-2.71678e-10
-1.60594e-10
-3.03742e-10
-2.56725e-10
-1.52959e-10
-4.32114e-10
-1.15008e-10
-5.60078e-10
-4.46717e-10
-5.83397e-10
-7.8382e-10
-4.16454e-10
-2.15496e-10
-1.60323e-10
7.48288e-10
6.65585e-11
9.04644e-10
3.93388e-10
2.07798e-10
5.68882e-10
-3.19276e-10
5.72617e-10
1.06625e-10
6.97309e-10
4.2716e-10
5.13632e-10
1.04236e-09
4.32973e-10
5.39706e-10
3.82853e-10
-1.92223e-10
3.46733e-10
-3.88913e-10
1.98371e-10
-7.04695e-11
-8.52971e-11
5.56983e-10
-3.20043e-10
6.03989e-10
-3.6481e-10
-2.14646e-10
-3.41886e-10
-1.59523e-10
-1.24546e-10
-2.87494e-10
-1.12989e-10
-4.20186e-10
-3.78984e-10
-5.25716e-10
-6.56033e-10
-4.08802e-10
-7.68378e-11
-8.77249e-11
8.51564e-10
2.12697e-10
9.61244e-10
4.42688e-10
2.68728e-10
5.34241e-10
-2.25778e-10
6.00295e-10
8.21175e-11
3.54391e-10
8.64213e-10
3.99446e-10
8.94198e-10
3.552e-10
3.63914e-10
2.65145e-10
-2.47356e-10
1.0323e-10
-3.82032e-10
-1.26304e-10
-1.1777e-10
-3.0093e-10
4.43096e-10
-3.95946e-10
5.053e-10
-4.38288e-10
-2.43221e-10
-3.43573e-10
-5.40322e-11
-7.80094e-11
-1.32709e-10
-9.78395e-11
-2.74629e-10
-3.09055e-10
-4.32457e-10
-5.1384e-10
-3.79778e-10
1.93638e-11
-4.09839e-11
8.48031e-10
3.22748e-10
9.43347e-10
4.7578e-10
3.04029e-10
4.91104e-10
-1.39692e-10
3.33862e-10
1.06754e-10
4.48906e-10
5.20994e-10
4.05127e-10
7.35062e-10
2.6312e-10
2.7824e-10
6.53171e-11
-2.46938e-10
-1.6378e-10
-4.26842e-10
-3.7822e-10
-2.08693e-10
-4.62439e-10
3.11855e-10
-4.42491e-10
3.95622e-10
-4.70701e-10
-2.36628e-10
-3.04496e-10
4.5908e-11
-4.50339e-11
1.55344e-11
-7.00586e-11
-1.42622e-10
-2.17048e-10
-3.52494e-10
-3.54638e-10
-3.3311e-10
4.50506e-11
2.77536e-11
6.7601e-10
4.25297e-10
7.71511e-10
5.34975e-10
3.12728e-10
3.88052e-10
-3.77846e-11
2.83317e-10
5.6038e-11
1.76761e-10
5.33598e-10
2.44563e-10
4.58416e-10
2.3018e-10
1.17153e-10
1.33839e-11
-2.76702e-10
-3.03945e-10
-3.85779e-10
-5.43084e-10
-2.03012e-10
-5.53071e-10
1.99059e-10
-4.47686e-10
2.80325e-10
-4.90777e-10
-1.76536e-10
-2.23289e-10
1.34351e-10
-1.88885e-11
1.14956e-10
-2.71466e-11
-4.08884e-11
-1.02827e-10
-2.63862e-10
-1.89536e-10
-2.62503e-10
2.27749e-11
7.94456e-11
3.873e-10
4.61907e-10
4.54416e-10
5.4393e-10
2.01909e-10
3.27658e-10
-5.49643e-12
1.00272e-10
8.31909e-11
2.3266e-10
2.02099e-10
3.04262e-10
2.48092e-10
2.07726e-10
6.84288e-11
-1.22315e-10
-1.50073e-10
-4.76703e-10
-2.21663e-10
-6.56013e-10
-1.36683e-10
-5.55456e-10
7.48522e-11
-3.90542e-10
1.39719e-10
-4.74075e-10
-8.14476e-11
-1.13599e-10
1.74667e-10
1.70988e-10
-1.72797e-12
-2.41605e-10
-2.28801e-10
1.23802e-10
5.16049e-10
5.53699e-10
2.96892e-10
1.34004e-10
1.04192e-10
2.21232e-10
1.63476e-10
-1.31289e-10
-4.78208e-10
-6.53153e-10
-5.42968e-10
-3.78511e-10
-4.82526e-10
)
;

boundaryField
{
    sides
    {
        type            calculated;
        value           uniform 0;
    }
    inlet
    {
        type            calculated;
        value           uniform 0;
    }
    outlet
    {
        type            calculated;
        value           nonuniform List<scalar> 
20
(
-6.05611e-10
-6.9496e-10
-5.52507e-10
-5.81846e-10
-5.48794e-10
-4.24384e-10
-3.46729e-10
-1.96165e-10
-4.75946e-11
2.07606e-11
9.60753e-12
-2.97718e-11
-1.23625e-10
-2.1864e-10
-3.26387e-10
-4.37635e-10
-5.13356e-10
-5.70474e-10
-5.86836e-10
-6.17054e-10
)
;
    }
    frontAndBack
    {
        type            empty;
        value           nonuniform List<scalar> 0();
    }
}


// ************************************************************************* //
