/*--------------------------------*- C++ -*----------------------------------*\
  =========                 |
  \\      /  F ield         | OpenFOAM: The Open Source CFD Toolbox
   \\    /   O peration     | Website:  https://openfoam.org
    \\  /    A nd           | Version:  9
     \\/     M anipulation  |
\*---------------------------------------------------------------------------*/
FoamFile
{
    format      ascii;
    class       volScalarField;
    location    "29";
    object      h;
}
// * * * * * * * * * * * * * * * * * * * * * * * * * * * * * * * * * * * * * //

dimensions      [0 1 0 0 0 0 0];

internalField   nonuniform List<scalar> 
400
(
0.0100005
0.0100004
0.0100004
0.0100003
0.0100002
0.00999998
0.00999974
0.00999945
0.00999917
0.00999893
0.00999878
0.00999873
0.0099988
0.00999896
0.00999919
0.00999945
0.00999968
0.00999986
0.00999995
0.01
0.0100004
0.0100004
0.0100003
0.0100002
0.0100001
0.00999991
0.00999964
0.00999933
0.00999901
0.00999874
0.00999857
0.00999852
0.00999862
0.00999882
0.00999909
0.00999938
0.00999961
0.00999977
0.00999986
0.00999994
0.0100004
0.0100004
0.0100003
0.0100003
0.0100001
0.00999992
0.00999964
0.00999928
0.0099989
0.00999858
0.00999835
0.0099983
0.00999842
0.00999871
0.00999908
0.00999945
0.00999974
0.0099999
0.00999997
0.00999999
0.0100004
0.0100004
0.0100004
0.0100003
0.0100002
0.00999997
0.00999962
0.00999918
0.00999869
0.00999823
0.00999793
0.00999788
0.00999812
0.0099986
0.00999914
0.00999957
0.0099998
0.00999986
0.00999987
0.00999993
0.0100005
0.0100005
0.0100005
0.0100004
0.0100003
0.0100001
0.00999965
0.00999908
0.00999843
0.00999776
0.00999728
0.00999722
0.00999764
0.00999849
0.0099994
0.01
0.0100002
0.0100001
0.00999998
0.00999996
0.0100006
0.0100006
0.0100006
0.0100006
0.0100005
0.0100003
0.00999975
0.009999
0.00999805
0.00999714
0.00999644
0.00999634
0.00999706
0.00999838
0.00999965
0.0100003
0.0100004
0.0100001
0.00999986
0.00999989
0.0100007
0.0100007
0.0100008
0.0100009
0.0100009
0.0100007
0.0100001
0.00999908
0.0099975
0.00999563
0.00999437
0.00999462
0.00999674
0.00999948
0.0100013
0.0100015
0.0100007
0.00999998
0.00999969
0.00999985
0.0100008
0.0100009
0.0100011
0.0100013
0.0100014
0.0100013
0.0100008
0.00999972
0.00999777
0.00999458
0.00999079
0.00999039
0.00999457
0.0100002
0.0100033
0.0100031
0.0100012
0.00999982
0.00999948
0.00999983
0.0100008
0.010001
0.0100013
0.0100017
0.0100021
0.0100023
0.0100019
0.00999994
0.00999591
0.0099901
0.00998698
0.00998993
0.0099982
0.0100038
0.0100045
0.0100025
0.0100003
0.00999936
0.00999946
0.00999988
0.0100008
0.010001
0.0100014
0.010002
0.0100029
0.0100044
0.0100063
0.0100083
0.0100053
0.00897884
0.00895267
0.00997609
0.010009
0.0100179
0.0100105
0.0100024
0.00999889
0.00999893
0.0099998
0.0100002
0.0100008
0.010001
0.0100013
0.010002
0.0100029
0.0100044
0.0100063
0.0100082
0.0100053
0.00897879
0.0089527
0.00997604
0.0100089
0.0100179
0.0100105
0.0100023
0.00999888
0.00999891
0.00999977
0.0100001
0.0100006
0.0100008
0.0100011
0.0100015
0.0100019
0.0100021
0.0100017
0.00999975
0.00999572
0.00998988
0.0099868
0.00998978
0.00999809
0.0100037
0.0100044
0.0100023
0.0100002
0.00999933
0.00999947
0.00999989
0.0100004
0.0100005
0.0100007
0.0100009
0.010001
0.0100009
0.0100005
0.00999944
0.00999752
0.00999437
0.00999059
0.00999018
0.00999436
0.01
0.0100031
0.0100029
0.0100011
0.00999975
0.00999946
0.00999982
0.0100002
0.0100003
0.0100004
0.0100004
0.0100004
0.0100002
0.00999968
0.00999866
0.00999709
0.00999525
0.00999396
0.00999428
0.00999643
0.00999921
0.0100011
0.0100013
0.0100006
0.00999985
0.00999961
0.00999982
0.00999993
0.00999999
0.01
0.01
0.00999996
0.0099997
0.00999921
0.00999847
0.00999755
0.00999666
0.00999602
0.00999593
0.00999668
0.00999803
0.00999934
0.0100001
0.0100001
0.00999991
0.00999976
0.00999986
0.00999971
0.00999974
0.00999975
0.00999972
0.00999962
0.00999938
0.00999898
0.00999843
0.00999779
0.00999714
0.00999666
0.00999664
0.00999711
0.00999799
0.00999894
0.00999962
0.00999988
0.00999987
0.00999983
0.0099999
0.00999952
0.00999952
0.00999951
0.00999946
0.00999936
0.00999915
0.00999882
0.0099984
0.00999793
0.0099975
0.00999725
0.00999723
0.0099975
0.00999802
0.00999864
0.00999915
0.00999948
0.00999964
0.00999974
0.00999989
0.00999936
0.00999935
0.00999932
0.00999926
0.00999915
0.00999897
0.0099987
0.00999835
0.00999798
0.00999767
0.00999747
0.00999746
0.00999765
0.00999799
0.00999843
0.00999887
0.00999922
0.00999948
0.00999969
0.00999988
0.00999924
0.00999922
0.00999918
0.00999912
0.00999901
0.00999884
0.00999861
0.00999832
0.00999803
0.0099978
0.00999766
0.00999764
0.00999776
0.00999802
0.00999838
0.00999876
0.00999912
0.00999941
0.00999965
0.00999988
0.00999911
0.00999908
0.00999903
0.00999896
0.00999885
0.00999869
0.00999846
0.00999819
0.00999793
0.00999773
0.00999761
0.00999761
0.00999772
0.00999795
0.00999826
0.00999861
0.00999895
0.00999925
0.00999954
0.00999983
)
;

boundaryField
{
    sides
    {
        type            zeroGradient;
    }
    inlet
    {
        type            zeroGradient;
    }
    outlet
    {
        type            fixedValue;
        value           uniform 0.01;
    }
    frontAndBack
    {
        type            empty;
    }
}


// ************************************************************************* //
