/*--------------------------------*- C++ -*----------------------------------*\
  =========                 |
  \\      /  F ield         | OpenFOAM: The Open Source CFD Toolbox
   \\    /   O peration     | Website:  https://openfoam.org
    \\  /    A nd           | Version:  9
     \\/     M anipulation  |
\*---------------------------------------------------------------------------*/
FoamFile
{
    format      ascii;
    class       volScalarField;
    location    "29";
    object      h_0;
}
// * * * * * * * * * * * * * * * * * * * * * * * * * * * * * * * * * * * * * //

dimensions      [0 1 0 0 0 0 0];

internalField   nonuniform List<scalar> 
400
(
0.0100005
0.0100004
0.0100004
0.0100003
0.0100001
0.00999997
0.00999974
0.00999947
0.00999919
0.00999896
0.00999881
0.00999877
0.00999884
0.00999902
0.00999925
0.00999951
0.00999973
0.0099999
0.00999998
0.01
0.0100004
0.0100004
0.0100003
0.0100002
0.0100001
0.00999989
0.00999965
0.00999934
0.00999903
0.00999877
0.0099986
0.00999856
0.00999867
0.00999888
0.00999915
0.00999943
0.00999966
0.00999981
0.00999989
0.00999995
0.0100004
0.0100004
0.0100003
0.0100002
0.0100001
0.0099999
0.00999964
0.0099993
0.00999894
0.00999862
0.0099984
0.00999835
0.00999847
0.00999876
0.00999913
0.0099995
0.00999978
0.00999994
0.00999999
0.01
0.0100004
0.0100004
0.0100004
0.0100003
0.0100002
0.00999995
0.00999963
0.00999921
0.00999873
0.00999828
0.00999797
0.00999792
0.00999816
0.00999864
0.00999918
0.00999961
0.00999983
0.00999989
0.00999989
0.00999993
0.0100005
0.0100005
0.0100004
0.0100004
0.0100003
0.01
0.00999966
0.00999911
0.00999847
0.0099978
0.00999733
0.00999724
0.00999767
0.00999851
0.00999941
0.01
0.0100002
0.0100001
0.00999999
0.00999996
0.0100005
0.0100006
0.0100006
0.0100006
0.0100005
0.0100002
0.00999975
0.00999902
0.00999809
0.00999717
0.00999648
0.00999636
0.00999706
0.00999838
0.00999965
0.0100003
0.0100004
0.0100001
0.00999986
0.00999989
0.0100006
0.0100007
0.0100008
0.0100008
0.0100008
0.0100006
0.0100001
0.0099991
0.00999752
0.00999567
0.00999432
0.00999463
0.00999673
0.00999946
0.0100012
0.0100014
0.0100007
0.00999995
0.00999967
0.00999985
0.0100007
0.0100008
0.010001
0.0100012
0.0100013
0.0100012
0.0100008
0.00999973
0.00999779
0.0099946
0.00999081
0.00999033
0.00999455
0.0100002
0.0100033
0.010003
0.0100012
0.00999977
0.00999945
0.00999981
0.0100008
0.010001
0.0100013
0.0100017
0.0100021
0.0100023
0.0100018
0.00999993
0.00999591
0.00999009
0.00998695
0.00998994
0.00999814
0.0100037
0.0100044
0.0100024
0.0100002
0.0099993
0.00999941
0.00999987
0.0100008
0.010001
0.0100013
0.010002
0.0100029
0.0100044
0.0100063
0.0100083
0.0100053
0.00897881
0.0089527
0.00997603
0.0100089
0.0100179
0.0100105
0.0100023
0.00999881
0.00999886
0.00999975
0.0100001
0.0100007
0.0100009
0.0100013
0.0100019
0.0100028
0.0100043
0.0100062
0.0100082
0.0100053
0.00897878
0.00895268
0.00997598
0.0100089
0.0100178
0.0100104
0.0100023
0.00999881
0.00999885
0.00999973
0.0100001
0.0100006
0.0100008
0.010001
0.0100014
0.0100019
0.0100021
0.0100016
0.00999975
0.00999572
0.00998988
0.00998686
0.00998976
0.00999803
0.0100036
0.0100043
0.0100023
0.0100002
0.00999928
0.00999943
0.00999988
0.0100004
0.0100005
0.0100007
0.0100009
0.010001
0.0100009
0.0100005
0.00999944
0.00999753
0.00999439
0.00999049
0.00999015
0.00999433
0.00999998
0.0100031
0.0100028
0.0100011
0.00999971
0.00999943
0.00999981
0.0100001
0.0100002
0.0100003
0.0100004
0.0100004
0.0100002
0.00999967
0.00999867
0.00999711
0.00999528
0.00999396
0.00999429
0.00999641
0.00999919
0.010001
0.0100013
0.0100005
0.00999982
0.00999959
0.00999982
0.0099999
0.00999994
0.00999997
0.00999998
0.00999991
0.00999967
0.0099992
0.00999848
0.00999758
0.00999668
0.00999604
0.00999594
0.00999669
0.00999803
0.00999933
0.0100001
0.0100001
0.0099999
0.00999975
0.00999986
0.00999968
0.0099997
0.0099997
0.00999966
0.00999957
0.00999935
0.00999898
0.00999845
0.00999782
0.00999718
0.0099967
0.00999667
0.00999714
0.00999801
0.00999896
0.00999963
0.00999989
0.00999988
0.00999984
0.0099999
0.0099995
0.00999949
0.00999947
0.00999941
0.00999931
0.00999913
0.00999883
0.00999842
0.00999796
0.00999754
0.00999729
0.00999726
0.00999754
0.00999806
0.00999867
0.00999918
0.00999951
0.00999966
0.00999976
0.00999989
0.00999935
0.00999933
0.00999929
0.00999922
0.00999911
0.00999894
0.00999869
0.00999837
0.00999802
0.00999771
0.00999751
0.00999751
0.0099977
0.00999804
0.00999848
0.00999891
0.00999927
0.00999952
0.00999971
0.00999989
0.00999924
0.00999921
0.00999916
0.00999908
0.00999897
0.00999882
0.0099986
0.00999833
0.00999806
0.00999783
0.0099977
0.00999768
0.00999781
0.00999808
0.00999844
0.00999882
0.00999917
0.00999945
0.00999968
0.00999989
0.00999912
0.00999908
0.00999902
0.00999893
0.00999882
0.00999866
0.00999846
0.0099982
0.00999795
0.00999775
0.00999764
0.00999765
0.00999778
0.00999801
0.00999832
0.00999866
0.009999
0.0099993
0.00999957
0.00999984
)
;

boundaryField
{
    sides
    {
        type            zeroGradient;
    }
    inlet
    {
        type            zeroGradient;
    }
    outlet
    {
        type            fixedValue;
        value           uniform 0.01;
    }
    frontAndBack
    {
        type            empty;
    }
}


// ************************************************************************* //
