/*--------------------------------*- C++ -*----------------------------------*\
  =========                 |
  \\      /  F ield         | OpenFOAM: The Open Source CFD Toolbox
   \\    /   O peration     | Website:  https://openfoam.org
    \\  /    A nd           | Version:  9
     \\/     M anipulation  |
\*---------------------------------------------------------------------------*/
FoamFile
{
    format      ascii;
    class       surfaceScalarField;
    location    "29";
    object      phi;
}
// * * * * * * * * * * * * * * * * * * * * * * * * * * * * * * * * * * * * * //

dimensions      [0 4 -1 0 0 0 0];

internalField   nonuniform List<scalar> 
760
(
5.0001e-06
-3.65992e-11
5.0003e-06
-1.6823e-10
5.00063e-06
-3.40655e-10
5.00119e-06
-6.17557e-10
5.00204e-06
-9.05447e-10
5.00302e-06
-1.02029e-09
5.00399e-06
-9.55514e-10
5.00488e-06
-8.57227e-10
5.0057e-06
-7.68148e-10
5.00634e-06
-5.80186e-10
5.0066e-06
-1.92734e-10
5.00625e-06
4.44307e-10
5.00536e-06
1.00142e-09
5.00424e-06
1.2477e-09
5.00315e-06
1.24067e-09
5.00233e-06
9.49246e-10
5.00174e-06
7.14949e-10
5.00146e-06
3.89283e-10
5.00124e-06
3.0122e-10
-3.59781e-10
5.00011e-06
-1.14077e-10
5.00034e-06
-3.85305e-10
5.00069e-06
-7.26671e-10
5.00129e-06
-1.28216e-09
5.00219e-06
-1.86861e-09
5.00326e-06
-2.12993e-09
5.00436e-06
-2.04349e-09
5.00543e-06
-1.88394e-09
5.00644e-06
-1.72087e-09
5.00719e-06
-1.26857e-09
5.00729e-06
-2.18543e-10
5.00686e-06
9.68642e-10
5.00585e-06
2.12634e-09
5.00453e-06
2.70018e-09
5.00331e-06
2.59864e-09
5.0025e-06
1.89536e-09
5.00204e-06
1.28926e-09
5.00171e-06
8.24394e-10
5.00142e-06
6.64586e-10
-9.74742e-11
5.00009e-06
-1.99494e-10
5.00031e-06
-6.38822e-10
5.00068e-06
-1.15481e-09
5.00131e-06
-1.97972e-09
5.00225e-06
-2.88094e-09
5.00344e-06
-3.3614e-09
5.00475e-06
-3.34271e-09
5.00609e-06
-3.16088e-09
5.0073e-06
-2.84959e-09
5.00819e-06
-2.06348e-09
5.00851e-06
-4.44437e-10
5.00788e-06
1.71474e-09
5.00648e-06
3.63233e-09
5.00476e-06
4.54454e-09
5.00315e-06
4.31906e-09
5.00206e-06
3.10261e-09
5.00151e-06
1.94512e-09
5.00125e-06
1.16269e-09
5.00109e-06
8.80419e-10
-1.50366e-10
5.00006e-06
-3.00555e-10
5.00028e-06
-9.18427e-10
5.00067e-06
-1.62849e-09
5.00134e-06
-2.74451e-09
5.00237e-06
-3.99761e-09
5.00376e-06
-4.78874e-09
5.00544e-06
-5.00015e-09
5.00734e-06
-4.98972e-09
5.00926e-06
-4.6788e-09
5.01058e-06
-3.27169e-09
5.01081e-06
-5.68645e-10
5.00964e-06
2.97065e-09
5.0073e-06
6.06945e-09
5.00479e-06
7.13975e-09
5.00313e-06
6.05572e-09
5.00238e-06
3.92934e-09
5.00218e-06
2.21707e-09
5.00204e-06
1.36046e-09
5.00174e-06
1.21949e-09
4.18734e-10
5.00003e-06
-4.00016e-10
5.00021e-06
-1.18774e-09
5.00058e-06
-2.10883e-09
5.00125e-06
-3.53432e-09
5.00236e-06
-5.21273e-09
5.00402e-06
-6.48654e-09
5.00623e-06
-7.17774e-09
5.00886e-06
-7.55508e-09
5.01189e-06
-7.59485e-09
5.01435e-06
-5.65121e-09
5.01446e-06
-5.43901e-10
5.01252e-06
4.9648e-09
5.00835e-06
1.03072e-08
5.00427e-06
1.12709e-08
5.00192e-06
8.43678e-09
5.00144e-06
4.4315e-09
5.00175e-06
1.92726e-09
5.00188e-06
1.2432e-09
5.00156e-06
1.56016e-09
7.30292e-10
4.99998e-06
-4.67772e-10
5.00006e-06
-1.38438e-09
5.0003e-06
-2.48388e-09
5.00084e-06
-4.21835e-09
5.00191e-06
-6.39384e-09
5.00395e-06
-8.56638e-09
5.00703e-06
-1.02401e-08
5.01117e-06
-1.16253e-08
5.01511e-06
-1.14319e-08
5.01863e-06
-9.08639e-09
5.01985e-06
-1.71016e-09
5.01571e-06
9.18203e-09
5.00923e-06
1.67769e-08
5.00395e-06
1.6546e-08
5.00188e-06
1.04924e-08
5.00214e-06
4.13951e-09
5.00286e-06
1.17901e-09
5.00299e-06
1.08958e-09
5.00239e-06
2.13632e-09
1.53044e-09
4.99991e-06
-4.73306e-10
4.9998e-06
-1.40211e-09
4.99981e-06
-2.64871e-09
5.00001e-06
-4.57548e-09
5.00072e-06
-7.21704e-09
5.00234e-06
-1.02389e-08
5.00624e-06
-1.41482e-08
5.01347e-06
-1.87902e-08
5.02339e-06
-2.12921e-08
5.03066e-06
-1.62215e-08
5.02843e-06
3.65532e-10
5.01644e-06
2.11566e-08
5.00392e-06
2.92869e-08
4.99847e-06
2.19276e-08
5.00028e-06
8.60885e-09
5.00247e-06
1.86075e-09
5.00328e-06
3.06804e-10
5.00319e-06
1.10141e-09
5.00255e-06
2.71809e-09
1.76894e-09
4.99979e-06
-3.58838e-10
4.99941e-06
-1.15656e-09
4.99891e-06
-2.31646e-09
4.99853e-06
-4.34424e-09
4.99883e-06
-7.64526e-09
4.99975e-06
-1.12276e-08
5.00309e-06
-1.75098e-08
5.00943e-06
-2.50971e-08
5.02462e-06
-3.64036e-08
5.05582e-06
-4.74858e-08
5.0498e-06
7.65595e-09
5.0229e-06
4.78742e-08
4.99799e-06
5.41077e-08
4.99336e-06
2.64706e-08
4.99922e-06
2.62028e-09
5.00371e-06
-2.77382e-09
5.0044e-06
-5.50493e-10
5.00316e-06
2.21531e-09
5.00298e-06
2.79591e-09
1.03411e-09
4.99969e-06
-1.40862e-10
4.999e-06
-6.10362e-10
4.99772e-06
-1.19918e-09
4.9958e-06
-2.58218e-09
4.99354e-06
-5.51479e-09
4.99315e-06
-1.09352e-08
4.99892e-06
-2.33037e-08
5.01675e-06
-4.29264e-08
5.05543e-06
-7.50828e-08
5.06661e-06
-5.85511e-08
5.04941e-06
2.35654e-08
4.99625e-06
1.01101e-07
4.98912e-06
6.11404e-08
4.99578e-06
1.96672e-08
4.99998e-06
-1.7465e-09
5.00255e-06
-5.51718e-09
5.00198e-06
-1.51192e-10
5.00126e-06
2.77748e-09
5.00201e-06
1.9291e-09
9.62014e-11
4.99977e-06
-8.48173e-12
4.99905e-06
-2.59991e-11
4.99771e-06
-2.61875e-11
4.99501e-06
-3.36503e-11
4.9894e-06
-5.43037e-11
4.97847e-06
-1.04311e-10
4.95529e-06
-1.71227e-10
4.91262e-06
-2.5996e-10
4.83794e-06
-3.69489e-10
4.77976e-06
-4.46142e-10
4.80406e-06
-6.06755e-10
4.90583e-06
-7.62088e-10
4.9676e-06
-8.04713e-10
4.98804e-06
-9.3241e-10
4.98725e-06
-1.13469e-09
4.98289e-06
-1.34609e-09
4.984e-06
-1.44525e-09
4.98832e-06
-1.70428e-09
4.9919e-06
-1.78464e-09
-2.59403e-09
4.99977e-06
1.23432e-10
4.99905e-06
5.59504e-10
4.99771e-06
1.14793e-09
4.99499e-06
2.51779e-09
4.98938e-06
5.4129e-09
4.97843e-06
1.0735e-08
4.95524e-06
2.2982e-08
4.91256e-06
4.24165e-08
4.83783e-06
7.43821e-08
4.77952e-06
5.78251e-08
4.80403e-06
-2.51327e-08
4.90576e-06
-1.02659e-07
4.96759e-06
-6.27711e-08
4.9879e-06
-2.1404e-08
4.98714e-06
-5.53438e-10
4.98256e-06
3.04799e-09
4.98388e-06
-2.94366e-09
4.98829e-06
-6.27908e-09
4.99178e-06
-5.39851e-09
-5.03042e-09
4.99968e-06
3.39337e-10
4.99899e-06
1.11076e-09
4.9977e-06
2.26356e-09
4.99578e-06
4.27553e-09
4.99352e-06
7.52632e-09
4.99314e-06
1.10227e-08
4.99889e-06
1.7183e-08
5.0167e-06
2.46186e-08
5.05538e-06
3.57151e-08
5.06693e-06
4.62876e-08
5.04914e-06
-6.49264e-09
4.9958e-06
-4.93523e-08
4.98861e-06
-5.57216e-08
4.9955e-06
-2.84423e-08
4.99987e-06
-5.07582e-09
5.00195e-06
8.07788e-10
5.00113e-06
-2.2879e-09
5.00034e-06
-5.64421e-09
5.00116e-06
-6.33357e-09
-6.02803e-09
4.99978e-06
4.49527e-10
4.99938e-06
1.36043e-09
4.99888e-06
2.59808e-09
4.99848e-06
4.50259e-09
4.99877e-06
7.10459e-09
4.99966e-06
1.0048e-08
5.00292e-06
1.38883e-08
5.00921e-06
1.83461e-08
5.02431e-06
2.06631e-08
5.05522e-06
1.53976e-08
5.0495e-06
-1.6759e-09
5.02255e-06
-2.25034e-08
4.99766e-06
-3.09015e-08
4.99298e-06
-2.38561e-08
4.99838e-06
-1.06e-08
5.00306e-06
-4.00299e-09
5.00323e-06
-2.59319e-09
5.00182e-06
-4.36708e-09
5.00166e-06
-6.2597e-09
-6.63224e-09
4.99989e-06
4.40678e-10
4.99976e-06
1.34775e-09
4.99975e-06
2.44212e-09
4.99993e-06
4.15708e-09
5.00062e-06
6.29494e-09
5.0022e-06
8.39315e-09
5.00612e-06
9.95386e-09
5.01333e-06
1.11745e-08
5.0232e-06
1.08416e-08
5.03039e-06
8.29256e-09
5.02809e-06
5.95444e-10
5.01596e-06
-1.03558e-08
5.00321e-06
-1.81884e-08
4.99749e-06
-1.81918e-08
4.9991e-06
-1.22797e-08
5.00123e-06
-6.21313e-09
5.00195e-06
-3.40501e-09
5.00167e-06
-4.16651e-09
5.00075e-06
-5.39764e-09
-6.08462e-09
4.99996e-06
3.73925e-10
5.00002e-06
1.15824e-09
5.00023e-06
2.07616e-09
5.00074e-06
3.48387e-09
5.0018e-06
5.12276e-09
5.00381e-06
6.32406e-09
5.00684e-06
6.92448e-09
5.0109e-06
7.18028e-09
5.01472e-06
7.09094e-09
5.01817e-06
4.91536e-09
5.0192e-06
-3.73244e-10
5.01488e-06
-6.01172e-09
5.00821e-06
-1.15183e-08
5.00279e-06
-1.27791e-08
5.00055e-06
-1.00521e-08
5.00065e-06
-6.33343e-09
5.00116e-06
-3.95268e-09
5.00091e-06
-3.96024e-09
4.99996e-06
-4.46779e-09
-5.0858e-09
5.00001e-06
2.78119e-10
5.00016e-06
8.96926e-10
5.0005e-06
1.60393e-09
5.00114e-06
2.70248e-09
5.00222e-06
3.9226e-09
5.00384e-06
4.66019e-09
5.00598e-06
4.80095e-09
5.00854e-06
4.68725e-09
5.01151e-06
4.21392e-09
5.01393e-06
2.59764e-09
5.01375e-06
-9.76972e-11
5.01174e-06
-3.93078e-09
5.0074e-06
-7.13392e-09
5.00311e-06
-8.44505e-09
5.00055e-06
-7.44673e-09
4.99977e-06
-5.54033e-09
4.99978e-06
-3.93944e-09
4.99955e-06
-3.71838e-09
4.99884e-06
-3.74669e-09
-4.27181e-09
5.00004e-06
1.81849e-10
5.00023e-06
6.2213e-10
5.00059e-06
1.13673e-09
5.00122e-06
1.94851e-09
5.00221e-06
2.82576e-09
5.00357e-06
3.25588e-09
5.0052e-06
3.18182e-09
5.00702e-06
2.93565e-09
5.00876e-06
2.57223e-09
5.0098e-06
1.65047e-09
5.01001e-06
-2.30008e-10
5.00861e-06
-2.44652e-09
5.00605e-06
-4.48772e-09
5.00322e-06
-5.536e-09
5.00114e-06
-5.28775e-09
5.00001e-06
-4.34171e-09
4.99943e-06
-3.30076e-09
4.99892e-06
-3.14148e-09
4.99818e-06
-2.97043e-09
-3.296e-09
5.00005e-06
1.01229e-10
5.00025e-06
3.80727e-10
5.00059e-06
7.14323e-10
5.00119e-06
1.24386e-09
5.00211e-06
1.81079e-09
5.00325e-06
2.05303e-09
5.00451e-06
1.93477e-09
5.00579e-06
1.70516e-09
5.007e-06
1.45107e-09
5.00782e-06
9.16396e-10
5.00776e-06
-5.89172e-11
5.00693e-06
-1.51408e-09
5.00527e-06
-2.7187e-09
5.00322e-06
-3.37415e-09
5.00136e-06
-3.30995e-09
5e-06
-2.87494e-09
4.99909e-06
-2.29172e-09
4.99832e-06
-2.2819e-09
4.9975e-06
-2.08495e-09
-2.33601e-09
5.00004e-06
5.7215e-11
5.00022e-06
1.86337e-10
5.00053e-06
3.45682e-10
5.00108e-06
6.12025e-10
5.00191e-06
8.95869e-10
5.0029e-06
1.00582e-09
5.0039e-06
9.27136e-10
5.00484e-06
8.03316e-10
5.00567e-06
6.80708e-10
5.00624e-06
4.13762e-10
5.00636e-06
-1.00565e-10
5.00564e-06
-6.89445e-10
5.0043e-06
-1.25498e-09
5.00264e-06
-1.58731e-09
5.00105e-06
-1.58028e-09
4.99974e-06
-1.43246e-09
4.99875e-06
-1.16964e-09
4.9978e-06
-1.22572e-09
4.99689e-06
-1.10083e-09
-1.45077e-09
5.00008e-06
5.00026e-06
5.00056e-06
5.0011e-06
5.00192e-06
5.00287e-06
5.00378e-06
5.00461e-06
5.00532e-06
5.00579e-06
5.00576e-06
5.00517e-06
5.00404e-06
5.0026e-06
5.00116e-06
4.99987e-06
4.99884e-06
4.99773e-06
4.9967e-06
)
;

boundaryField
{
    sides
    {
        type            calculated;
        value           uniform 0;
    }
    inlet
    {
        type            calculated;
        value           nonuniform List<scalar> 
20
(
-5e-06
-5e-06
-5e-06
-5e-06
-5e-06
-5e-06
-5e-06
-5e-06
-5e-06
-5e-06
-5e-06
-5e-06
-5e-06
-5e-06
-5e-06
-5e-06
-5e-06
-5e-06
-5e-06
-5e-06
)
;
    }
    outlet
    {
        type            calculated;
        value           nonuniform List<scalar> 
20
(
5.00163e-06
5.00118e-06
5.00115e-06
5.00118e-06
5.00125e-06
5.00158e-06
5.00229e-06
5.00368e-06
5.00289e-06
4.99455e-06
4.99417e-06
5.00212e-06
5.00224e-06
5.00018e-06
4.99895e-06
4.99803e-06
4.99722e-06
4.99656e-06
4.99603e-06
4.99527e-06
)
;
    }
    frontAndBack
    {
        type            empty;
        value           nonuniform List<scalar> 0();
    }
}


// ************************************************************************* //
