/*--------------------------------*- C++ -*----------------------------------*\
  =========                 |
  \\      /  F ield         | OpenFOAM: The Open Source CFD Toolbox
   \\    /   O peration     | Website:  https://openfoam.org
    \\  /    A nd           | Version:  9
     \\/     M anipulation  |
\*---------------------------------------------------------------------------*/
FoamFile
{
    format      ascii;
    class       surfaceScalarField;
    location    "29";
    object      phi_0;
}
// * * * * * * * * * * * * * * * * * * * * * * * * * * * * * * * * * * * * * //

dimensions      [0 4 -1 0 0 0 0];

internalField   nonuniform List<scalar> 
760
(
5.00008e-06
-3.46458e-11
5.00029e-06
-1.6553e-10
5.00064e-06
-3.41904e-10
5.00122e-06
-6.28379e-10
5.00205e-06
-9.03216e-10
5.003e-06
-9.87838e-10
5.00393e-06
-9.14505e-10
5.00482e-06
-8.40236e-10
5.00567e-06
-7.6991e-10
5.00633e-06
-5.74631e-10
5.00659e-06
-1.67628e-10
5.00623e-06
4.80544e-10
5.00534e-06
1.01579e-09
5.00425e-06
1.24265e-09
5.00319e-06
1.22873e-09
5.0024e-06
9.4783e-10
5.0018e-06
7.33439e-10
5.0015e-06
4.0873e-10
5.00129e-06
2.89304e-10
-3.74461e-10
5.0001e-06
-1.08752e-10
5.00033e-06
-3.76331e-10
5.0007e-06
-7.30432e-10
5.00132e-06
-1.30738e-09
5.00221e-06
-1.86702e-09
5.00325e-06
-2.06728e-09
5.0043e-06
-1.96801e-09
5.00537e-06
-1.85284e-09
5.00641e-06
-1.73039e-09
5.00719e-06
-1.26477e-09
5.00727e-06
-1.62291e-10
5.00684e-06
1.02052e-09
5.00584e-06
2.15435e-09
5.00454e-06
2.69055e-09
5.00335e-06
2.57726e-09
5.00255e-06
1.88886e-09
5.0021e-06
1.31497e-09
5.00176e-06
8.56318e-10
5.00147e-06
6.48747e-10
-1.33861e-10
5.00009e-06
-1.93461e-10
5.00032e-06
-6.27185e-10
5.0007e-06
-1.16425e-09
5.00133e-06
-2.02043e-09
5.00227e-06
-2.88013e-09
5.00343e-06
-3.28025e-09
5.00471e-06
-3.24743e-09
5.00603e-06
-3.12559e-09
5.00726e-06
-2.86524e-09
5.00816e-06
-2.06222e-09
5.0085e-06
-3.77078e-10
5.00785e-06
1.79049e-09
5.00646e-06
3.67413e-09
5.00476e-06
4.53587e-09
5.00318e-06
4.29351e-09
5.0021e-06
3.0976e-09
5.00155e-06
1.98635e-09
5.00129e-06
1.21108e-09
5.00114e-06
8.46468e-10
-1.86878e-10
5.00007e-06
-2.97465e-10
5.0003e-06
-9.08177e-10
5.0007e-06
-1.64689e-09
5.00138e-06
-2.79814e-09
5.0024e-06
-4.00224e-09
5.00376e-06
-4.70429e-09
5.0054e-06
-4.8982e-09
5.00729e-06
-4.96056e-09
5.00922e-06
-4.69888e-09
5.01055e-06
-3.27297e-09
5.01077e-06
-5.04434e-10
5.00961e-06
3.06839e-09
5.00727e-06
6.12029e-09
5.00478e-06
7.13908e-09
5.00314e-06
6.03654e-09
5.00241e-06
3.93032e-09
5.00222e-06
2.26472e-09
5.00209e-06
1.41453e-09
5.00179e-06
1.19011e-09
3.727e-10
5.00005e-06
-4.02425e-10
5.00024e-06
-1.18132e-09
5.00061e-06
-2.13323e-09
5.00129e-06
-3.59672e-09
5.00239e-06
-5.22912e-09
5.00402e-06
-6.40984e-09
5.0062e-06
-7.0839e-09
5.00882e-06
-7.52463e-09
5.01183e-06
-7.63618e-09
5.01432e-06
-5.65084e-09
5.01441e-06
-4.72675e-10
5.01248e-06
5.06758e-09
5.00832e-06
1.03733e-08
5.00425e-06
1.12691e-08
5.00191e-06
8.42218e-09
5.00144e-06
4.44592e-09
5.00177e-06
1.99355e-09
5.00191e-06
1.31103e-09
5.0016e-06
1.52512e-09
6.7458e-10
5e-06
-4.75754e-10
5.0001e-06
-1.38154e-09
5.00035e-06
-2.51159e-09
5.00089e-06
-4.28615e-09
5.00195e-06
-6.42139e-09
5.00396e-06
-8.50742e-09
5.00702e-06
-1.01571e-08
5.01113e-06
-1.1612e-08
5.01506e-06
-1.1463e-08
5.01855e-06
-9.0992e-09
5.01982e-06
-1.63206e-09
5.01566e-06
9.25499e-09
5.0092e-06
1.68469e-08
5.00392e-06
1.65655e-08
5.00185e-06
1.04888e-08
5.00212e-06
4.15833e-09
5.00287e-06
1.24524e-09
5.00302e-06
1.15958e-09
5.00243e-06
2.11009e-09
1.48154e-09
4.99994e-06
-4.84186e-10
4.99985e-06
-1.40156e-09
4.99987e-06
-2.67511e-09
5.00007e-06
-4.63993e-09
5.00076e-06
-7.25123e-09
5.00236e-06
-1.01953e-08
5.00624e-06
-1.40851e-08
5.01343e-06
-1.87803e-08
5.02333e-06
-2.13268e-08
5.03059e-06
-1.62573e-08
5.02834e-06
5.28544e-10
5.0164e-06
2.12651e-08
5.00387e-06
2.93389e-08
4.99843e-06
2.19433e-08
5.00023e-06
8.61919e-09
5.00243e-06
1.88553e-09
5.00326e-06
3.47823e-10
5.0032e-06
1.17404e-09
5.00257e-06
2.69909e-09
1.72631e-09
4.99982e-06
-3.69401e-10
4.99947e-06
-1.15649e-09
4.99899e-06
-2.33729e-09
4.99859e-06
-4.39605e-09
4.99887e-06
-7.67481e-09
4.99978e-06
-1.12018e-08
5.0031e-06
-1.74685e-08
5.00941e-06
-2.51007e-08
5.02453e-06
-3.64277e-08
5.05586e-06
-4.74306e-08
5.04962e-06
5.43807e-09
5.02284e-06
4.79403e-08
4.99795e-06
5.41813e-08
4.99329e-06
2.64971e-08
4.99915e-06
2.63426e-09
5.00364e-06
-2.75076e-09
5.00436e-06
-5.04441e-10
5.00315e-06
2.2692e-09
5.00299e-06
2.78283e-09
1.00092e-09
4.99972e-06
-1.47135e-10
4.99907e-06
-6.09662e-10
4.9978e-06
-1.20899e-09
4.99586e-06
-2.6101e-09
4.99358e-06
-5.53158e-09
4.99318e-06
-1.09201e-08
4.99893e-06
-2.32851e-08
5.01673e-06
-4.29268e-08
5.0554e-06
-7.5101e-08
5.06641e-06
-5.85871e-08
5.04945e-06
2.36911e-08
4.9962e-06
1.01149e-07
4.98906e-06
6.11567e-08
4.99571e-06
1.96803e-08
4.9999e-06
-1.72726e-09
5.00248e-06
-5.49832e-09
5.00193e-06
-1.23661e-10
5.00124e-06
2.80329e-09
5.002e-06
1.91807e-09
8.68278e-11
4.99981e-06
-7.74891e-12
4.99912e-06
-2.28802e-11
4.9978e-06
-2.19029e-11
4.99507e-06
-2.9355e-11
4.98944e-06
-5.17929e-11
4.9785e-06
-1.04936e-10
4.95531e-06
-1.70768e-10
4.91261e-06
-2.66718e-10
4.83788e-06
-3.73845e-10
4.77969e-06
-4.61415e-10
4.80401e-06
-6.0644e-10
4.90575e-06
-7.80061e-10
4.96754e-06
-7.96217e-10
4.98796e-06
-9.19371e-10
4.98716e-06
-1.11911e-09
4.98281e-06
-1.33094e-09
4.98394e-06
-1.43986e-09
4.98829e-06
-1.70436e-09
4.99189e-06
-1.79775e-09
-2.60762e-09
4.99981e-06
1.30125e-10
4.99912e-06
5.64694e-10
4.99779e-06
1.16679e-09
4.99506e-06
2.55382e-09
4.98942e-06
5.43515e-09
4.97847e-06
1.07204e-08
4.95526e-06
2.29575e-08
4.91255e-06
4.24168e-08
4.83776e-06
7.43787e-08
4.77946e-06
5.78478e-08
4.80394e-06
-2.51572e-08
4.9057e-06
-1.0268e-07
4.96753e-06
-6.27779e-08
4.98782e-06
-2.13982e-08
4.98705e-06
-5.36068e-10
4.98248e-06
3.05743e-09
4.98382e-06
-2.9622e-09
4.98827e-06
-6.30743e-09
4.99177e-06
-5.41108e-09
-5.03332e-09
4.99972e-06
3.50228e-10
4.99906e-06
1.11864e-09
4.99778e-06
2.2962e-09
4.99584e-06
4.33725e-09
4.99357e-06
7.56106e-09
4.99317e-06
1.09976e-08
4.9989e-06
1.714e-08
5.01668e-06
2.46114e-08
5.05533e-06
3.57467e-08
5.06684e-06
4.62797e-08
5.04911e-06
-8.05988e-09
4.99574e-06
-4.94206e-08
4.98855e-06
-5.57626e-08
4.99543e-06
-2.84344e-08
4.99979e-06
-5.05217e-09
5.00187e-06
8.15251e-10
5.00107e-06
-2.32905e-09
5.00032e-06
-5.69858e-09
5.00116e-06
-6.34223e-09
-6.01843e-09
4.99981e-06
4.62937e-10
4.99945e-06
1.37028e-09
4.99895e-06
2.639e-09
4.99854e-06
4.57994e-09
4.99881e-06
7.1457e-09
4.99968e-06
1.00071e-08
5.00293e-06
1.38243e-08
5.00919e-06
1.83333e-08
5.02425e-06
2.06906e-08
5.05516e-06
1.54151e-08
5.04938e-06
-1.78345e-09
5.0225e-06
-2.25885e-08
4.9976e-06
-3.09495e-08
4.99291e-06
-2.38511e-08
4.99831e-06
-1.05842e-08
5.003e-06
-4.00673e-09
5.00319e-06
-2.6469e-09
5.00182e-06
-4.43722e-09
5.00167e-06
-6.26267e-09
-6.61259e-09
4.99993e-06
4.54047e-10
4.99982e-06
1.35642e-09
4.99982e-06
2.48382e-09
4.99999e-06
4.23864e-09
5.00065e-06
6.33213e-09
5.00222e-06
8.33689e-09
5.00612e-06
9.87187e-09
5.0133e-06
1.11552e-08
5.02315e-06
1.08671e-08
5.03031e-06
8.2848e-09
5.02804e-06
5.3792e-10
5.01591e-06
-1.0457e-08
5.00316e-06
-1.82506e-08
4.99744e-06
-1.81952e-08
4.99904e-06
-1.22612e-08
5.00118e-06
-6.21632e-09
5.00193e-06
-3.46702e-09
5.00168e-06
-4.24176e-09
5.00077e-06
-5.39445e-09
-6.05746e-09
4.99999e-06
3.84978e-10
5.00006e-06
1.16463e-09
5.00028e-06
2.11319e-09
5.0008e-06
3.55949e-09
5.00183e-06
5.15056e-09
5.00382e-06
6.2549e-09
5.00683e-06
6.82889e-09
5.01086e-06
7.15148e-09
5.01467e-06
7.11611e-09
5.01812e-06
4.90515e-09
5.01913e-06
-4.32256e-10
5.01483e-06
-6.12429e-09
5.00817e-06
-1.15877e-08
5.00275e-06
-1.27774e-08
5.00052e-06
-1.00245e-08
5.00062e-06
-6.33223e-09
5.00116e-06
-4.01475e-09
5.00094e-06
-4.0339e-09
4.99999e-06
-4.45954e-09
-5.05474e-09
5.00003e-06
2.84984e-10
5.00019e-06
9.00826e-10
5.00054e-06
1.63272e-09
5.00119e-06
2.76453e-09
5.00226e-06
3.93669e-09
5.00385e-06
4.58175e-09
5.00595e-06
4.70158e-09
5.00849e-06
4.65211e-09
5.01146e-06
4.23444e-09
5.01387e-06
2.59417e-09
5.01372e-06
-1.84187e-10
5.0117e-06
-4.02573e-09
5.00736e-06
-7.18479e-09
5.00309e-06
-8.43334e-09
5.00053e-06
-7.41721e-09
4.99978e-06
-5.53416e-09
4.9998e-06
-3.98941e-09
4.99958e-06
-3.78067e-09
4.99888e-06
-3.73444e-09
-4.24024e-09
5.00005e-06
1.83712e-10
5.00025e-06
6.24424e-10
5.00062e-06
1.15892e-09
5.00126e-06
1.99565e-09
5.00224e-06
2.82866e-09
5.00357e-06
3.17756e-09
5.00517e-06
3.08691e-09
5.00697e-06
2.90009e-09
5.00871e-06
2.58658e-09
5.00977e-06
1.64397e-09
5.00997e-06
-2.8023e-10
5.00857e-06
-2.52463e-09
5.00602e-06
-4.52628e-09
5.00321e-06
-5.52166e-09
5.00115e-06
-5.25274e-09
5.00004e-06
-4.32518e-09
4.99948e-06
-3.33545e-09
4.99896e-06
-3.18952e-09
4.99823e-06
-2.95587e-09
-3.26756e-09
5.00005e-06
1.00459e-10
5.00025e-06
3.81764e-10
5.00061e-06
7.29634e-10
5.00123e-06
1.27568e-09
5.00214e-06
1.80795e-09
5.00325e-06
1.98891e-09
5.00446e-06
1.85803e-09
5.00573e-06
1.67248e-09
5.00695e-06
1.45713e-09
5.00779e-06
9.17046e-10
5.00774e-06
-1.08837e-10
5.0069e-06
-1.56172e-09
5.00524e-06
-2.73662e-09
5.00322e-06
-3.35338e-09
5.00138e-06
-3.27606e-09
5.00005e-06
-2.85668e-09
4.99915e-06
-2.31294e-09
4.99837e-06
-2.31438e-09
4.99756e-06
-2.07224e-09
-2.31448e-09
5.00004e-06
5.51674e-11
5.00021e-06
1.85369e-10
5.00054e-06
3.5278e-10
5.00111e-06
6.2896e-10
5.00193e-06
8.93703e-10
5.00289e-06
9.68658e-10
5.00385e-06
8.82077e-10
5.00478e-06
7.83066e-10
5.00563e-06
6.82881e-10
5.00623e-06
4.09892e-10
5.00633e-06
-1.17651e-10
5.0056e-06
-7.13872e-10
5.00427e-06
-1.26413e-09
5.00265e-06
-1.57538e-09
5.00109e-06
-1.55988e-09
4.99981e-06
-1.41921e-09
4.99881e-06
-1.17721e-09
4.99785e-06
-1.24106e-09
4.99694e-06
-1.09431e-09
-1.43945e-09
5.00007e-06
5.00025e-06
5.00057e-06
5.00113e-06
5.00194e-06
5.00286e-06
5.00373e-06
5.00454e-06
5.00529e-06
5.00577e-06
5.00575e-06
5.00515e-06
5.00402e-06
5.0026e-06
5.0012e-06
4.99994e-06
4.9989e-06
4.99777e-06
4.99675e-06
)
;

boundaryField
{
    sides
    {
        type            calculated;
        value           uniform 0;
    }
    inlet
    {
        type            calculated;
        value           nonuniform List<scalar> 
20
(
-5e-06
-5e-06
-5e-06
-5e-06
-5e-06
-5e-06
-5e-06
-5e-06
-5e-06
-5e-06
-5e-06
-5e-06
-5e-06
-5e-06
-5e-06
-5e-06
-5e-06
-5e-06
-5e-06
-5e-06
)
;
    }
    outlet
    {
        type            calculated;
        value           nonuniform List<scalar> 
20
(
5.0017e-06
5.00126e-06
5.00121e-06
5.00125e-06
5.0013e-06
5.00162e-06
5.00231e-06
5.00368e-06
5.00287e-06
4.99453e-06
4.99415e-06
5.00211e-06
5.00224e-06
5.0002e-06
4.99899e-06
4.99807e-06
4.99728e-06
4.99663e-06
4.99609e-06
4.99534e-06
)
;
    }
    frontAndBack
    {
        type            empty;
        value           nonuniform List<scalar> 0();
    }
}


// ************************************************************************* //
