/*--------------------------------*- C++ -*----------------------------------*\
  =========                 |
  \\      /  F ield         | OpenFOAM: The Open Source CFD Toolbox
   \\    /   O peration     | Website:  https://openfoam.org
    \\  /    A nd           | Version:  9
     \\/     M anipulation  |
\*---------------------------------------------------------------------------*/
FoamFile
{
    format      ascii;
    class       volVectorField;
    location    "29";
    object      U;
}
// * * * * * * * * * * * * * * * * * * * * * * * * * * * * * * * * * * * * * //

dimensions      [0 1 -1 0 0 0 0];

internalField   nonuniform List<vector> 
400
(
(0.0999962 -1.57204e-06 0)
(0.1 -5.22048e-06 0)
(0.100004 -9.19596e-06 0)
(0.100013 -1.42554e-05 0)
(0.100029 -1.90814e-05 0)
(0.100049 -2.16849e-05 0)
(0.100071 -2.22158e-05 0)
(0.100092 -2.25287e-05 0)
(0.100112 -2.28434e-05 0)
(0.10013 -2.18428e-05 0)
(0.100142 -1.75976e-05 0)
(0.100145 -1.24776e-05 0)
(0.100133 -8.62206e-06 0)
(0.100112 -7.92664e-06 0)
(0.100086 -9.32252e-06 0)
(0.100063 -1.36461e-05 0)
(0.100044 -1.56643e-05 0)
(0.100034 -1.97072e-05 0)
(0.100021 -1.80774e-05 0)
(0.100028 -2.61809e-05 0)
(0.0999968 -8.34555e-07 0)
(0.100001 -3.65801e-06 0)
(0.100006 -7.54576e-06 0)
(0.100016 -1.46748e-05 0)
(0.100032 -2.21994e-05 0)
(0.100054 -2.45129e-05 0)
(0.100078 -2.1345e-05 0)
(0.100102 -1.71856e-05 0)
(0.100125 -1.33931e-05 0)
(0.100146 -6.39184e-06 0)
(0.100161 7.41418e-06 0)
(0.100161 2.60514e-05 0)
(0.100147 4.33284e-05 0)
(0.100122 5.19411e-05 0)
(0.100093 5.26569e-05 0)
(0.100066 4.54065e-05 0)
(0.100048 3.81953e-05 0)
(0.100035 3.02846e-05 0)
(0.100029 2.61717e-05 0)
(0.100025 8.63382e-06 0)
(0.0999967 -3.0856e-06 0)
(0.100001 -1.03052e-05 0)
(0.100006 -1.92106e-05 0)
(0.100016 -3.33914e-05 0)
(0.100033 -4.87222e-05 0)
(0.100056 -5.64128e-05 0)
(0.100083 -5.54924e-05 0)
(0.100112 -5.22798e-05 0)
(0.100141 -4.83598e-05 0)
(0.100166 -3.71381e-05 0)
(0.100183 -1.34931e-05 0)
(0.100185 1.87366e-05 0)
(0.100168 4.74269e-05 0)
(0.100135 5.91773e-05 0)
(0.100096 5.3854e-05 0)
(0.100061 3.62772e-05 0)
(0.100036 2.13154e-05 0)
(0.100024 1.07207e-05 0)
(0.100015 7.28317e-06 0)
(0.100023 -1.02155e-05 0)
(0.0999962 -4.97667e-06 0)
(0.0999996 -1.55766e-05 0)
(0.100005 -2.8265e-05 0)
(0.100016 -4.81306e-05 0)
(0.100034 -6.9779e-05 0)
(0.10006 -8.18015e-05 0)
(0.100093 -8.22985e-05 0)
(0.100131 -7.85388e-05 0)
(0.100172 -7.05675e-05 0)
(0.100209 -4.95404e-05 0)
(0.100233 -4.83129e-06 0)
(0.100233 5.31652e-05 0)
(0.100204 0.000103118 0)
(0.100153 0.000123332 0)
(0.100098 0.000110744 0)
(0.100056 7.5798e-05 0)
(0.100037 4.41978e-05 0)
(0.100031 2.54037e-05 0)
(0.100036 2.00602e-05 0)
(0.100031 1.53573e-06 0)
(0.0999954 -6.89907e-06 0)
(0.0999978 -2.10011e-05 0)
(0.100003 -3.77629e-05 0)
(0.100014 -6.39529e-05 0)
(0.100033 -9.38314e-05 0)
(0.100061 -0.000114564 0)
(0.100102 -0.00012216 0)
(0.100154 -0.000122177 0)
(0.100212 -0.00011154 0)
(0.100269 -7.91845e-05 0)
(0.100309 -1.89989e-05 0)
(0.100309 6.219e-05 0)
(0.100261 0.000133673 0)
(0.100176 0.000161699 0)
(0.100086 0.000143621 0)
(0.100024 9.84917e-05 0)
(0.100005 6.04058e-05 0)
(0.100014 4.16972e-05 0)
(0.100028 3.84289e-05 0)
(0.100034 1.85518e-05 0)
(0.0999942 -8.57913e-06 0)
(0.099995 -2.55721e-05 0)
(0.0999985 -4.65006e-05 0)
(0.100007 -7.90571e-05 0)
(0.100024 -0.000118828 0)
(0.100055 -0.000152701 0)
(0.100106 -0.000177565 0)
(0.100178 -0.000193057 0)
(0.100265 -0.000184339 0)
(0.100347 -0.000120866 0)
(0.100404 7.22301e-06 0)
(0.100407 0.000159738 0)
(0.100333 0.000255138 0)
(0.100203 0.000241917 0)
(0.10008 0.000149616 0)
(0.100009 5.16697e-05 0)
(0.100006 3.733e-06 0)
(0.100028 4.10346e-07 0)
(0.100057 1.73283e-05 0)
(0.100048 7.41784e-06 0)
(0.0999928 -9.0293e-06 0)
(0.0999909 -2.81151e-05 0)
(0.0999904 -5.15547e-05 0)
(0.0999936 -9.11822e-05 0)
(0.100004 -0.000140237 0)
(0.100031 -0.000194168 0)
(0.100087 -0.000240887 0)
(0.100188 -0.000297013 0)
(0.100338 -0.000316808 0)
(0.10051 -0.00028799 0)
(0.100625 -6.84301e-05 0)
(0.100583 0.00026026 0)
(0.100376 0.000492978 0)
(0.100112 0.000484064 0)
(0.0999428 0.000309635 0)
(0.099916 0.000129707 0)
(0.0999846 4.67653e-05 0)
(0.100047 4.32753e-05 0)
(0.100086 6.80437e-05 0)
(0.100057 5.5131e-05 0)
(0.0999912 -8.47624e-06 0)
(0.0999855 -2.50051e-05 0)
(0.0999766 -5.08799e-05 0)
(0.0999704 -9.13355e-05 0)
(0.0999665 -0.000157885 0)
(0.0999855 -0.000233249 0)
(0.10003 -0.000332658 0)
(0.100146 -0.000402071 0)
(0.100325 -0.000431211 0)
(0.10065 -0.000254978 0)
(0.100997 7.45492e-05 0)
(0.101005 0.000429839 0)
(0.1006 0.000479229 0)
(0.100068 0.000285718 0)
(0.0997781 7.87445e-05 0)
(0.099791 -2.42417e-05 0)
(0.0999584 -2.46971e-05 0)
(0.100078 7.99466e-06 0)
(0.100128 3.09135e-05 0)
(0.100076 1.20704e-05 0)
(0.0999903 -4.46586e-06 0)
(0.0999787 -1.78639e-05 0)
(0.0999591 -3.39421e-05 0)
(0.099932 -7.00599e-05 0)
(0.0999002 -0.000133119 0)
(0.0998865 -0.000246566 0)
(0.0999406 -0.000463184 0)
(0.100131 -0.000799626 0)
(0.100526 -0.00132459 0)
(0.101053 -0.00149249 0)
(0.101315 0.000384226 0)
(0.100989 0.00187688 0)
(0.100235 0.00158323 0)
(0.0997159 0.000578772 0)
(0.099641 -2.87623e-05 0)
(0.0998162 -0.000124398 0)
(0.100015 -6.934e-06 0)
(0.100095 6.9055e-05 0)
(0.100102 7.18784e-05 0)
(0.100045 2.52499e-05 0)
(0.0999712 -1.73391e-06 0)
(0.100004 -5.46444e-06 0)
(0.0999041 -1.27172e-05 0)
(0.0999662 -2.25029e-05 0)
(0.0997156 -5.75628e-05 0)
(0.0998281 -0.000111231 0)
(0.0992598 -0.000285305 0)
(0.0996623 -0.000555974 0)
(0.0991091 -0.00115206 0)
(0.101995 -0.00141422 0)
(0.106271 2.98354e-05 0)
(0.101259 0.0014673 0)
(0.0990019 0.00130779 0)
(0.098218 0.000514555 0)
(0.0988509 2.06891e-05 0)
(0.0995991 -7.65034e-05 0)
(0.0999254 -8.8072e-06 0)
(0.0999396 2.861e-05 0)
(0.0998554 2.15033e-05 0)
(0.0998376 -1.82477e-05 0)
(0.0999719 1.38374e-06 0)
(0.100005 4.4145e-06 0)
(0.0999047 1.16617e-05 0)
(0.0999667 2.1214e-05 0)
(0.0997159 5.55941e-05 0)
(0.0998281 0.000107478 0)
(0.0992595 0.000279253 0)
(0.0996616 0.000546762 0)
(0.0991079 0.00113887 0)
(0.101993 0.00139726 0)
(0.106267 -5.25014e-05 0)
(0.101257 -0.00149578 0)
(0.099002 -0.00134273 0)
(0.098218 -0.000555585 0)
(0.0988493 -6.58143e-05 0)
(0.0995953 2.61833e-05 0)
(0.0999213 -4.51307e-05 0)
(0.0999353 -9.89146e-05 0)
(0.0998542 -9.81581e-05 0)
(0.0998329 -8.9433e-05 0)
(0.0999924 4.09487e-06 0)
(0.0999806 1.68938e-05 0)
(0.0999608 3.28968e-05 0)
(0.0999336 6.87587e-05 0)
(0.0999016 0.000131065 0)
(0.0998882 0.000242751 0)
(0.0999418 0.000457033 0)
(0.100133 0.000789885 0)
(0.100528 0.00131077 0)
(0.101056 0.00147264 0)
(0.101317 -0.000408982 0)
(0.100986 -0.00190763 0)
(0.100227 -0.0016176 0)
(0.0997067 -0.000618515 0)
(0.0996343 -1.13077e-05 0)
(0.099811 7.82009e-05 0)
(0.100005 -4.08083e-05 0)
(0.10008 -0.000131476 0)
(0.100083 -0.000140378 0)
(0.100027 -0.000126388 0)
(0.0999947 8.04672e-06 0)
(0.0999886 2.41444e-05 0)
(0.0999793 4.98429e-05 0)
(0.0999728 8.99871e-05 0)
(0.0999686 0.000155554 0)
(0.0999869 0.000229137 0)
(0.100031 0.000325574 0)
(0.100145 0.000391642 0)
(0.100322 0.000416424 0)
(0.100645 0.0002358 0)
(0.10099 -0.000100064 0)
(0.100999 -0.000461044 0)
(0.100595 -0.000512495 0)
(0.100063 -0.000321613 0)
(0.0997702 -0.000117462 0)
(0.0997782 -2.47133e-05 0)
(0.0999422 -3.04161e-05 0)
(0.100056 -7.7394e-05 0)
(0.100102 -0.000101932 0)
(0.100047 -0.000109136 0)
(0.0999977 8.52573e-06 0)
(0.0999953 2.73318e-05 0)
(0.0999941 5.06419e-05 0)
(0.0999969 8.98427e-05 0)
(0.100007 0.000138053 0)
(0.100033 0.000190328 0)
(0.100089 0.000235003 0)
(0.100189 0.000288261 0)
(0.100339 0.00030577 0)
(0.10051 0.00027328 0)
(0.100622 5.15369e-05 0)
(0.100579 -0.000281051 0)
(0.100368 -0.000519708 0)
(0.100098 -0.000518429 0)
(0.0999245 -0.000350775 0)
(0.0998925 -0.000179067 0)
(0.0999601 -0.000100764 0)
(0.100017 -0.000111113 0)
(0.100057 -0.000137959 0)
(0.100017 -0.000153609 0)
(0.100001 8.04672e-06 0)
(0.100001 2.49232e-05 0)
(0.100003 4.57946e-05 0)
(0.100012 7.79238e-05 0)
(0.100028 0.000116892 0)
(0.100058 0.000149287 0)
(0.100108 0.000172229 0)
(0.100179 0.000184722 0)
(0.100263 0.000172324 0)
(0.100343 0.000104181 0)
(0.100398 -2.80565e-05 0)
(0.100397 -0.000186173 0)
(0.100318 -0.000285074 0)
(0.100184 -0.000275336 0)
(0.100058 -0.000183727 0)
(0.0999829 -8.93013e-05 0)
(0.0999766 -4.14769e-05 0)
(0.0999909 -5.05108e-05 0)
(0.100016 -6.97797e-05 0)
(0.0999943 -8.70348e-05 0)
(0.100003 6.40893e-06 0)
(0.100005 2.04601e-05 0)
(0.100009 3.71601e-05 0)
(0.100019 6.31489e-05 0)
(0.100037 9.2352e-05 0)
(0.100065 0.000111746 0)
(0.100104 0.000117467 0)
(0.100155 0.000115257 0)
(0.100211 0.000101936 0)
(0.100267 6.66643e-05 0)
(0.100304 2.63413e-06 0)
(0.100301 -8.31907e-05 0)
(0.10025 -0.000157393 0)
(0.100159 -0.000189054 0)
(0.100065 -0.000172865 0)
(0.0999968 -0.000134856 0)
(0.0999739 -0.000102038 0)
(0.0999714 -0.000100056 0)
(0.0999835 -0.000103103 0)
(0.0999713 -0.000112976 0)
(0.100005 4.57861e-06 0)
(0.100008 1.5137e-05 0)
(0.100012 2.76051e-05 0)
(0.100023 4.70828e-05 0)
(0.10004 6.83127e-05 0)
(0.100064 7.96583e-05 0)
(0.100096 7.92026e-05 0)
(0.100133 7.4047e-05 0)
(0.100172 6.48327e-05 0)
(0.100205 4.22493e-05 0)
(0.100225 -3.19457e-06 0)
(0.10022 -6.25827e-05 0)
(0.100187 -0.000114528 0)
(0.10013 -0.000138214 0)
(0.10007 -0.000127661 0)
(0.100017 -9.87895e-05 0)
(0.0999907 -6.91442e-05 0)
(0.0999727 -6.15238e-05 0)
(0.0999725 -5.64961e-05 0)
(0.0999521 -6.15876e-05 0)
(0.100007 2.85141e-06 0)
(0.10001 9.88299e-06 0)
(0.100014 1.81641e-05 0)
(0.100024 3.13351e-05 0)
(0.10004 4.52241e-05 0)
(0.100062 5.07354e-05 0)
(0.100088 4.72115e-05 0)
(0.100116 4.06956e-05 0)
(0.100144 3.31446e-05 0)
(0.100168 1.74627e-05 0)
(0.100182 -1.03223e-05 0)
(0.100178 -4.62034e-05 0)
(0.100155 -7.66584e-05 0)
(0.100114 -9.17877e-05 0)
(0.10007 -8.8464e-05 0)
(0.100025 -7.66434e-05 0)
(0.0999974 -6.30351e-05 0)
(0.0999705 -6.40756e-05 0)
(0.0999614 -6.22152e-05 0)
(0.0999358 -6.99155e-05 0)
(0.100009 1.99331e-06 0)
(0.100011 7.16597e-06 0)
(0.100014 1.32419e-05 0)
(0.100023 2.2384e-05 0)
(0.100038 3.19896e-05 0)
(0.100058 3.64911e-05 0)
(0.10008 3.53904e-05 0)
(0.100102 3.29304e-05 0)
(0.100122 3.03923e-05 0)
(0.100139 2.38358e-05 0)
(0.10015 1.00408e-05 0)
(0.100147 -8.89107e-06 0)
(0.100128 -2.56909e-05 0)
(0.100095 -3.47039e-05 0)
(0.10006 -3.37434e-05 0)
(0.100021 -2.80672e-05 0)
(0.0999951 -1.98332e-05 0)
(0.0999654 -1.98314e-05 0)
(0.0999517 -1.58156e-05 0)
(0.0999228 -2.07071e-05 0)
(0.10001 -8.52893e-07 0)
(0.100013 -1.97023e-06 0)
(0.100016 -2.63594e-06 0)
(0.100025 -2.24422e-06 0)
(0.10004 -1.31833e-06 0)
(0.10006 -1.73302e-06 0)
(0.100081 -3.79509e-06 0)
(0.1001 -6.32639e-06 0)
(0.100118 -8.64003e-06 0)
(0.100132 -1.17732e-05 0)
(0.100141 -1.66265e-05 0)
(0.100137 -2.42142e-05 0)
(0.10012 -3.10011e-05 0)
(0.100091 -3.56534e-05 0)
(0.100061 -3.65039e-05 0)
(0.100024 -3.64741e-05 0)
(0.100001 -3.39196e-05 0)
(0.0999666 -3.6306e-05 0)
(0.0999534 -3.41222e-05 0)
(0.0999117 -4.12235e-05 0)
)
;

boundaryField
{
    sides
    {
        type            calculated;
        value           nonuniform List<vector> 
40
(
(0.10001 0 0)
(0.100013 0 0)
(0.100016 0 0)
(0.100025 0 0)
(0.10004 0 0)
(0.10006 0 0)
(0.100081 0 0)
(0.1001 0 0)
(0.100118 0 0)
(0.100132 0 0)
(0.100141 0 0)
(0.100137 0 0)
(0.10012 0 0)
(0.100091 0 0)
(0.100061 0 0)
(0.100024 0 0)
(0.100001 0 0)
(0.0999666 0 0)
(0.0999534 0 0)
(0.0999117 0 0)
(0.0999962 0 0)
(0.1 0 0)
(0.100004 0 0)
(0.100013 0 0)
(0.100029 0 0)
(0.100049 0 0)
(0.100071 0 0)
(0.100092 0 0)
(0.100112 0 0)
(0.10013 0 0)
(0.100142 0 0)
(0.100145 0 0)
(0.100133 0 0)
(0.100112 0 0)
(0.100086 0 0)
(0.100063 0 0)
(0.100044 0 0)
(0.100034 0 0)
(0.100021 0 0)
(0.100028 0 0)
)
;
    }
    inlet
    {
        type            calculated;
        value           nonuniform List<vector> 
20
(
(0.0999951 0 0)
(0.0999959 0 0)
(0.099996 0 0)
(0.0999958 0 0)
(0.0999952 0 0)
(0.0999944 0 0)
(0.0999933 0 0)
(0.0999923 0 0)
(0.0999916 0 0)
(0.0999917 0 0)
(0.0999924 0 0)
(0.0999937 0 0)
(0.0999958 0 0)
(0.0999982 0 0)
(0.100001 0 0)
(0.100003 0 0)
(0.100005 0 0)
(0.100006 0 0)
(0.100008 0 0)
(0.100009 0 0)
)
;
    }
    outlet
    {
        type            calculated;
        value           nonuniform List<vector> 
20
(
(0.100028 -2.61809e-05 0)
(0.100024 8.63377e-06 0)
(0.100023 -1.02155e-05 0)
(0.10003 1.53571e-06 0)
(0.100034 1.85517e-05 0)
(0.100047 7.41776e-06 0)
(0.100056 5.51302e-05 0)
(0.100075 1.20702e-05 0)
(0.100044 2.52497e-05 0)
(0.0998392 -1.8248e-05 0)
(0.0998343 -8.94343e-05 0)
(0.100026 -0.000126387 0)
(0.100045 -0.000109134 0)
(0.100015 -0.000153607 0)
(0.099993 -8.70336e-05 0)
(0.0999703 -0.000112974 0)
(0.099951 -6.15869e-05 0)
(0.0999346 -6.99147e-05 0)
(0.0999216 -2.07068e-05 0)
(0.09991 -4.12228e-05 0)
)
;
    }
    frontAndBack
    {
        type            empty;
    }
}


// ************************************************************************* //
