/*--------------------------------*- C++ -*----------------------------------*\
  =========                 |
  \\      /  F ield         | OpenFOAM: The Open Source CFD Toolbox
   \\    /   O peration     | Website:  https://openfoam.org
    \\  /    A nd           | Version:  9
     \\/     M anipulation  |
\*---------------------------------------------------------------------------*/
FoamFile
{
    format      ascii;
    class       volScalarField;
    location    "70";
    object      ddt0(h);
}
// * * * * * * * * * * * * * * * * * * * * * * * * * * * * * * * * * * * * * //

dimensions      [0 1 -1 0 0 0 0];

internalField   nonuniform List<scalar> 
400
(
1.39151e-08
2.76747e-08
1.01921e-08
-1.62634e-08
-9.46962e-09
1.73461e-08
2.0123e-08
8.45969e-09
1.16717e-08
2.90947e-08
2.11265e-08
2.13808e-08
-9.51492e-09
-1.12561e-08
-6.81479e-09
-8.30555e-09
-9.48922e-09
7.75167e-09
3.19241e-08
2.0305e-08
9.22866e-09
1.47383e-08
-3.43786e-10
-8.33825e-10
1.5704e-08
2.02267e-08
-3.09444e-09
6.36822e-09
-1.25321e-08
1.15709e-08
3.96374e-09
-1.59401e-09
1.18707e-08
-6.72532e-09
4.69219e-09
4.59308e-09
-5.7759e-09
-1.00637e-09
8.37263e-09
5.10301e-09
1.19889e-08
-1.93566e-09
-4.68934e-09
2.17536e-08
3.22301e-08
-1.08893e-08
-6.50605e-09
-7.56716e-09
-6.39084e-10
-2.04695e-08
2.84519e-08
-1.41777e-08
1.72319e-08
1.8451e-08
-7.51719e-10
6.62585e-09
5.27536e-09
-8.87539e-09
-2.14243e-08
-1.17079e-08
9.76159e-09
-1.1237e-08
2.50056e-09
3.40826e-08
8.00417e-09
-1.99236e-08
2.28869e-08
-1.14644e-08
1.16191e-08
-4.1609e-09
-4.10585e-08
3.3762e-08
-2.39257e-08
9.34934e-09
-3.32985e-09
-1.51318e-08
1.10298e-09
-8.10565e-10
-2.22856e-08
-1.77346e-08
1.85286e-09
-1.26814e-08
1.00255e-08
1.94109e-08
-1.67742e-08
1.89521e-08
1.16675e-08
2.43259e-08
-3.92301e-08
4.92205e-08
-1.58922e-08
-5.67327e-08
4.13358e-08
-2.92926e-08
-3.15851e-08
-1.87958e-08
-1.99978e-09
3.37438e-09
-1.37917e-08
-1.24183e-08
-2.57791e-09
-1.1849e-08
4.79637e-09
-2.20306e-09
-2.22309e-09
2.12909e-08
3.39711e-08
-4.62863e-08
9.2637e-08
-1.60245e-07
1.45933e-07
-1.15019e-07
-4.69067e-08
4.00958e-08
-1.73896e-08
-3.30037e-08
-1.50603e-08
-9.42737e-09
-1.5177e-08
-8.47571e-09
-2.23129e-09
-1.16686e-08
-5.03471e-09
-1.66526e-09
4.29497e-09
3.12975e-08
-2.77679e-08
2.31875e-08
-3.91054e-08
3.44827e-08
-3.2376e-07
3.08491e-07
-5.66578e-08
-2.72443e-08
2.37417e-08
-2.65686e-09
-1.61617e-08
-2.18929e-08
-2.43167e-08
-1.05506e-08
-2.81106e-09
-1.00585e-08
-5.41996e-09
5.84481e-09
1.39196e-08
-1.29869e-08
-7.89652e-09
-2.35306e-08
-5.22575e-08
4.58612e-07
3.06183e-06
3.09104e-08
1.59072e-07
2.5899e-08
2.17713e-08
2.01882e-08
-1.52557e-10
-1.79185e-08
-2.42568e-08
-1.17815e-08
-3.0516e-09
-6.16235e-09
1.51621e-10
1.4787e-08
-3.32549e-09
-2.804e-08
-3.76814e-08
3.80719e-08
9.37766e-08
-3.97634e-07
-2.97349e-06
1.98111e-09
-1.36857e-07
1.93465e-08
3.87003e-08
4.236e-08
9.78265e-08
1.25529e-09
-1.19424e-08
6.28118e-09
-2.30282e-10
3.26149e-09
7.32152e-10
9.95342e-09
-1.28089e-08
-5.06395e-08
1.99156e-08
-3.5348e-10
7.25814e-08
-7.63069e-08
3.27852e-07
-3.8394e-07
4.31664e-08
3.02642e-09
-5.43105e-09
3.38526e-08
-3.01187e-08
1.82114e-08
2.85106e-09
-1.37721e-08
5.52805e-09
1.17033e-08
-3.41486e-09
-1.04415e-08
-1.2967e-08
-3.08246e-08
1.2141e-08
7.17211e-08
-1.31771e-07
1.44879e-07
-7.05806e-07
2.40128e-07
-5.05095e-08
-8.36278e-08
-1.65096e-08
2.2373e-08
2.42758e-08
1.14786e-08
7.82807e-09
3.65195e-09
5.14962e-09
1.58889e-08
-8.86489e-09
-2.53753e-08
-1.04954e-08
-3.3313e-09
1.00977e-08
2.63645e-08
-4.53354e-08
-8.21453e-08
4.13437e-06
-2.94315e-07
2.12476e-09
-3.389e-08
-2.06644e-08
1.07444e-09
-5.64189e-09
-2.16059e-09
9.48857e-09
7.13554e-09
-3.35563e-09
8.83475e-09
-3.76452e-09
-2.76631e-08
3.35902e-09
1.02733e-08
-1.45624e-08
-4.12318e-09
1.00036e-07
-4.84578e-08
-3.92047e-06
3.00709e-07
-6.18503e-08
4.00491e-08
3.27244e-08
8.34985e-10
-2.07584e-08
-1.09759e-08
1.55086e-08
1.41144e-08
-1.20159e-08
-1.81219e-09
1.86106e-09
-8.44018e-09
7.94867e-09
3.06221e-08
-3.27553e-08
-1.91871e-08
5.73238e-08
4.46665e-08
3.49847e-07
-1.60883e-07
1.22039e-07
7.48209e-08
3.70405e-08
-1.17174e-08
-2.88715e-08
-1.0643e-08
1.96559e-08
1.64749e-08
-9.55546e-09
-8.09735e-09
8.85055e-10
1.48124e-09
1.93128e-08
3.28561e-08
-9.13867e-09
-5.40994e-08
-1.32926e-08
9.39475e-08
7.82472e-09
1.33894e-07
5.49647e-08
5.01099e-08
6.74158e-09
-3.50278e-08
-2.94378e-08
-4.33558e-09
1.29473e-08
9.44291e-09
2.98428e-09
-5.35267e-09
-5.53166e-09
-4.25268e-09
1.5606e-08
3.86812e-08
2.14051e-08
-3.59047e-08
-2.90188e-08
-3.70623e-08
-3.53505e-08
3.04468e-10
9.14183e-09
-3.97832e-10
-3.81085e-08
-4.54371e-08
-1.89753e-08
2.91213e-09
4.43393e-09
9.07943e-10
1.32057e-08
1.62988e-09
-3.52177e-09
-9.2145e-09
-1.686e-10
3.03687e-08
3.9393e-08
1.78971e-08
-2.04806e-08
-2.5336e-08
-2.92363e-08
-3.70203e-08
-3.32609e-08
-4.64258e-08
-4.69184e-08
-3.27111e-08
-4.22292e-09
1.29533e-08
5.42274e-09
-1.69178e-09
1.13807e-08
8.11823e-09
8.7068e-09
2.86884e-09
-9.64795e-09
5.93681e-09
3.11502e-08
3.74875e-08
1.95478e-08
6.49943e-09
-2.34175e-09
-8.43366e-09
-2.78033e-08
-3.37952e-08
-2.0463e-08
-5.32258e-09
9.06315e-09
1.62433e-08
8.09127e-09
-1.59233e-11
8.48262e-10
1.15179e-08
2.13616e-08
2.06746e-08
6.99607e-10
-8.8013e-09
4.38672e-09
1.83608e-08
2.32759e-08
2.12001e-08
2.27193e-08
1.82503e-08
8.36221e-10
-4.16492e-09
1.14113e-08
2.24937e-08
1.41978e-08
3.82619e-09
2.1167e-10
-3.48594e-10
-1.15495e-08
1.01879e-08
2.92538e-08
3.15332e-08
1.43784e-08
-7.95385e-09
-1.23253e-08
-2.60529e-09
9.14204e-09
1.6305e-08
2.12167e-08
2.12619e-08
1.19282e-08
7.73469e-09
2.51621e-08
3.41085e-08
1.04552e-08
-1.23705e-08
-1.03434e-08
-1.76409e-09
)
;

boundaryField
{
    sides
    {
        type            calculated;
        value           nonuniform List<scalar> 
40
(
-1.15495e-08
1.01879e-08
2.92538e-08
3.15332e-08
1.43784e-08
-7.95385e-09
-1.23253e-08
-2.60529e-09
9.14204e-09
1.6305e-08
2.12167e-08
2.12619e-08
1.19282e-08
7.73469e-09
2.51621e-08
3.41085e-08
1.04552e-08
-1.23705e-08
-1.03434e-08
-1.76409e-09
1.39151e-08
2.76747e-08
1.01921e-08
-1.62634e-08
-9.46962e-09
1.73461e-08
2.0123e-08
8.45969e-09
1.16717e-08
2.90947e-08
2.11265e-08
2.13808e-08
-9.51492e-09
-1.12561e-08
-6.81479e-09
-8.30555e-09
-9.48922e-09
7.75167e-09
3.19241e-08
2.0305e-08
)
;
    }
    inlet
    {
        type            calculated;
        value           nonuniform List<scalar> 
20
(
1.39151e-08
9.22866e-09
1.19889e-08
9.76159e-09
1.85286e-09
-2.57791e-09
-2.23129e-09
-2.81106e-09
-3.0516e-09
-2.30282e-10
5.52805e-09
5.14962e-09
-3.35563e-09
-1.20159e-08
-9.55546e-09
2.98428e-09
1.32057e-08
1.13807e-08
8.48262e-10
-1.15495e-08
)
;
    }
    outlet
    {
        type            calculated;
        value           uniform 0;
    }
    frontAndBack
    {
        type            empty;
    }
}


// ************************************************************************* //
