/*--------------------------------*- C++ -*----------------------------------*\
  =========                 |
  \\      /  F ield         | OpenFOAM: The Open Source CFD Toolbox
   \\    /   O peration     | Website:  https://openfoam.org
    \\  /    A nd           | Version:  9
     \\/     M anipulation  |
\*---------------------------------------------------------------------------*/
FoamFile
{
    format      ascii;
    class       surfaceScalarField;
    location    "70";
    object      ddtCorrDdt0(phi);
}
// * * * * * * * * * * * * * * * * * * * * * * * * * * * * * * * * * * * * * //

dimensions      [0 4 -2 0 0 0 0];

internalField   nonuniform List<scalar> 
760
(
-1.1479e-11
7.40891e-12
-3.25812e-12
4.23621e-12
2.48398e-11
8.01267e-12
2.15488e-11
-5.82834e-12
-8.69324e-12
-3.45619e-11
-2.52531e-11
-3.98533e-11
-1.10245e-11
-4.74122e-12
-2.16671e-11
-1.78915e-12
-1.24493e-11
1.72862e-11
-2.67063e-11
1.66896e-12
2.14287e-12
2.26791e-11
1.81675e-11
3.12169e-11
5.98688e-12
3.50186e-11
1.24748e-11
2.70345e-11
-5.53154e-12
3.75168e-12
-1.47559e-11
1.97031e-11
-1.62416e-12
4.55096e-11
1.08219e-11
4.49711e-11
4.59441e-11
2.60065e-11
9.23294e-12
-1.66996e-11
6.96686e-12
2.72755e-13
7.94548e-12
1.94768e-11
1.17631e-11
3.80908e-12
-1.74956e-11
-1.41177e-11
-4.97444e-11
-6.06403e-12
-2.89537e-11
-1.18892e-11
1.23122e-11
-1.28096e-11
-1.12204e-12
-2.95088e-11
1.47903e-11
8.78802e-13
1.55963e-11
-1.69483e-11
2.27064e-12
2.59399e-11
5.81125e-11
8.06659e-12
1.74265e-11
-1.10164e-12
1.72511e-11
1.42419e-11
-2.20317e-12
1.07696e-11
-4.63246e-12
-2.95486e-12
2.29287e-11
-6.71368e-12
3.64467e-11
9.49952e-12
2.98495e-11
6.66754e-12
-1.18182e-11
1.49008e-12
5.78016e-12
8.39154e-12
-2.66399e-12
3.05732e-12
-2.30451e-11
-2.44942e-11
-5.29145e-12
-2.26445e-11
2.1542e-11
2.5671e-11
-2.46573e-11
-5.72478e-12
9.71679e-12
8.34812e-12
-2.7053e-11
-3.35907e-11
5.36157e-12
2.24483e-11
1.25136e-11
-1.44558e-11
-1.47859e-11
1.58243e-11
1.75913e-11
2.79033e-11
-1.15073e-11
-1.44467e-11
1.24276e-11
-3.70679e-12
3.6184e-11
-4.76298e-12
2.05071e-12
-3.3546e-12
-3.17732e-11
1.20203e-11
-1.07432e-11
1.43815e-11
5.94637e-12
1.79373e-12
-5.7193e-12
8.11244e-12
7.58479e-13
-2.37175e-11
-7.68765e-12
-2.93445e-11
-1.43963e-11
2.67263e-11
2.75794e-11
-6.64841e-12
1.67128e-11
-2.36303e-13
-4.60113e-14
-1.66098e-11
-1.39033e-11
3.43587e-11
1.60619e-11
-5.27544e-11
-6.34809e-11
3.13307e-11
1.14822e-10
-2.00856e-12
-2.66052e-11
-2.71983e-11
8.11565e-12
1.2357e-12
2.38883e-11
1.68227e-13
-6.18906e-12
1.92462e-11
-8.62079e-12
1.60781e-11
-1.0721e-11
-5.51028e-12
-7.15295e-12
-2.23645e-11
-5.63658e-12
-5.12345e-12
1.57631e-11
-9.70862e-12
8.77822e-12
-6.8046e-12
-3.03282e-11
-1.18947e-11
-1.37872e-12
9.94817e-12
1.21444e-11
2.13274e-11
-2.28897e-11
6.56343e-12
5.36178e-13
-1.32687e-13
1.66477e-11
1.67188e-11
-3.73886e-11
8.3322e-12
1.18721e-10
2.44432e-11
-1.19189e-10
-1.81937e-10
2.81095e-11
1.76692e-10
4.97218e-12
-3.47777e-11
-4.10275e-11
-2.36438e-11
-1.33699e-11
3.14854e-11
3.04307e-12
1.3949e-11
1.07485e-11
-5.45479e-15
1.16618e-11
-1.79822e-12
-9.47038e-12
-1.53298e-11
-1.27895e-11
2.50437e-11
-2.19558e-12
9.47663e-12
-7.84956e-12
-1.13606e-11
-5.56241e-12
5.33233e-12
3.16846e-12
-9.2638e-12
-7.99976e-14
-2.7731e-11
-8.73796e-12
1.07592e-11
1.70679e-11
3.84772e-11
5.84475e-11
-5.87862e-11
-7.14755e-11
3.8302e-11
2.71771e-10
9.0711e-11
-3.01599e-10
-1.86093e-10
-1.05366e-10
3.24049e-11
1.48245e-10
3.24923e-11
-9.36111e-12
-3.59535e-11
-2.68537e-11
-3.68248e-11
1.28546e-11
-9.23143e-12
2.80392e-11
1.54107e-11
2.51689e-11
6.19338e-12
2.72994e-12
-7.49901e-12
2.36473e-11
8.49671e-12
1.64745e-11
8.90285e-14
1.64811e-13
-7.80569e-12
-7.68553e-13
-1.0643e-11
-2.48252e-11
-2.64813e-11
-1.95544e-11
4.44418e-12
5.94265e-11
4.43859e-11
-8.49524e-11
-7.7947e-12
2.57184e-10
1.64896e-10
-5.43601e-10
-4.19966e-10
2.92513e-10
6.78475e-10
9.24653e-11
-2.94687e-10
-1.04403e-10
-1.37424e-10
1.83435e-11
2.73195e-11
1.11075e-11
-6.44495e-12
-3.03093e-11
1.88637e-12
-2.43665e-11
4.32126e-11
-3.2579e-12
3.91216e-11
4.14074e-13
2.07341e-11
1.11506e-12
1.74464e-11
1.35602e-11
1.62818e-11
2.2202e-12
3.06334e-12
-9.28635e-12
-1.72897e-11
-2.4547e-11
-1.36996e-11
-1.77838e-11
1.42988e-11
1.34688e-11
-4.33546e-14
4.30905e-11
5.54049e-11
2.21102e-11
-7.78016e-12
-2.18792e-10
1.06323e-09
1.54808e-10
4.38952e-10
-3.81974e-08
2.41058e-10
5.60432e-10
7.06571e-11
-5.39537e-11
-1.29867e-12
-9.15734e-11
2.07459e-11
-5.56269e-11
-8.25957e-12
-1.99597e-11
-1.41949e-11
9.67115e-12
-1.56934e-11
3.29216e-11
-9.79447e-12
1.81148e-11
2.39208e-12
6.58545e-12
1.0272e-11
1.35718e-11
-1.20799e-12
-5.46936e-12
-1.5386e-11
-1.96073e-11
-1.10357e-11
3.83176e-12
-5.64234e-12
2.56641e-11
3.17395e-11
1.88748e-11
3.62488e-12
-7.25816e-11
-4.60857e-11
1.1247e-11
1.17178e-10
-1.07876e-09
-4.76485e-10
-4.35878e-10
7.02718e-10
-2.50108e-10
-2.3027e-10
-2.90028e-11
-1.44713e-10
6.09525e-11
-2.44286e-11
6.74701e-11
-3.5143e-11
6.64421e-11
-2.46554e-11
9.7258e-12
-4.58393e-10
-2.113e-11
-2.17989e-12
-9.94143e-12
-3.11454e-12
-7.0647e-10
-5.43638e-12
3.05492e-12
4.13293e-12
-6.5936e-12
-1.37177e-12
-1.40715e-11
-1.99257e-11
3.0717e-12
2.6921e-11
2.34158e-11
2.3256e-11
3.22701e-12
-5.59162e-11
-3.43352e-12
5.75912e-11
-2.05639e-11
-2.52431e-10
-1.04367e-10
5.00428e-10
3.77243e-10
-3.01651e-10
-3.34894e-10
-1.73495e-10
1.39678e-11
8.52912e-11
2.5357e-10
2.53591e-11
3.87201e-11
3.29826e-11
-7.32592e-12
2.68093e-11
-3.46853e-12
5.62461e-12
-6.91682e-12
-7.02545e-12
-2.03699e-11
-8.12122e-12
-1.54232e-11
-4.66368e-12
-1.52634e-11
-2.51938e-12
-3.55957e-12
-3.48805e-12
8.77782e-12
-5.49688e-12
-3.39551e-12
1.16054e-11
1.45827e-11
2.29193e-11
1.72252e-11
-3.05634e-12
-6.07925e-11
-2.21975e-11
-5.91204e-11
2.11212e-11
1.99822e-10
7.93237e-11
-2.97735e-10
-2.5514e-10
-1.11055e-10
-1.24056e-09
1.62771e-10
1.25447e-10
-1.50499e-10
-1.21418e-10
-4.73765e-11
-2.72923e-11
2.82164e-11
2.01213e-11
3.54202e-11
7.68753e-12
4.07641e-12
-1.40507e-11
-6.17036e-12
-2.31603e-11
1.0569e-11
-1.0049e-11
-1.38194e-13
-1.59689e-11
-4.7616e-12
-1.00229e-11
7.99486e-12
1.77928e-11
9.72761e-12
8.88256e-12
8.5238e-12
-1.85636e-12
7.07948e-12
6.53521e-12
-2.2808e-11
-3.82793e-11
-2.99463e-12
-1.79112e-11
5.08051e-11
-7.66682e-11
-8.73955e-11
1.59812e-09
1.57698e-10
5.34348e-10
2.32439e-09
-1.18783e-10
-3.48409e-11
-4.94478e-11
-9.50716e-11
-2.73281e-11
-3.54274e-11
1.22704e-11
2.22007e-11
2.85334e-12
1.27691e-11
-6.2945e-12
-7.57856e-12
-2.18583e-13
-7.19396e-12
2.12495e-11
1.00433e-11
1.08141e-11
-4.78929e-12
-5.90588e-13
-1.29268e-11
1.33833e-11
1.46138e-11
2.16918e-11
1.39609e-11
3.82491e-12
-2.32226e-11
-1.16902e-11
1.23135e-11
-2.37563e-11
2.94643e-11
-3.5286e-11
-3.39725e-11
9.28153e-12
1.03928e-10
1.2737e-10
-1.77111e-09
-3.23301e-10
-2.69419e-10
7.90282e-10
2.03717e-11
-1.16447e-10
2.02326e-11
-4.60817e-11
4.95212e-11
4.63812e-11
1.92e-11
3.64261e-11
-2.10095e-11
1.74303e-11
-1.71427e-11
1.82691e-12
6.0218e-12
4.54501e-12
2.11001e-11
2.45555e-11
1.88962e-11
6.11619e-12
3.47947e-12
-1.10569e-11
8.92334e-12
-1.29597e-12
1.68692e-11
8.80576e-12
9.70983e-12
-2.39042e-11
-1.04375e-11
2.31658e-12
-1.89633e-11
6.11195e-11
-4.79812e-11
3.66328e-11
-3.65109e-11
-2.12988e-10
-1.60447e-11
3.98558e-10
2.7654e-10
-2.31993e-10
-1.94182e-10
4.19931e-11
9.10484e-11
1.27443e-10
1.17411e-10
4.811e-11
4.91373e-11
-4.67869e-12
3.17035e-11
-3.0774e-11
6.57253e-12
-1.27465e-11
-7.52798e-12
1.75829e-11
-6.85191e-12
1.32376e-11
1.0867e-11
1.19722e-11
7.0519e-12
2.98135e-12
-1.20002e-11
-2.18881e-12
-1.10768e-11
5.34621e-12
-1.99403e-12
1.16481e-11
-1.94711e-11
1.34534e-11
-1.66139e-11
3.88291e-12
5.5756e-11
-1.86436e-11
1.41666e-11
-7.27772e-11
3.75257e-11
-3.81342e-11
-3.02481e-11
-2.92656e-11
3.20391e-11
-4.46313e-10
8.56762e-11
6.356e-11
2.37234e-11
-1.76817e-12
3.96392e-12
7.33647e-12
-3.76736e-11
-1.47474e-11
-3.67727e-11
-2.13009e-11
-3.44017e-12
-2.2991e-11
2.22875e-11
-2.77646e-11
4.81272e-12
-1.45626e-11
8.15106e-14
-3.16237e-12
-3.00859e-12
-1.39297e-11
-6.38577e-12
-1.35113e-11
-7.40976e-13
8.77837e-13
7.81473e-12
-1.60969e-11
1.92135e-11
-2.38555e-11
2.83714e-11
5.14542e-12
1.70501e-11
3.676e-11
-2.21056e-11
-2.2612e-12
-5.75656e-11
-5.28903e-11
-5.87935e-11
4.60452e-11
-1.00756e-11
9.91194e-12
-6.39553e-11
-2.10521e-12
-5.78965e-11
-4.93145e-11
-5.76754e-11
-5.32299e-11
-4.55925e-11
-2.32589e-11
-2.88178e-11
4.77019e-12
-2.55574e-11
2.17097e-11
-2.891e-11
8.02282e-12
-1.66982e-11
-1.86933e-12
-1.21399e-11
-9.31494e-12
-1.4631e-11
-4.38463e-12
-1.1198e-11
3.4107e-12
9.43958e-12
4.63901e-12
-2.37265e-12
5.15491e-12
-2.63141e-11
2.0553e-11
-2.40053e-11
3.4184e-11
5.50366e-12
3.24537e-11
3.41366e-12
2.07254e-12
1.47513e-11
-1.81962e-11
-1.07029e-11
-2.9999e-11
-1.02361e-11
-6.62334e-11
-3.58634e-11
-7.34532e-11
-5.62486e-11
-5.55732e-11
-3.29747e-11
-2.4618e-11
-5.87392e-13
-1.27401e-11
1.62531e-11
-1.27417e-11
2.45796e-11
-8.35552e-12
1.51973e-11
2.77065e-12
4.90124e-12
-1.25918e-11
-1.25426e-11
-1.0013e-11
-7.33651e-13
-7.59259e-12
6.61613e-12
1.30804e-11
8.01249e-12
1.27572e-11
-5.11088e-12
-1.68279e-11
-6.57103e-12
-2.95511e-11
1.40893e-11
-1.64762e-11
3.78776e-11
7.37101e-12
4.2529e-11
8.6059e-12
1.93308e-11
-7.25691e-12
-1.02468e-11
-1.12549e-11
-2.35582e-11
-2.3357e-11
-2.76454e-11
-2.45607e-11
-5.63295e-12
-8.98848e-12
1.61115e-11
1.82705e-11
1.59393e-11
3.15829e-11
9.5643e-12
2.67322e-11
1.34479e-11
1.29667e-11
1.75016e-11
8.78739e-12
-3.50304e-12
-9.61711e-12
-4.01145e-12
9.69347e-13
-6.19895e-13
4.8966e-12
8.61092e-12
6.59647e-12
1.3546e-11
-3.39641e-12
-6.26807e-12
-1.40624e-11
-2.2258e-11
-4.1161e-12
-1.9352e-11
1.71712e-11
-3.87532e-12
3.13763e-11
-7.38226e-12
2.54881e-11
-1.7793e-12
8.02996e-12
-2.73049e-12
6.37217e-12
6.6369e-12
6.81129e-12
8.08744e-12
1.7986e-11
6.03989e-12
2.64594e-11
2.51214e-11
2.21471e-11
3.71242e-11
1.43149e-11
1.81326e-11
1.39121e-11
-1.83953e-12
1.28474e-11
5.32002e-12
5.06043e-12
3.31665e-13
5.91008e-12
7.20745e-12
8.8962e-12
-1.90434e-12
-1.53383e-11
-1.88998e-11
-1.45056e-11
-7.56249e-12
-8.74536e-12
1.50827e-12
2.16046e-11
2.13364e-11
6.68271e-12
1.84117e-11
3.16338e-11
8.76928e-12
-1.2914e-11
)
;

boundaryField
{
    sides
    {
        type            calculated;
        value           uniform 0;
    }
    inlet
    {
        type            calculated;
        value           uniform 0;
    }
    outlet
    {
        type            calculated;
        value           nonuniform List<scalar> 
20
(
7.01189e-11
3.9752e-11
1.15711e-12
-2.79036e-11
-2.89068e-11
-8.52028e-12
-9.80623e-13
-6.01652e-12
-2.55342e-12
-1.14077e-12
2.29425e-11
3.37656e-11
2.57915e-11
1.164e-12
-1.54899e-11
-9.54497e-12
3.28845e-12
4.19732e-12
-6.48231e-12
-1.41564e-11
)
;
    }
    frontAndBack
    {
        type            empty;
        value           nonuniform List<scalar> 0();
    }
}


// ************************************************************************* //
