/*--------------------------------*- C++ -*----------------------------------*\
  =========                 |
  \\      /  F ield         | OpenFOAM: The Open Source CFD Toolbox
   \\    /   O peration     | Website:  https://openfoam.org
    \\  /    A nd           | Version:  9
     \\/     M anipulation  |
\*---------------------------------------------------------------------------*/
FoamFile
{
    format      ascii;
    class       volVectorField;
    location    "70";
    object      hU_0;
}
// * * * * * * * * * * * * * * * * * * * * * * * * * * * * * * * * * * * * * //

dimensions      [0 2 -1 0 0 0 0];

internalField   nonuniform List<vector> 
400
(
(0.001 -2.46356e-08 0)
(0.00100004 -7.10866e-08 0)
(0.00100012 -1.1352e-07 0)
(0.00100024 -1.52164e-07 0)
(0.00100039 -1.86806e-07 0)
(0.00100058 -2.1658e-07 0)
(0.00100078 -2.37258e-07 0)
(0.00100099 -2.45889e-07 0)
(0.00100118 -2.36946e-07 0)
(0.00100133 -2.1172e-07 0)
(0.0010014 -1.68938e-07 0)
(0.00100139 -1.28788e-07 0)
(0.00100129 -9.9058e-08 0)
(0.00100111 -9.31299e-08 0)
(0.00100087 -9.96251e-08 0)
(0.00100064 -1.35426e-07 0)
(0.00100044 -1.56398e-07 0)
(0.00100034 -2.0118e-07 0)
(0.00100026 -1.88875e-07 0)
(0.00100033 -2.68673e-07 0)
(0.001 -2.74324e-08 0)
(0.00100005 -8.00697e-08 0)
(0.00100013 -1.28977e-07 0)
(0.00100026 -1.73709e-07 0)
(0.00100042 -2.12542e-07 0)
(0.00100062 -2.40286e-07 0)
(0.00100084 -2.46621e-07 0)
(0.00100108 -2.21626e-07 0)
(0.0010013 -1.55738e-07 0)
(0.00100147 -4.85704e-08 0)
(0.00100156 9.35157e-08 0)
(0.00100154 2.47187e-07 0)
(0.00100141 3.89296e-07 0)
(0.00100119 4.76617e-07 0)
(0.00100092 5.05199e-07 0)
(0.00100067 4.52434e-07 0)
(0.00100048 3.78924e-07 0)
(0.00100036 2.56433e-07 0)
(0.00100033 2.03651e-07 0)
(0.00100028 8.028e-08 0)
(0.001 -5.33211e-08 0)
(0.00100004 -1.60605e-07 0)
(0.00100013 -2.67891e-07 0)
(0.00100026 -3.73714e-07 0)
(0.00100043 -4.73276e-07 0)
(0.00100064 -5.55618e-07 0)
(0.0010009 -6.04203e-07 0)
(0.00100117 -5.99018e-07 0)
(0.00100143 -5.18998e-07 0)
(0.00100164 -3.52059e-07 0)
(0.00100176 -1.09554e-07 0)
(0.00100175 1.62788e-07 0)
(0.00100159 4.0129e-07 0)
(0.0010013 5.1974e-07 0)
(0.00100094 4.99647e-07 0)
(0.00100062 3.54656e-07 0)
(0.00100036 2.04102e-07 0)
(0.00100026 4.57222e-08 0)
(0.00100022 -4.81562e-09 0)
(0.0010003 -1.17931e-07 0)
(0.001 -7.43571e-08 0)
(0.00100004 -2.24034e-07 0)
(0.00100013 -3.76292e-07 0)
(0.00100026 -5.31148e-07 0)
(0.00100045 -6.80727e-07 0)
(0.00100069 -8.09645e-07 0)
(0.00100099 -8.89608e-07 0)
(0.00100134 -8.86885e-07 0)
(0.00100171 -7.56678e-07 0)
(0.00100203 -4.74756e-07 0)
(0.00100222 -2.2143e-08 0)
(0.00100219 4.93113e-07 0)
(0.00100192 9.36442e-07 0)
(0.00100146 1.13885e-06 0)
(0.00100097 1.05468e-06 0)
(0.00100058 7.44204e-07 0)
(0.00100041 4.25256e-07 0)
(0.00100035 1.70141e-07 0)
(0.0010004 1.00854e-07 0)
(0.00100034 -2.83277e-10 0)
(0.001 -9.16317e-08 0)
(0.00100004 -2.79627e-07 0)
(0.00100012 -4.78738e-07 0)
(0.00100025 -6.95109e-07 0)
(0.00100044 -9.20723e-07 0)
(0.00100072 -1.13878e-06 0)
(0.00100109 -1.29961e-06 0)
(0.00100155 -1.33881e-06 0)
(0.00100206 -1.17597e-06 0)
(0.00100257 -7.78743e-07 0)
(0.0010029 -1.68782e-07 0)
(0.00100288 5.79224e-07 0)
(0.00100244 1.23031e-06 0)
(0.00100167 1.51115e-06 0)
(0.00100086 1.37549e-06 0)
(0.00100031 9.66049e-07 0)
(0.00100013 5.8291e-07 0)
(0.00100021 3.1423e-07 0)
(0.00100036 2.60767e-07 0)
(0.00100043 1.67333e-07 0)
(0.001 -1.03721e-07 0)
(0.00100003 -3.19899e-07 0)
(0.00100009 -5.63847e-07 0)
(0.00100019 -8.45664e-07 0)
(0.00100038 -1.17263e-06 0)
(0.00100068 -1.52508e-06 0)
(0.00100115 -1.86052e-06 0)
(0.00100178 -2.05578e-06 0)
(0.00100254 -1.91276e-06 0)
(0.00100326 -1.19904e-06 0)
(0.00100377 8.47776e-08 0)
(0.00100377 1.54553e-06 0)
(0.00100309 2.43398e-06 0)
(0.00100192 2.30491e-06 0)
(0.00100081 1.43127e-06 0)
(0.00100019 4.9436e-07 0)
(0.00100017 1.47741e-08 0)
(0.00100037 -8.55949e-08 0)
(0.00100064 5.88877e-08 0)
(0.00100054 4.93689e-08 0)
(0.001 -1.02776e-07 0)
(0.001 -3.34502e-07 0)
(0.00100002 -6.03188e-07 0)
(0.00100008 -9.62613e-07 0)
(0.00100021 -1.39252e-06 0)
(0.00100048 -1.94707e-06 0)
(0.001001 -2.49086e-06 0)
(0.00100188 -3.08561e-06 0)
(0.00100321 -3.235e-06 0)
(0.00100472 -2.87691e-06 0)
(0.00100574 -6.6981e-07 0)
(0.00100535 2.55751e-06 0)
(0.00100349 4.82861e-06 0)
(0.00100112 4.73647e-06 0)
(0.000999606 3.02959e-06 0)
(0.000999369 1.2664e-06 0)
(0.001 4.33024e-07 0)
(0.00100056 3.26689e-07 0)
(0.00100092 5.6076e-07 0)
(0.00100066 5.33279e-07 0)
(0.000999996 -9.25631e-08 0)
(0.000999968 -2.89299e-07 0)
(0.000999907 -5.77713e-07 0)
(0.000999875 -9.57203e-07 0)
(0.000999878 -1.57797e-06 0)
(0.00100009 -2.346e-06 0)
(0.0010005 -3.40371e-06 0)
(0.00100152 -4.1258e-06 0)
(0.00100308 -4.37325e-06 0)
(0.00100601 -2.55302e-06 0)
(0.0010091 7.53933e-07 0)
(0.00100915 4.26282e-06 0)
(0.0010055 4.71675e-06 0)
(0.00100073 2.78182e-06 0)
(0.000998148 7.3615e-07 0)
(0.000998271 -2.72206e-07 0)
(0.000999795 -2.83324e-07 0)
(0.00100087 -8.94423e-09 0)
(0.00100133 2.11489e-07 0)
(0.00100085 1.02438e-07 0)
(0.000999995 -4.90161e-08 0)
(0.000999915 -2.03867e-07 0)
(0.000999756 -3.86817e-07 0)
(0.00099953 -7.35337e-07 0)
(0.000999286 -1.33908e-06 0)
(0.00099921 -2.48214e-06 0)
(0.000999707 -4.68788e-06 0)
(0.00100139 -8.06884e-06 0)
(0.00100491 -1.32861e-05 0)
(0.00100958 -1.49172e-05 0)
(0.00101189 3.84068e-06 0)
(0.00100893 1.87238e-05 0)
(0.00100221 1.57783e-05 0)
(0.000997567 5.74019e-06 0)
(0.000996884 -3.16466e-07 0)
(0.000998458 -1.26232e-06 0)
(0.00100027 -9.28323e-08 0)
(0.001001 6.35454e-07 0)
(0.00100107 6.51745e-07 0)
(0.00100054 2.43356e-07 0)
(0.000999804 -1.94205e-08 0)
(0.00100017 -6.63086e-08 0)
(0.000999215 -1.51387e-07 0)
(0.000999903 -2.48975e-07 0)
(0.00099752 -5.9243e-07 0)
(0.000998843 -1.13135e-06 0)
(0.000993347 -2.88329e-06 0)
(0.00099753 -5.59272e-06 0)
(0.000991664 -1.15438e-05 0)
(0.000915833 -1.27047e-05 0)
(0.000951461 2.71234e-07 0)
(0.00101022 1.46402e-05 0)
(0.000990952 1.3084e-05 0)
(0.000983974 5.13969e-06 0)
(0.000989585 1.93396e-07 0)
(0.00099628 -7.81601e-07 0)
(0.000999234 -1.11436e-07 0)
(0.00099941 2.48615e-07 0)
(0.000998645 1.74273e-07 0)
(0.000998502 -1.85288e-07 0)
(0.000999804 1.34049e-08 0)
(0.00100017 4.65163e-08 0)
(0.000999214 1.17822e-07 0)
(0.000999902 1.99981e-07 0)
(0.000997518 5.29621e-07 0)
(0.000998838 1.05197e-06 0)
(0.000993339 2.78678e-06 0)
(0.000997518 5.47375e-06 0)
(0.000991649 1.13964e-05 0)
(0.000915805 1.2549e-05 0)
(0.000951429 -4.71576e-07 0)
(0.0010102 -1.49064e-05 0)
(0.000990943 -1.34075e-05 0)
(0.000983965 -5.53484e-06 0)
(0.000989566 -6.47854e-07 0)
(0.000996242 2.48078e-07 0)
(0.000999193 -4.72805e-07 0)
(0.000999365 -1.00236e-06 0)
(0.000998631 -9.88397e-07 0)
(0.000998452 -8.88856e-07 0)
(0.000999995 4.27598e-08 0)
(0.000999915 1.84542e-07 0)
(0.000999754 3.54276e-07 0)
(0.00099953 6.87972e-07 0)
(0.000999285 1.27725e-06 0)
(0.00099921 2.40229e-06 0)
(0.000999702 4.58931e-06 0)
(0.00100139 7.94301e-06 0)
(0.0010049 1.31338e-05 0)
(0.00100958 1.47185e-05 0)
(0.00101188 -4.06518e-06 0)
(0.00100889 -1.90032e-05 0)
(0.00100214 -1.60936e-05 0)
(0.000997476 -6.12008e-06 0)
(0.000996813 -8.29088e-08 0)
(0.000998399 7.75132e-07 0)
(0.00100016 -4.2824e-07 0)
(0.00100085 -1.30531e-06 0)
(0.00100088 -1.3789e-06 0)
(0.00100036 -1.25093e-06 0)
(0.000999996 8.62468e-08 0)
(0.000999967 2.70754e-07 0)
(0.000999905 5.46202e-07 0)
(0.000999871 9.11595e-07 0)
(0.00099987 1.51469e-06 0)
(0.00100008 2.26235e-06 0)
(0.00100048 3.29417e-06 0)
(0.00100149 3.99166e-06 0)
(0.00100303 4.21322e-06 0)
(0.00100594 2.366e-06 0)
(0.00100902 -9.80062e-07 0)
(0.00100906 -4.53698e-06 0)
(0.00100542 -5.01646e-06 0)
(0.00100066 -3.12648e-06 0)
(0.000998055 -1.13004e-06 0)
(0.000998131 -2.52067e-07 0)
(0.00099962 -3.23976e-07 0)
(0.00100064 -7.41562e-07 0)
(0.00100106 -9.66485e-07 0)
(0.00100055 -1.07402e-06 0)
(0.001 9.68573e-08 0)
(0.001 3.16606e-07 0)
(0.00100002 5.73238e-07 0)
(0.00100007 9.19148e-07 0)
(0.0010002 1.33457e-06 0)
(0.00100046 1.87171e-06 0)
(0.00100097 2.39989e-06 0)
(0.00100185 2.97611e-06 0)
(0.00100317 3.11191e-06 0)
(0.00100469 2.73291e-06 0)
(0.00100568 5.09636e-07 0)
(0.00100527 -2.75319e-06 0)
(0.00100338 -5.07518e-06 0)
(0.00100096 -5.06877e-06 0)
(0.000999405 -3.44913e-06 0)
(0.000999118 -1.79529e-06 0)
(0.000999743 -1.02223e-06 0)
(0.00100025 -1.05881e-06 0)
(0.00100061 -1.30608e-06 0)
(0.00100023 -1.51561e-06 0)
(0.001 9.85762e-08 0)
(0.00100003 3.03974e-07 0)
(0.00100008 5.37072e-07 0)
(0.00100019 8.06984e-07 0)
(0.00100036 1.12199e-06 0)
(0.00100066 1.45985e-06 0)
(0.00100112 1.78e-06 0)
(0.00100174 1.95277e-06 0)
(0.00100248 1.78286e-06 0)
(0.00100317 1.03357e-06 0)
(0.00100365 -2.81496e-07 0)
(0.00100363 -1.78178e-06 0)
(0.00100292 -2.70999e-06 0)
(0.0010017 -2.63124e-06 0)
(0.00100058 -1.7795e-06 0)
(0.000999902 -8.96601e-07 0)
(0.000999857 -4.28121e-07 0)
(0.000999981 -4.47393e-07 0)
(0.00100022 -6.15306e-07 0)
(0.001 -8.48661e-07 0)
(0.001 8.70654e-08 0)
(0.00100004 2.65931e-07 0)
(0.00100011 4.55781e-07 0)
(0.00100024 6.62351e-07 0)
(0.00100043 8.77553e-07 0)
(0.0010007 1.08438e-06 0)
(0.00100105 1.23169e-06 0)
(0.0010015 1.25564e-06 0)
(0.00100199 1.07489e-06 0)
(0.00100248 6.55743e-07 0)
(0.0010028 1.55831e-08 0)
(0.00100274 -7.72384e-07 0)
(0.00100227 -1.45064e-06 0)
(0.00100146 -1.77454e-06 0)
(0.00100062 -1.66847e-06 0)
(0.001 -1.3488e-06 0)
(0.000999793 -1.02985e-06 0)
(0.000999765 -9.36168e-07 0)
(0.000999883 -9.44097e-07 0)
(0.000999766 -1.10845e-06 0)
(0.001 7.01847e-08 0)
(0.00100004 2.11622e-07 0)
(0.00100012 3.55768e-07 0)
(0.00100025 5.02138e-07 0)
(0.00100043 6.43574e-07 0)
(0.00100066 7.65069e-07 0)
(0.00100095 8.38472e-07 0)
(0.00100128 8.28485e-07 0)
(0.00100163 6.93478e-07 0)
(0.00100191 4.06872e-07 0)
(0.00100206 -4.71761e-08 0)
(0.001002 -5.7652e-07 0)
(0.0010017 -1.03524e-06 0)
(0.0010012 -1.28054e-06 0)
(0.00100065 -1.22887e-06 0)
(0.00100016 -9.94088e-07 0)
(0.000999914 -7.02163e-07 0)
(0.000999739 -5.56223e-07 0)
(0.000999751 -4.86276e-07 0)
(0.000999559 -5.98303e-07 0)
(0.001 5.10209e-08 0)
(0.00100004 1.51535e-07 0)
(0.00100012 2.48421e-07 0)
(0.00100025 3.39602e-07 0)
(0.00100041 4.21148e-07 0)
(0.00100062 4.82318e-07 0)
(0.00100086 5.08575e-07 0)
(0.00100112 4.74714e-07 0)
(0.00100137 3.63288e-07 0)
(0.00100157 1.56931e-07 0)
(0.00100167 -1.16171e-07 0)
(0.0010016 -4.20284e-07 0)
(0.00100139 -6.80064e-07 0)
(0.00100103 -8.40503e-07 0)
(0.00100064 -8.48678e-07 0)
(0.00100022 -7.70041e-07 0)
(0.000999949 -6.38122e-07 0)
(0.000999688 -5.96711e-07 0)
(0.000999627 -5.6099e-07 0)
(0.000999386 -6.84703e-07 0)
(0.001 3.47997e-08 0)
(0.00100004 1.05769e-07 0)
(0.00100011 1.75687e-07 0)
(0.00100023 2.42396e-07 0)
(0.00100038 3.02e-07 0)
(0.00100056 3.48954e-07 0)
(0.00100077 3.74797e-07 0)
(0.00100097 3.69109e-07 0)
(0.00100116 3.20642e-07 0)
(0.0010013 2.2465e-07 0)
(0.00100136 8.63133e-08 0)
(0.00100131 -6.99799e-08 0)
(0.00100115 -2.04889e-07 0)
(0.00100086 -2.95634e-07 0)
(0.00100054 -3.10869e-07 0)
(0.00100017 -2.81107e-07 0)
(0.000999899 -2.02987e-07 0)
(0.000999611 -1.69163e-07 0)
(0.000999516 -1.18604e-07 0)
(0.000999248 -1.98427e-07 0)
(0.001 -4.10864e-09 0)
(0.00100004 -9.60453e-09 0)
(0.00100012 -1.25432e-08 0)
(0.00100024 -1.4501e-08 0)
(0.00100038 -1.71391e-08 0)
(0.00100056 -2.3172e-08 0)
(0.00100075 -3.40832e-08 0)
(0.00100094 -5.35278e-08 0)
(0.00100111 -8.16796e-08 0)
(0.00100123 -1.22096e-07 0)
(0.00100128 -1.69963e-07 0)
(0.00100121 -2.31162e-07 0)
(0.00100107 -2.89963e-07 0)
(0.00100081 -3.4055e-07 0)
(0.00100053 -3.59034e-07 0)
(0.00100018 -3.67669e-07 0)
(0.000999944 -3.42531e-07 0)
(0.000999607 -3.53126e-07 0)
(0.000999521 -3.28019e-07 0)
(0.00099913 -4.10648e-07 0)
)
;

boundaryField
{
    sides
    {
        type            slip;
    }
    inlet
    {
        type            fixedValue;
        value           uniform (0.001 0 0);
    }
    outlet
    {
        type            zeroGradient;
    }
    frontAndBack
    {
        type            empty;
    }
}


// ************************************************************************* //
