/*--------------------------------*- C++ -*----------------------------------*\
  =========                 |
  \\      /  F ield         | OpenFOAM: The Open Source CFD Toolbox
   \\    /   O peration     | Website:  https://openfoam.org
    \\  /    A nd           | Version:  9
     \\/     M anipulation  |
\*---------------------------------------------------------------------------*/
FoamFile
{
    format      ascii;
    class       surfaceScalarField;
    location    "70";
    object      phi;
}
// * * * * * * * * * * * * * * * * * * * * * * * * * * * * * * * * * * * * * //

dimensions      [0 4 -1 0 0 0 0];

internalField   nonuniform List<scalar> 
760
(
5.00009e-06
-9.48346e-11
5.0004e-06
-3.09526e-10
5.00091e-06
-5.13994e-10
5.00162e-06
-7.04543e-10
5.00249e-06
-8.75069e-10
5.00349e-06
-1.00666e-09
5.00455e-06
-1.0633e-09
5.00556e-06
-1.01848e-09
5.0064e-06
-8.35545e-10
5.00692e-06
-5.26277e-10
5.00704e-06
-1.23024e-10
5.00664e-06
3.97644e-10
5.00579e-06
8.5581e-10
5.00469e-06
1.10443e-09
5.00352e-06
1.17261e-09
5.00256e-06
9.55722e-10
5.00185e-06
7.20013e-10
5.00161e-06
2.45449e-10
5.0015e-06
1.02265e-10
-3.93115e-10
5.00012e-06
-2.16888e-10
5.00045e-06
-6.39165e-10
5.00098e-06
-1.04828e-09
5.00172e-06
-1.44443e-09
5.00265e-06
-1.80827e-09
5.00373e-06
-2.09699e-09
5.00492e-06
-2.24953e-09
5.0061e-06
-2.19826e-09
5.00712e-06
-1.85755e-09
5.00777e-06
-1.16992e-09
5.00774e-06
-9.4558e-11
5.00725e-06
8.90936e-10
5.00626e-06
1.84263e-09
5.00495e-06
2.41353e-09
5.00367e-06
2.44407e-09
5.00277e-06
1.85964e-09
5.00224e-06
1.24814e-09
5.0019e-06
5.788e-10
5.00164e-06
3.62539e-10
-1.52071e-10
5.00011e-06
-3.25979e-10
5.00043e-06
-9.59772e-10
5.00096e-06
-1.58244e-09
5.00172e-06
-2.20996e-09
5.00272e-06
-2.80723e-09
5.00394e-06
-3.31328e-09
5.00531e-06
-3.62587e-09
5.00672e-06
-3.59831e-09
5.00792e-06
-3.06672e-09
5.00871e-06
-1.96136e-09
5.00892e-06
-3.06557e-10
5.00824e-06
1.56912e-09
5.00686e-06
3.22294e-09
5.00514e-06
4.1266e-09
5.0035e-06
4.08944e-09
5.0023e-06
3.05814e-09
5.00165e-06
1.89262e-09
5.00146e-06
7.66275e-10
5.00144e-06
3.88063e-10
-2.24855e-10
5.0001e-06
-4.25695e-10
5.00041e-06
-1.27005e-09
5.00094e-06
-2.12136e-09
5.00174e-06
-3.01455e-09
5.00285e-06
-3.90999e-09
5.00428e-06
-4.74396e-09
5.00601e-06
-5.35288e-09
5.00794e-06
-5.53515e-09
5.00983e-06
-4.95367e-09
5.01106e-06
-3.1983e-09
5.01119e-06
-4.20205e-10
5.00998e-06
2.7732e-09
5.00764e-06
5.56625e-09
5.00513e-06
6.6339e-09
5.00346e-06
5.76095e-09
5.00269e-06
3.8328e-09
5.00247e-06
2.11489e-09
5.0023e-06
9.34777e-10
5.00198e-06
7.0235e-10
3.3583e-10
5.00008e-06
-5.06355e-10
5.00034e-06
-1.5292e-09
5.00083e-06
-2.61633e-09
5.00163e-06
-3.81545e-09
5.00286e-06
-5.13102e-09
5.00457e-06
-6.46247e-09
5.00679e-06
-7.57805e-09
5.00941e-06
-8.15319e-09
5.01238e-06
-7.92251e-09
5.01478e-06
-5.58806e-09
5.01481e-06
-4.71913e-10
5.01284e-06
4.76579e-09
5.00866e-06
9.74276e-09
5.00458e-06
1.07103e-08
5.00223e-06
8.1229e-09
5.00173e-06
4.3339e-09
5.00203e-06
1.81503e-09
5.00225e-06
7.2545e-10
5.002e-06
9.44893e-10
6.23667e-10
5.00004e-06
-5.46039e-10
5.0002e-06
-1.68405e-09
5.00054e-06
-2.95511e-09
5.00121e-06
-4.48664e-09
5.00241e-06
-6.33247e-09
5.00451e-06
-8.57861e-09
5.00759e-06
-1.0657e-08
5.01167e-06
-1.22213e-08
5.01552e-06
-1.17816e-08
5.019e-06
-9.05002e-09
5.0202e-06
-1.67798e-09
5.016e-06
8.94415e-09
5.0095e-06
1.62669e-08
5.0042e-06
1.60071e-08
5.00216e-06
1.01643e-08
5.00248e-06
4.0127e-09
5.00326e-06
1.04464e-09
5.00339e-06
6.0418e-10
5.00279e-06
1.54446e-09
1.42035e-09
4.99998e-06
-5.24393e-10
4.99994e-06
-1.63928e-09
5.00003e-06
-3.04486e-09
5.00036e-06
-4.81615e-09
5.00121e-06
-7.19592e-09
5.00291e-06
-1.02803e-08
5.0068e-06
-1.4536e-08
5.01391e-06
-1.93433e-08
5.02376e-06
-2.15977e-08
5.03089e-06
-1.62622e-08
5.02875e-06
5.49815e-10
5.01673e-06
2.09233e-08
5.00416e-06
2.88015e-08
4.99872e-06
2.14591e-08
5.00056e-06
8.32005e-09
5.00283e-06
1.73911e-09
5.0037e-06
1.77462e-10
5.00365e-06
6.6125e-10
5.00304e-06
2.16422e-09
1.68048e-09
4.99987e-06
-3.8875e-10
4.99955e-06
-1.32246e-09
4.99912e-06
-2.6154e-09
4.99885e-06
-4.5466e-09
4.99932e-06
-7.67119e-09
5.00036e-06
-1.13078e-08
5.00365e-06
-1.78237e-08
5.00982e-06
-2.5514e-08
5.02488e-06
-3.66852e-08
5.05612e-06
-4.75048e-08
5.05001e-06
7.34029e-09
5.02318e-06
4.78145e-08
4.99817e-06
5.37925e-08
4.99349e-06
2.61268e-08
4.99946e-06
2.34259e-09
5.00406e-06
-2.87191e-09
5.00489e-06
-6.60565e-10
5.00371e-06
1.84435e-09
5.0035e-06
2.38327e-09
9.69268e-10
4.99977e-06
-1.56063e-10
4.99915e-06
-7.0485e-10
4.99792e-06
-1.38148e-09
4.9961e-06
-2.73471e-09
4.99401e-06
-5.57886e-09
4.99374e-06
-1.10261e-08
4.99945e-06
-2.3533e-08
5.01713e-06
-4.32039e-08
5.05569e-06
-7.52309e-08
5.0668e-06
-5.86317e-08
5.04974e-06
2.37184e-08
4.99649e-06
1.01009e-07
4.9893e-06
6.09924e-08
4.99591e-06
1.95316e-08
5.00019e-06
-1.94128e-09
5.00292e-06
-5.61685e-09
5.00251e-06
-2.45772e-10
5.00183e-06
2.5195e-09
5.00253e-06
1.67782e-09
7.61878e-11
4.99986e-06
-1.43528e-11
4.9992e-06
-5.01403e-11
4.99791e-06
-8.67571e-11
4.9953e-06
-1.27635e-10
4.98989e-06
-1.65833e-10
4.97909e-06
-2.15849e-10
4.95582e-06
-2.67752e-10
4.91295e-06
-3.3569e-10
4.83811e-06
-4.18816e-10
4.78e-06
-4.32355e-10
4.80425e-06
-6.09507e-10
4.90602e-06
-7.19298e-10
4.96779e-06
-7.26818e-10
4.98822e-06
-8.97646e-10
4.98745e-06
-1.16285e-09
4.98326e-06
-1.42776e-09
4.98455e-06
-1.55948e-09
4.98889e-06
-1.82906e-09
4.99246e-06
-1.89701e-09
-2.58702e-09
4.99986e-06
1.26623e-10
4.9992e-06
6.04002e-10
4.9979e-06
1.21391e-09
4.99529e-06
2.48597e-09
4.98988e-06
5.25554e-09
4.97906e-06
1.06047e-08
4.95577e-06
2.30127e-08
4.91288e-06
4.25464e-08
4.83804e-06
7.44625e-08
4.77972e-06
5.78357e-08
4.80423e-06
-2.51201e-08
4.90599e-06
-1.02455e-07
4.96775e-06
-6.25159e-08
4.98806e-06
-2.11948e-08
4.98735e-06
-4.47729e-10
4.98293e-06
2.99636e-09
4.98442e-06
-3.0571e-09
4.98887e-06
-6.28961e-09
4.99234e-06
-5.35928e-09
-4.98587e-09
4.99977e-06
3.57376e-10
4.99914e-06
1.22632e-09
4.99791e-06
2.44975e-09
4.9961e-06
4.30302e-09
4.99402e-06
7.3389e-09
4.99373e-06
1.08883e-08
4.99942e-06
1.73165e-08
5.01707e-06
2.49039e-08
5.05561e-06
3.59198e-08
5.06712e-06
4.63803e-08
5.04943e-06
-6.71616e-09
4.99609e-06
-4.91011e-08
4.98883e-06
-5.52569e-08
4.99568e-06
-2.80341e-08
5.0001e-06
-4.85602e-09
5.0023e-06
7.89778e-10
5.00165e-06
-2.39756e-09
5.00089e-06
-5.53726e-09
5.00167e-06
-6.136e-09
-5.95239e-09
4.99986e-06
4.93136e-10
4.99954e-06
1.54657e-09
4.99911e-06
2.88889e-09
4.99883e-06
4.58709e-09
4.99927e-06
6.89258e-09
5.00026e-06
9.89464e-09
5.00348e-06
1.41054e-08
5.0096e-06
1.8774e-08
5.02459e-06
2.09301e-08
5.0555e-06
1.54038e-08
5.04979e-06
-1.62308e-09
5.02282e-06
-2.21683e-08
4.99786e-06
-3.02982e-08
4.99315e-06
-2.33196e-08
4.99862e-06
-1.03382e-08
5.00343e-06
-4.02279e-09
5.00372e-06
-2.67738e-09
5.00235e-06
-4.1629e-09
5.00215e-06
-5.94097e-09
-6.53577e-09
4.99998e-06
5.17605e-10
4.99993e-06
1.59794e-09
5e-06
2.81272e-09
5.00031e-06
4.28404e-09
5.00113e-06
6.06716e-09
5.00279e-06
8.23431e-09
5.00668e-06
1.02208e-08
5.01378e-06
1.16681e-08
5.02355e-06
1.11258e-08
5.03071e-06
8.29154e-09
5.02838e-06
6.24596e-10
5.01625e-06
-1.00212e-08
5.0035e-06
-1.7543e-08
4.99776e-06
-1.75997e-08
4.99939e-06
-1.19835e-08
5.00159e-06
-6.22294e-09
5.00239e-06
-3.47292e-09
5.00212e-06
-3.89093e-09
5.00118e-06
-5.0046e-09
-5.97784e-09
5.00004e-06
4.81696e-10
5.00018e-06
1.45422e-09
5.0005e-06
2.49055e-09
5.00115e-06
3.63633e-09
5.00232e-06
4.89692e-09
5.00439e-06
6.16133e-09
5.00741e-06
7.20418e-09
5.01139e-06
7.69208e-09
5.01513e-06
7.38565e-09
5.01852e-06
4.87039e-09
5.01955e-06
-4.15493e-10
5.01522e-06
-5.70626e-09
5.00853e-06
-1.08722e-08
5.00309e-06
-1.21777e-08
5.00086e-06
-9.75726e-09
5.00099e-06
-6.35661e-09
5.00154e-06
-4.01784e-09
5.00131e-06
-3.65371e-09
5.00034e-06
-4.04341e-09
-4.97837e-09
5.00008e-06
4.03447e-10
5.00032e-06
1.20872e-09
5.00079e-06
2.01958e-09
5.00157e-06
2.86286e-09
5.00275e-06
3.7133e-09
5.0044e-06
4.50082e-09
5.00655e-06
5.05912e-09
5.00909e-06
5.16305e-09
5.01202e-06
4.45505e-09
5.01439e-06
2.5017e-09
5.01414e-06
-1.51324e-10
5.01207e-06
-3.65146e-09
5.00774e-06
-6.54545e-09
5.00347e-06
-7.91683e-09
5.00091e-06
-7.19623e-09
5.00012e-06
-5.55716e-09
5.0001e-06
-3.9902e-09
4.99987e-06
-3.42288e-09
4.99916e-06
-3.33882e-09
-4.17318e-09
5.0001e-06
3.02912e-10
5.00039e-06
9.10434e-10
5.00091e-06
1.50891e-09
5.00167e-06
2.09618e-09
5.00274e-06
2.64963e-09
5.00411e-06
3.11293e-09
5.00578e-06
3.38854e-09
5.00762e-06
3.32377e-09
5.00932e-06
2.76477e-09
5.01026e-06
1.57428e-09
5.01042e-06
-3.07725e-10
5.00902e-06
-2.24174e-09
5.00649e-06
-4.01305e-09
5.00366e-06
-5.08081e-09
5.00153e-06
-5.05799e-09
5.00034e-06
-4.35341e-09
4.9997e-06
-3.34563e-09
4.99916e-06
-2.88551e-09
4.99844e-06
-2.62092e-09
-3.21552e-09
5.0001e-06
1.98103e-10
5.00041e-06
6.00061e-10
5.00093e-06
9.91878e-10
5.00166e-06
1.36287e-09
5.00262e-06
1.69428e-09
5.00377e-06
1.94789e-09
5.00509e-06
2.06734e-09
5.00644e-06
1.96355e-09
5.00764e-06
1.56672e-09
5.00838e-06
8.35445e-10
5.0082e-06
-1.27468e-10
5.00732e-06
-1.35686e-09
5.00569e-06
-2.37131e-09
5.00367e-06
-3.05624e-09
5.00179e-06
-3.16028e-09
5.00033e-06
-2.89214e-09
4.99931e-06
-2.3237e-09
4.99851e-06
-2.09095e-09
4.99772e-06
-1.82809e-09
-2.27764e-09
5.00008e-06
1.13161e-10
5.00037e-06
3.07355e-10
5.00086e-06
4.97431e-10
5.00155e-06
6.77552e-10
5.00241e-06
8.33414e-10
5.00341e-06
9.46197e-10
5.00448e-06
9.9295e-10
5.0055e-06
9.36268e-10
5.00632e-06
7.40375e-10
5.00679e-06
3.6531e-10
5.0068e-06
-1.39814e-10
5.00606e-06
-6.24904e-10
5.00478e-06
-1.08534e-09
5.00315e-06
-1.41998e-09
5.00148e-06
-1.4922e-09
5.00002e-06
-1.43176e-09
4.99888e-06
-1.18457e-09
4.99792e-06
-1.13269e-09
4.99706e-06
-9.73935e-10
-1.42461e-09
5.00012e-06
5.00042e-06
5.00091e-06
5.00158e-06
5.00241e-06
5.00336e-06
5.00435e-06
5.00529e-06
5.00602e-06
5.00638e-06
5.00624e-06
5.00561e-06
5.00452e-06
5.0031e-06
5.0016e-06
5.00016e-06
4.99897e-06
4.99784e-06
4.99686e-06
)
;

boundaryField
{
    sides
    {
        type            calculated;
        value           uniform 0;
    }
    inlet
    {
        type            calculated;
        value           nonuniform List<scalar> 
20
(
-5e-06
-5e-06
-5e-06
-5e-06
-5e-06
-5e-06
-5e-06
-5e-06
-5e-06
-5e-06
-5e-06
-5e-06
-5e-06
-5e-06
-5e-06
-5e-06
-5e-06
-5e-06
-5e-06
-5e-06
)
;
    }
    outlet
    {
        type            calculated;
        value           nonuniform List<scalar> 
20
(
5.0019e-06
5.0014e-06
5.00151e-06
5.00143e-06
5.00172e-06
5.002e-06
5.00278e-06
5.00421e-06
5.00343e-06
4.99513e-06
4.99474e-06
5.00264e-06
5.00274e-06
5.00062e-06
4.99934e-06
4.99836e-06
4.99748e-06
4.99678e-06
4.99621e-06
4.99544e-06
)
;
    }
    frontAndBack
    {
        type            empty;
        value           nonuniform List<scalar> 0();
    }
}


// ************************************************************************* //
