/*--------------------------------*- C++ -*----------------------------------*\
  =========                 |
  \\      /  F ield         | OpenFOAM: The Open Source CFD Toolbox
   \\    /   O peration     | Website:  https://openfoam.org
    \\  /    A nd           | Version:  9
     \\/     M anipulation  |
\*---------------------------------------------------------------------------*/
FoamFile
{
    format      ascii;
    class       volScalarField;
    location    "2";
    object      ddt0(h);
}
// * * * * * * * * * * * * * * * * * * * * * * * * * * * * * * * * * * * * * //

dimensions      [0 1 -1 0 0 0 0];

internalField   nonuniform List<scalar> 
400
(
8.11745e-07
6.87495e-06
2.09975e-05
3.94378e-05
4.9441e-05
3.84255e-05
9.85959e-06
-1.69171e-05
-2.98486e-05
-3.02621e-05
-2.50208e-05
-1.65213e-05
-7.42211e-06
3.75198e-07
9.3228e-06
2.139e-05
3.42226e-05
4.0233e-05
3.65325e-05
1.60903e-05
2.82845e-06
1.34432e-05
3.13335e-05
4.36508e-05
3.3281e-05
1.94355e-06
-2.29639e-05
-2.78633e-05
-2.07664e-05
-1.68617e-05
-1.21277e-05
-7.68901e-06
-3.00873e-06
-1.23057e-06
-2.87333e-06
6.91095e-06
2.62078e-05
4.57384e-05
4.96073e-05
2.304e-05
9.22805e-06
2.73773e-05
4.56122e-05
3.54132e-05
-1.23011e-05
-5.12889e-05
-4.60873e-05
-1.82781e-05
-6.25513e-06
-3.31148e-07
2.94515e-06
5.14888e-07
-9.29015e-08
-1.57961e-06
-9.5274e-06
-1.83759e-05
-1.13443e-07
3.59638e-05
5.40653e-05
2.70801e-05
2.2024e-05
4.73776e-05
4.94074e-05
-7.24626e-06
-7.52193e-05
-7.19278e-05
-1.85034e-05
2.14628e-06
3.20162e-06
9.529e-06
1.38868e-05
4.85617e-06
-1.49553e-07
9.93455e-06
5.13891e-06
-2.00769e-05
-2.79477e-05
-2.58601e-06
2.5364e-05
1.61348e-05
4.35431e-05
6.37894e-05
2.12568e-05
-7.60542e-05
-0.000101652
-2.32266e-05
5.52052e-06
4.96686e-06
2.35947e-05
1.752e-05
1.3511e-05
1.28576e-05
-3.05202e-06
1.35904e-05
3.11419e-05
4.56507e-06
-3.26511e-05
-4.38336e-05
-3.19037e-05
-1.12817e-05
6.96914e-05
6.02764e-05
-3.70948e-05
-0.000122087
-5.50651e-05
1.56532e-05
1.29346e-05
1.55566e-05
2.52451e-05
1.08316e-05
6.53751e-06
2.03662e-05
-1.14979e-05
-2.64305e-05
3.49895e-05
4.5466e-05
-1.0815e-05
-6.09582e-05
-8.52194e-05
-4.13195e-05
9.05988e-05
3.40522e-05
-9.3191e-05
-0.000109147
4.13268e-06
2.57339e-05
1.62175e-05
1.85834e-05
1.45375e-05
7.77156e-06
-5.75693e-06
1.34105e-05
1.38056e-05
-5.51332e-05
-5.84355e-06
7.65903e-05
3.55303e-05
-5.65536e-05
-0.000113347
-6.40531e-05
9.84604e-05
-1.65628e-06
-0.000118859
-6.25963e-05
3.62638e-05
2.00796e-05
1.25997e-05
2.01206e-05
-5.68975e-06
1.10154e-05
-7.16438e-06
-1.1241e-05
3.65941e-05
-1.98991e-05
-4.30136e-05
5.56411e-05
7.34112e-05
-3.18692e-05
-0.000119253
-6.99903e-05
9.47658e-05
-2.89951e-05
-0.00011626
-2.69191e-05
4.84608e-05
1.0353e-05
1.7537e-06
1.62476e-05
-1.10146e-05
1.05767e-05
-7.28687e-06
-1.29367e-05
2.21733e-05
2.33902e-06
-4.16428e-05
2.30116e-05
7.51146e-05
-1.13179e-05
-0.000108132
-6.84831e-05
8.86518e-05
-4.13416e-05
-0.000109938
-1.04814e-05
5.31359e-05
6.32178e-06
-1.00931e-05
1.63843e-05
-2.04331e-05
2.31855e-05
-1.0723e-05
-1.59387e-05
2.87322e-05
1.98107e-05
-4.27844e-05
1.30989e-05
6.85137e-05
-1.92097e-07
-9.88532e-05
-6.50879e-05
8.78817e-05
-4.0373e-05
-0.00011115
-8.99104e-06
5.26559e-05
5.83659e-06
-1.03016e-05
1.61904e-05
-2.06209e-05
2.31047e-05
-1.10036e-05
-1.64232e-05
2.8806e-05
1.97608e-05
-4.40865e-05
1.28088e-05
7.04984e-05
-5.91483e-07
-9.8849e-05
-6.53872e-05
9.44489e-05
-2.91606e-05
-0.000116324
-2.88476e-05
4.95496e-05
1.05109e-05
1.50797e-06
1.58248e-05
-1.19481e-05
1.04133e-05
-7.92546e-06
-1.31177e-05
2.17505e-05
1.71925e-06
-4.29482e-05
2.51478e-05
7.44469e-05
-8.05097e-06
-0.000108528
-6.8131e-05
9.86878e-05
-1.65942e-06
-0.000119335
-6.31439e-05
3.2745e-05
2.05973e-05
1.22541e-05
1.98398e-05
-6.44719e-06
1.10122e-05
-6.68819e-06
-1.13794e-05
3.57959e-05
-2.05077e-05
-4.23904e-05
5.32869e-05
7.04039e-05
-3.30544e-05
-0.000118658
-7.12733e-05
8.97611e-05
3.49126e-05
-9.39659e-05
-0.000108878
3.60379e-07
2.5859e-05
1.88958e-05
1.81984e-05
1.45013e-05
7.40089e-06
-6.04971e-06
1.26494e-05
1.2595e-05
-5.76094e-05
-4.73158e-06
7.01856e-05
4.10232e-05
-5.63517e-05
-0.000115787
-6.22041e-05
6.86666e-05
6.00312e-05
-3.67172e-05
-0.000121884
-5.38624e-05
1.23266e-05
1.14102e-05
1.686e-05
2.41272e-05
1.06165e-05
3.84531e-06
1.94591e-05
-1.15656e-05
-2.65502e-05
3.25624e-05
5.07149e-05
-7.94028e-06
-6.31125e-05
-8.49813e-05
-4.31098e-05
4.23556e-05
6.32464e-05
2.1129e-05
-7.62771e-05
-0.000100823
-2.412e-05
1.00741e-06
6.40632e-06
2.20793e-05
1.49587e-05
1.15793e-05
9.97587e-06
-4.22338e-06
1.44954e-05
3.12491e-05
4.18123e-06
-3.36605e-05
-4.4056e-05
-3.29036e-05
-1.08608e-05
2.16111e-05
4.52456e-05
5.00881e-05
-8.12919e-06
-7.52907e-05
-7.17585e-05
-1.88187e-05
-5.0599e-06
1.90008e-06
9.75221e-06
1.36355e-05
4.69916e-06
-1.51228e-06
8.51803e-06
3.44656e-06
-1.91211e-05
-3.19901e-05
-3.40403e-06
2.50695e-05
1.52664e-05
8.6164e-06
2.65624e-05
4.44409e-05
3.56989e-05
-1.35967e-05
-5.14576e-05
-4.59765e-05
-1.72553e-05
-6.31088e-06
-2.78363e-06
4.53791e-06
-6.27869e-08
-6.92226e-07
-2.22934e-06
-1.15496e-05
-1.89245e-05
-4.81703e-07
3.61769e-05
5.42348e-05
2.71166e-05
2.59143e-06
1.30213e-05
2.93551e-05
4.29173e-05
3.23608e-05
1.29343e-06
-2.32897e-05
-2.80079e-05
-2.0502e-05
-1.67781e-05
-1.41706e-05
-8.15198e-06
-3.43054e-06
-1.56948e-06
-1.85535e-06
5.9089e-06
2.65944e-05
4.6129e-05
4.97859e-05
2.30226e-05
4.43749e-07
6.81971e-06
1.99776e-05
3.78863e-05
4.86406e-05
3.73716e-05
8.6582e-06
-1.80305e-05
-3.03228e-05
-3.03792e-05
-2.53883e-05
-1.68497e-05
-7.59826e-06
5.71439e-07
9.41178e-06
2.19447e-05
3.3845e-05
3.97894e-05
3.65111e-05
1.6199e-05
)
;

boundaryField
{
    sides
    {
        type            calculated;
        value           nonuniform List<scalar> 
40
(
4.43749e-07
6.81971e-06
1.99776e-05
3.78863e-05
4.86406e-05
3.73716e-05
8.6582e-06
-1.80305e-05
-3.03228e-05
-3.03792e-05
-2.53883e-05
-1.68497e-05
-7.59826e-06
5.71439e-07
9.41178e-06
2.19447e-05
3.3845e-05
3.97894e-05
3.65111e-05
1.6199e-05
8.11745e-07
6.87495e-06
2.09975e-05
3.94378e-05
4.9441e-05
3.84255e-05
9.85959e-06
-1.69171e-05
-2.98486e-05
-3.02621e-05
-2.50208e-05
-1.65213e-05
-7.42211e-06
3.75198e-07
9.3228e-06
2.139e-05
3.42226e-05
4.0233e-05
3.65325e-05
1.60903e-05
)
;
    }
    inlet
    {
        type            calculated;
        value           nonuniform List<scalar> 
20
(
8.11745e-07
2.82845e-06
9.22805e-06
2.2024e-05
4.35431e-05
6.96914e-05
9.05988e-05
9.84604e-05
9.47658e-05
8.86518e-05
8.78817e-05
9.44489e-05
9.86878e-05
8.97611e-05
6.86666e-05
4.23556e-05
2.16111e-05
8.6164e-06
2.59143e-06
4.43749e-07
)
;
    }
    outlet
    {
        type            calculated;
        value           uniform 0;
    }
    frontAndBack
    {
        type            empty;
    }
}


// ************************************************************************* //
