/*--------------------------------*- C++ -*----------------------------------*\
  =========                 |
  \\      /  F ield         | OpenFOAM: The Open Source CFD Toolbox
   \\    /   O peration     | Website:  https://openfoam.org
    \\  /    A nd           | Version:  9
     \\/     M anipulation  |
\*---------------------------------------------------------------------------*/
FoamFile
{
    format      ascii;
    class       volVectorField;
    location    "2";
    object      ddt0(hU);
}
// * * * * * * * * * * * * * * * * * * * * * * * * * * * * * * * * * * * * * //

dimensions      [0 2 -2 0 0 0 0];

internalField   nonuniform List<vector> 
400
(
(-3.41383e-07 -7.91045e-08 0)
(-1.48528e-06 -5.94479e-07 0)
(-3.14578e-06 -1.7386e-06 0)
(-4.43665e-06 -2.78852e-06 0)
(-3.84125e-06 -2.22564e-06 0)
(-1.07484e-06 6.63391e-07 0)
(2.16782e-06 3.9723e-06 0)
(3.9888e-06 5.29519e-06 0)
(3.96854e-06 4.51102e-06 0)
(2.96657e-06 3.1515e-06 0)
(1.74228e-06 1.93372e-06 0)
(1.03017e-06 8.72532e-07 0)
(9.08137e-07 1.72943e-07 0)
(1.12504e-06 -1.17031e-07 0)
(2.36706e-06 -4.56316e-07 0)
(5.12367e-06 -1.89955e-06 0)
(7.8039e-06 -3.73873e-06 0)
(7.45541e-06 -4.96219e-06 0)
(3.73826e-06 -4.55048e-06 0)
(-2.4409e-06 -1.9232e-06 0)
(-5.92273e-07 -4.16845e-07 0)
(-2.50389e-06 -2.19429e-06 0)
(-4.30207e-06 -5.37855e-06 0)
(-4.47943e-06 -7.17503e-06 0)
(-1.97493e-06 -3.48761e-06 0)
(1.52527e-06 5.00139e-06 0)
(3.55666e-06 1.16575e-05 0)
(3.43798e-06 1.25517e-05 0)
(2.71845e-06 1.00352e-05 0)
(1.72371e-06 6.66951e-06 0)
(7.55678e-07 4.00333e-06 0)
(1.51232e-07 1.89946e-06 0)
(3.59834e-07 5.01952e-07 0)
(3.42646e-07 3.00555e-07 0)
(-6.1863e-07 4.80894e-08 0)
(3.73005e-07 -2.43754e-06 0)
(3.9467e-06 -7.63004e-06 0)
(7.12389e-06 -1.21922e-05 0)
(7.84599e-06 -1.2257e-05 0)
(4.04014e-06 -5.36625e-06 0)
(-9.87534e-07 -1.27073e-06 0)
(-4.40106e-06 -4.73104e-06 0)
(-5.74772e-06 -8.82032e-06 0)
(-3.00044e-06 -7.50031e-06 0)
(2.19827e-06 2.38864e-06 0)
(5.20974e-06 1.27138e-05 0)
(4.19231e-06 1.47992e-05 0)
(2.21535e-06 1.1568e-05 0)
(4.17764e-07 8.49813e-06 0)
(-8.78465e-08 5.33231e-06 0)
(-2.22717e-07 2.70095e-06 0)
(-7.68123e-07 1.71049e-06 0)
(3.35009e-08 5.33119e-07 0)
(4.95092e-07 3.11187e-07 0)
(-2.21382e-06 1.62258e-06 0)
(-6.54051e-06 1.51849e-06 0)
(-5.38022e-06 -3.93118e-06 0)
(2.23045e-06 -1.19967e-05 0)
(1.14424e-05 -1.52339e-05 0)
(1.40877e-05 -7.38504e-06 0)
(-1.44518e-06 -2.99531e-06 0)
(-6.51164e-06 -7.93004e-06 0)
(-5.40394e-06 -9.72253e-06 0)
(1.62538e-06 -9.34593e-07 0)
(7.54612e-06 1.26978e-05 0)
(6.70232e-06 1.5543e-05 0)
(2.85916e-06 9.91841e-06 0)
(7.18689e-08 6.33769e-06 0)
(-1.12177e-06 3.82098e-06 0)
(-1.43841e-06 1.71315e-06 0)
(-2.72265e-07 3.40851e-07 0)
(-7.35213e-07 8.75543e-07 0)
(-7.74149e-07 3.4017e-07 0)
(2.53925e-06 -2.09023e-06 0)
(1.44868e-06 -2.01161e-07 0)
(-7.82729e-06 4.25558e-06 0)
(-1.49358e-05 3.09328e-06 0)
(-9.196e-06 -4.17863e-06 0)
(8.30448e-06 -1.0538e-05 0)
(2.16028e-05 -6.17133e-06 0)
(-1.19386e-06 -5.40799e-06 0)
(-6.91038e-06 -1.0126e-05 0)
(-1.3777e-06 -5.46116e-06 0)
(8.39872e-06 9.93353e-06 0)
(1.00152e-05 1.73831e-05 0)
(5.28221e-06 8.89093e-06 0)
(2.09097e-08 2.59079e-06 0)
(-1.55545e-06 8.56168e-07 0)
(-1.19928e-06 -1.38174e-06 0)
(-1.787e-06 -1.16658e-06 0)
(-1.93762e-08 -1.64892e-06 0)
(5.19382e-07 -1.21559e-06 0)
(-3.22113e-06 7.85962e-07 0)
(1.3683e-06 -3.24251e-06 0)
(8.2296e-06 -5.17679e-06 0)
(-8.44162e-07 1.48356e-06 0)
(-1.69474e-05 7.33444e-06 0)
(-1.94246e-05 5.43702e-06 0)
(-1.55679e-06 -2.05117e-07 0)
(2.11485e-05 -1.85093e-06 0)
(6.14937e-07 -7.66682e-06 0)
(-3.81266e-06 -9.34412e-06 0)
(5.94433e-06 2.59043e-06 0)
(1.32938e-05 1.66158e-05 0)
(8.71843e-06 1.13117e-05 0)
(4.83547e-07 6.60416e-07 0)
(-2.07922e-06 -1.78701e-06 0)
(-2.48457e-06 -3.01812e-06 0)
(-9.64814e-07 -4.50293e-06 0)
(-1.53803e-06 -1.60746e-06 0)
(-1.0866e-06 -1.59562e-06 0)
(3.26371e-06 -2.71549e-06 0)
(-3.82249e-06 2.77153e-06 0)
(-7.20619e-06 3.06889e-06 0)
(9.0547e-06 -6.0948e-06 0)
(1.13385e-05 -5.34442e-06 0)
(-9.07586e-06 5.44732e-06 0)
(-2.23995e-05 1.02437e-05 0)
(-1.24213e-05 8.26569e-06 0)
(1.26007e-05 2.67689e-06 0)
(4.29118e-06 -8.34155e-06 0)
(3.18424e-06 -5.69247e-06 0)
(1.33825e-05 8.99218e-06 0)
(1.41111e-05 1.41842e-05 0)
(4.55897e-06 2.02358e-06 0)
(-3.09627e-06 -3.43346e-06 0)
(-2.48597e-06 -3.00439e-06 0)
(-2.87583e-06 -2.99779e-06 0)
(-7.63646e-07 -2.69685e-06 0)
(2.39569e-07 -7.40675e-07 0)
(-3.09759e-06 9.96799e-07 0)
(4.84125e-06 -1.89713e-06 0)
(4.44007e-06 3.04183e-07 0)
(-1.43304e-05 7.70944e-06 0)
(-4.20182e-06 6.77622e-10 0)
(1.78383e-05 -8.70114e-06 0)
(5.72514e-06 -1.18967e-06 0)
(-1.75108e-05 9.18232e-06 0)
(-1.89757e-05 1.1538e-05 0)
(1.56569e-06 5.09746e-06 0)
(8.53427e-06 -6.80381e-06 0)
(1.14447e-05 -1.59002e-06 0)
(1.81547e-05 9.85203e-06 0)
(1.23693e-05 7.30275e-06 0)
(-1.26827e-08 -2.88318e-06 0)
(-4.08733e-06 -4.17178e-06 0)
(-1.5771e-06 -2.11227e-06 0)
(-1.7157e-06 -1.78267e-06 0)
(-1.84709e-06 1.99724e-07 0)
(2.19735e-06 -1.06458e-06 0)
(-3.55121e-06 2.17636e-06 0)
(-7.30685e-07 -1.08338e-07 0)
(1.06901e-05 -3.44656e-06 0)
(-6.50624e-06 3.16932e-06 0)
(-1.53862e-05 3.52435e-06 0)
(1.08489e-05 -6.55018e-06 0)
(1.74054e-05 -6.65837e-06 0)
(-6.24412e-06 3.95122e-06 0)
(-2.06453e-05 9.7154e-06 0)
(-7.85263e-06 4.93141e-06 0)
(1.18233e-05 -4.03289e-06 0)
(1.80582e-05 6.24671e-07 0)
(2.05384e-05 6.43653e-06 0)
(9.54158e-06 2.45072e-06 0)
(-2.69799e-06 -3.01125e-06 0)
(-3.73124e-06 -3.0401e-06 0)
(-1.5094e-06 -1.00986e-06 0)
(-8.41622e-07 -2.3755e-07 0)
(-2.48484e-06 1.80481e-06 0)
(2.31446e-06 -9.00418e-07 0)
(-2.07114e-06 6.59126e-07 0)
(-3.75427e-06 1.59757e-06 0)
(8.07965e-06 -2.34341e-06 0)
(-1.5027e-06 -9.92503e-07 0)
(-1.74676e-05 2.11782e-06 0)
(1.92388e-06 -2.3929e-06 0)
(2.01148e-05 -5.11407e-06 0)
(3.86783e-06 1.77813e-08 0)
(-1.74247e-05 5.07762e-06 0)
(-1.30193e-05 3.06327e-06 0)
(1.33904e-05 -1.24357e-06 0)
(2.15056e-05 6.49061e-07 0)
(2.12153e-05 2.08699e-06 0)
(8.41112e-06 5.82225e-07 0)
(-4.78398e-06 -1.14112e-06 0)
(-1.6913e-06 -1.1775e-06 0)
(-2.80742e-06 -2.62781e-07 0)
(-2.93637e-07 7.26686e-07 0)
(2.80245e-06 7.85245e-07 0)
(-4.17314e-06 2.35549e-07 0)
(-8.3749e-06 4.79084e-07 0)
(4.7948e-06 6.84718e-07 0)
(1.38684e-05 -1.62358e-06 0)
(-2.04577e-06 -1.42395e-06 0)
(-2.2834e-05 6.04691e-07 0)
(-3.34698e-06 1.3061e-07 0)
(1.93677e-05 -7.63196e-07 0)
(8.0102e-06 -5.72553e-08 0)
(-1.49664e-05 1.48183e-06 0)
(-1.47215e-05 9.48805e-07 0)
(1.3397e-05 1.34517e-06 0)
(2.16083e-05 -3.88433e-07 0)
(2.10961e-05 -1.99395e-06 0)
(8.47384e-06 -3.81516e-07 0)
(-4.88687e-06 1.162e-06 0)
(-1.52979e-06 1.16928e-06 0)
(-2.83942e-06 4.03145e-07 0)
(-3.75943e-07 -6.77149e-07 0)
(2.82254e-06 -6.71681e-07 0)
(-4.1262e-06 -2.37291e-08 0)
(-8.4037e-06 -3.4966e-07 0)
(4.75004e-06 -4.74578e-07 0)
(1.38356e-05 1.84132e-06 0)
(-2.07194e-06 1.5353e-06 0)
(-2.28499e-05 -4.99709e-07 0)
(-3.3052e-06 4.64517e-08 0)
(1.95045e-05 8.52308e-07 0)
(7.84384e-06 -2.35907e-08 0)
(-1.50452e-05 -1.59082e-06 0)
(-1.47694e-05 -1.11135e-06 0)
(1.17736e-05 4.21014e-06 0)
(1.79596e-05 -5.78753e-07 0)
(2.06093e-05 -6.23076e-06 0)
(9.57677e-06 -2.54354e-06 0)
(-2.61019e-06 3.41164e-06 0)
(-3.75638e-06 3.12248e-06 0)
(-1.44313e-06 9.80837e-07 0)
(-8.4326e-07 3.25497e-07 0)
(-2.4491e-06 -1.60186e-06 0)
(2.27662e-06 1.01735e-06 0)
(-2.15232e-06 -6.48632e-07 0)
(-3.67682e-06 -1.529e-06 0)
(7.9965e-06 2.46492e-06 0)
(-1.66472e-06 1.3399e-06 0)
(-1.76566e-05 -1.94978e-06 0)
(2.04915e-06 2.52316e-06 0)
(1.98458e-05 4.81501e-06 0)
(4.10029e-06 -3.29873e-08 0)
(-1.74255e-05 -4.91597e-06 0)
(-1.30834e-05 -3.13772e-06 0)
(8.41297e-06 6.94219e-06 0)
(1.13207e-05 1.82319e-06 0)
(1.81131e-05 -9.66741e-06 0)
(1.26135e-05 -7.33078e-06 0)
(-8.75276e-08 2.70493e-06 0)
(-4.21245e-06 4.411e-06 0)
(-1.60471e-06 2.03881e-06 0)
(-1.56962e-06 1.78411e-06 0)
(-1.84604e-06 -1.34001e-07 0)
(2.04836e-06 9.94092e-07 0)
(-3.55736e-06 -1.94567e-06 0)
(-6.21523e-07 2.32398e-07 0)
(1.08451e-05 3.54694e-06 0)
(-6.54329e-06 -3.04617e-06 0)
(-1.54373e-05 -3.36101e-06 0)
(1.02275e-05 6.35747e-06 0)
(1.68828e-05 6.5063e-06 0)
(-6.02844e-06 -3.55931e-06 0)
(-2.06913e-05 -9.71846e-06 0)
(-8.46463e-06 -5.21183e-06 0)
(4.16357e-06 8.38363e-06 0)
(3.12937e-06 6.09204e-06 0)
(1.32616e-05 -8.78462e-06 0)
(1.42069e-05 -1.39847e-05 0)
(4.55516e-06 -2.43155e-06 0)
(-2.94479e-06 3.37715e-06 0)
(-2.36519e-06 3.17666e-06 0)
(-2.73138e-06 2.96035e-06 0)
(-7.00945e-07 2.43819e-06 0)
(3.30043e-07 5.9757e-07 0)
(-2.94356e-06 -8.338e-07 0)
(4.72808e-06 1.98006e-06 0)
(4.2786e-06 -2.51037e-07 0)
(-1.46174e-05 -7.9167e-06 0)
(-4.45894e-06 1.64015e-07 0)
(1.67841e-05 8.45221e-06 0)
(6.65201e-06 1.68964e-06 0)
(-1.74276e-05 -9.19313e-06 0)
(-1.98574e-05 -1.18751e-05 0)
(1.41138e-06 -5.39778e-06 0)
(6.02837e-07 7.67337e-06 0)
(-3.8477e-06 9.60577e-06 0)
(5.90325e-06 -2.30956e-06 0)
(1.32034e-05 -1.64133e-05 0)
(8.97865e-06 -1.12681e-05 0)
(6.2279e-07 -1.01997e-06 0)
(-2.18628e-06 1.8706e-06 0)
(-2.61346e-06 3.0142e-06 0)
(-1.11373e-06 4.52032e-06 0)
(-1.2861e-06 1.70448e-06 0)
(-1.17561e-06 1.58307e-06 0)
(3.18429e-06 2.55991e-06 0)
(-3.88245e-06 -2.84468e-06 0)
(-7.09428e-06 -3.06085e-06 0)
(8.67831e-06 5.94352e-06 0)
(1.17859e-05 5.66481e-06 0)
(-8.74075e-06 -4.9396e-06 0)
(-2.31525e-05 -1.05958e-05 0)
(-1.28009e-05 -8.4164e-06 0)
(1.21262e-05 -2.86783e-06 0)
(-1.20284e-06 5.3537e-06 0)
(-6.9133e-06 1.015e-05 0)
(-1.40365e-06 5.70517e-06 0)
(8.38914e-06 -9.82946e-06 0)
(1.00486e-05 -1.713e-05 0)
(5.4125e-06 -9.02508e-06 0)
(-1.91378e-07 -2.93553e-06 0)
(-1.29844e-06 -6.6414e-07 0)
(-1.18507e-06 1.68388e-06 0)
(-1.9441e-06 1.4048e-06 0)
(-2.84159e-07 1.4703e-06 0)
(1.27524e-07 1.2175e-06 0)
(-3.2119e-06 -8.35626e-07 0)
(1.34574e-06 3.303e-06 0)
(8.17417e-06 5.00787e-06 0)
(-6.27115e-07 -1.47678e-06 0)
(-1.73261e-05 -7.79094e-06 0)
(-2.0088e-05 -5.76531e-06 0)
(-2.10537e-06 1.5459e-08 0)
(2.09244e-05 1.71274e-06 0)
(-1.3772e-06 2.92936e-06 0)
(-6.53162e-06 7.85573e-06 0)
(-5.27012e-06 9.85454e-06 0)
(1.58588e-06 1.01506e-06 0)
(7.57819e-06 -1.26011e-05 0)
(6.64494e-06 -1.53902e-05 0)
(3.2054e-06 -1.00168e-05 0)
(-2.47972e-07 -6.47451e-06 0)
(-1.24435e-06 -4.15657e-06 0)
(-1.62085e-06 -1.73602e-06 0)
(-3.66748e-07 -4.4666e-07 0)
(-6.00644e-07 -7.83615e-07 0)
(-9.0953e-07 -3.85293e-07 0)
(2.40933e-06 1.91095e-06 0)
(1.08321e-06 1.95053e-07 0)
(-8.08643e-06 -4.42942e-06 0)
(-1.56373e-05 -3.61355e-06 0)
(-9.55999e-06 3.96402e-06 0)
(8.10356e-06 1.0442e-05 0)
(2.12547e-05 6.11523e-06 0)
(-1.00604e-06 1.26409e-06 0)
(-4.34137e-06 4.64952e-06 0)
(-5.69087e-06 8.80544e-06 0)
(-2.8658e-06 7.61883e-06 0)
(2.20592e-06 -2.39353e-06 0)
(5.27917e-06 -1.25794e-05 0)
(4.16374e-06 -1.4664e-05 0)
(2.19798e-06 -1.18019e-05 0)
(6.84088e-07 -8.73721e-06 0)
(8.04971e-09 -5.67928e-06 0)
(-2.82246e-08 -2.69101e-06 0)
(-8.59729e-07 -1.76394e-06 0)
(-1.75846e-07 -5.61496e-07 0)
(3.50708e-07 -3.69737e-07 0)
(-2.46694e-06 -1.8403e-06 0)
(-6.85892e-06 -1.50482e-06 0)
(-5.73819e-06 3.92294e-06 0)
(2.02632e-06 1.20065e-05 0)
(1.12e-05 1.52542e-05 0)
(1.37513e-05 7.24189e-06 0)
(-6.24647e-07 3.95933e-07 0)
(-2.46021e-06 2.17692e-06 0)
(-4.22067e-06 5.27343e-06 0)
(-4.3828e-06 7.19805e-06 0)
(-1.92073e-06 3.52338e-06 0)
(1.57854e-06 -4.97212e-06 0)
(3.55351e-06 -1.15619e-05 0)
(3.44739e-06 -1.2293e-05 0)
(2.64371e-06 -9.66056e-06 0)
(1.76769e-06 -6.64207e-06 0)
(7.87634e-07 -3.92967e-06 0)
(2.10105e-07 -1.84919e-06 0)
(3.1563e-07 -3.39643e-07 0)
(1.32282e-07 -1.03931e-07 0)
(-6.46192e-07 1.18746e-07 0)
(1.30527e-07 2.52844e-06 0)
(3.69178e-06 7.85794e-06 0)
(6.89427e-06 1.23546e-05 0)
(7.55423e-06 1.23843e-05 0)
(3.65856e-06 5.38008e-06 0)
(-3.6104e-07 6.88971e-08 0)
(-1.51428e-06 6.49156e-07 0)
(-3.07876e-06 1.64717e-06 0)
(-4.29904e-06 2.69954e-06 0)
(-3.71951e-06 2.158e-06 0)
(-1.00078e-06 -7.80849e-07 0)
(2.24865e-06 -4.0158e-06 0)
(4.04154e-06 -5.25402e-06 0)
(3.96891e-06 -4.41684e-06 0)
(2.98426e-06 -2.96068e-06 0)
(1.76754e-06 -1.84961e-06 0)
(1.04977e-06 -8.54029e-07 0)
(8.9071e-07 -1.41209e-07 0)
(1.06881e-06 1.35758e-07 0)
(2.22351e-06 5.91193e-07 0)
(4.96205e-06 1.88728e-06 0)
(7.54174e-06 3.81276e-06 0)
(7.05456e-06 4.99858e-06 0)
(3.35122e-06 4.56106e-06 0)
(-2.96093e-06 1.86393e-06 0)
)
;

boundaryField
{
    sides
    {
        type            calculated;
        value           nonuniform List<vector> 
40
(
(-3.6104e-07 0 0)
(-1.51428e-06 0 0)
(-3.07876e-06 0 0)
(-4.29904e-06 0 0)
(-3.71951e-06 0 0)
(-1.00078e-06 0 0)
(2.24865e-06 0 0)
(4.04154e-06 0 0)
(3.96891e-06 0 0)
(2.98426e-06 0 0)
(1.76754e-06 0 0)
(1.04977e-06 0 0)
(8.9071e-07 0 0)
(1.06881e-06 0 0)
(2.22351e-06 0 0)
(4.96205e-06 0 0)
(7.54174e-06 0 0)
(7.05456e-06 0 0)
(3.35122e-06 0 0)
(-2.96093e-06 0 0)
(-3.41383e-07 0 0)
(-1.48528e-06 0 0)
(-3.14578e-06 0 0)
(-4.43665e-06 0 0)
(-3.84125e-06 0 0)
(-1.07484e-06 0 0)
(2.16782e-06 0 0)
(3.9888e-06 0 0)
(3.96854e-06 0 0)
(2.96657e-06 0 0)
(1.74228e-06 0 0)
(1.03017e-06 0 0)
(9.08137e-07 0 0)
(1.12504e-06 0 0)
(2.36706e-06 0 0)
(5.12367e-06 0 0)
(7.8039e-06 0 0)
(7.45541e-06 0 0)
(3.73826e-06 0 0)
(-2.4409e-06 0 0)
)
;
    }
    inlet
    {
        type            calculated;
        value           uniform (0 0 0);
    }
    outlet
    {
        type            calculated;
        value           nonuniform List<vector> 
20
(
(-2.4409e-06 -1.9232e-06 0)
(4.04014e-06 -5.36625e-06 0)
(1.40877e-05 -7.38504e-06 0)
(2.16028e-05 -6.17133e-06 0)
(2.11485e-05 -1.85093e-06 0)
(1.26007e-05 2.67689e-06 0)
(1.56569e-06 5.09746e-06 0)
(-7.85263e-06 4.93141e-06 0)
(-1.30193e-05 3.06327e-06 0)
(-1.47215e-05 9.48805e-07 0)
(-1.47694e-05 -1.11135e-06 0)
(-1.30834e-05 -3.13772e-06 0)
(-8.46463e-06 -5.21183e-06 0)
(1.41138e-06 -5.39778e-06 0)
(1.21262e-05 -2.86783e-06 0)
(2.09244e-05 1.71274e-06 0)
(2.12547e-05 6.11523e-06 0)
(1.37513e-05 7.24189e-06 0)
(3.65856e-06 5.38008e-06 0)
(-2.96093e-06 1.86393e-06 0)
)
;
    }
    frontAndBack
    {
        type            empty;
    }
}


// ************************************************************************* //
