/*--------------------------------*- C++ -*----------------------------------*\
  =========                 |
  \\      /  F ield         | OpenFOAM: The Open Source CFD Toolbox
   \\    /   O peration     | Website:  https://openfoam.org
    \\  /    A nd           | Version:  9
     \\/     M anipulation  |
\*---------------------------------------------------------------------------*/
FoamFile
{
    format      ascii;
    class       surfaceScalarField;
    location    "2";
    object      ddtCorrDdt0(phi);
}
// * * * * * * * * * * * * * * * * * * * * * * * * * * * * * * * * * * * * * //

dimensions      [0 4 -2 0 0 0 0];

internalField   nonuniform List<scalar> 
760
(
-2.64678e-09
-8.37951e-10
-1.02068e-08
-5.8756e-09
-2.15333e-08
-1.79309e-08
-2.72485e-08
-2.84857e-08
-1.77661e-08
-2.28692e-08
3.89023e-09
9.43603e-09
2.12695e-08
4.70362e-08
2.45286e-08
5.83007e-08
1.89462e-08
4.63314e-08
1.14998e-08
2.66284e-08
5.79418e-09
1.65195e-08
3.78537e-09
6.2405e-09
4.21891e-09
4.7102e-10
7.14893e-09
-9.95942e-10
1.80363e-08
-2.89307e-09
3.40959e-08
-1.26956e-08
4.19542e-08
-3.72187e-08
2.80208e-08
-5.17774e-08
1.04643e-09
-4.7952e-08
-2.03093e-08
-5.96183e-09
-3.40289e-09
-1.81024e-08
-1.63581e-08
-2.88965e-08
-3.7475e-08
-2.39803e-08
-4.58313e-08
-3.03491e-10
-1.24204e-08
2.06947e-08
5.02565e-08
2.28787e-08
8.35707e-08
1.51308e-08
7.36039e-08
1.06191e-08
3.48964e-08
5.8718e-09
3.06356e-08
7.55708e-10
1.69991e-08
3.66212e-10
7.63497e-09
2.01846e-09
1.61042e-09
1.32696e-10
3.45289e-09
-2.88119e-09
2.18856e-08
1.05102e-08
2.68019e-09
2.92706e-08
-3.63422e-08
3.57991e-08
-7.17198e-08
2.98159e-08
-7.88072e-08
-3.57509e-08
-1.39975e-08
-1.13648e-08
-3.30275e-08
-3.22254e-08
-3.572e-08
-5.3156e-08
-4.25117e-09
-3.13239e-08
3.37047e-08
4.30717e-08
3.50171e-08
9.08552e-08
1.32599e-08
7.33328e-08
2.65971e-09
1.88318e-08
-1.79764e-09
3.25078e-08
-5.25136e-10
1.8674e-08
-3.62588e-09
6.522e-09
-3.32357e-09
6.99668e-09
3.51856e-09
2.90528e-09
-1.31258e-09
-1.11281e-10
-2.12625e-08
1.07086e-08
-3.53837e-08
1.83529e-08
-1.24795e-08
2.63123e-09
2.87628e-08
-4.45487e-08
6.83156e-08
-7.27972e-08
-3.78238e-08
-2.85423e-08
-2.23903e-08
-4.93262e-08
-4.89155e-08
-2.30238e-08
-4.64471e-08
4.18871e-08
2.5708e-08
6.15903e-08
9.58554e-08
2.09689e-08
7.19513e-08
-4.764e-09
-9.88467e-09
-2.85731e-09
2.18798e-08
-8.23893e-09
2.16381e-08
-6.98623e-09
-1.71316e-09
6.94396e-10
-4.00767e-09
-6.40316e-09
-3.44668e-11
3.8289e-09
-4.67335e-10
1.63616e-08
-2.33907e-08
-9.42725e-09
-1.88789e-08
-6.34567e-08
1.11768e-08
-7.53852e-08
2.84575e-08
-1.48811e-08
8.45817e-09
8.45767e-08
-2.61459e-08
-1.95026e-08
-4.58824e-08
-3.34651e-08
-4.99582e-08
-5.4266e-08
2.50697e-08
-6.94497e-09
9.08881e-08
8.27585e-08
4.44795e-08
8.55711e-08
-8.71613e-09
-2.8295e-08
-4.48252e-09
6.26741e-10
-7.95727e-09
-5.64911e-09
-1.11102e-08
-1.73236e-08
-6.27866e-09
-1.17694e-08
7.68411e-09
-7.12173e-09
-6.25292e-09
-1.11879e-08
-1.63489e-08
1.0061e-08
3.05873e-08
-6.84492e-09
3.66573e-08
-3.8203e-08
-5.02436e-08
-1.09122e-08
-1.11074e-07
1.51547e-08
-7.30922e-08
4.64919e-08
6.13297e-08
2.88137e-08
5.04869e-09
-5.56142e-08
-4.3723e-08
-1.67176e-08
-3.89795e-08
9.36106e-08
3.81569e-08
9.60566e-08
9.02908e-08
-7.42311e-09
4.34788e-09
-1.64385e-08
-8.30274e-09
-7.27734e-09
-1.18386e-08
-1.56626e-08
-1.5839e-08
-8.41676e-10
-2.01961e-08
-1.11369e-08
-2.58595e-09
7.59474e-09
-4.34719e-09
1.18974e-08
-1.6035e-08
-4.68699e-08
1.6014e-08
-1.91958e-09
4.48449e-08
7.7169e-08
-2.06371e-08
1.15762e-08
-4.44592e-08
-1.03014e-07
1.37362e-08
-1.06931e-07
5.02927e-08
9.90331e-09
5.48219e-08
2.13734e-08
-4.22863e-08
-4.01437e-08
4.68535e-08
-1.4853e-08
1.40827e-07
5.66734e-08
4.778e-08
4.67708e-08
-3.4654e-08
-5.90879e-09
-1.46258e-08
-1.614e-08
-8.18019e-09
-1.13997e-08
-2.15409e-08
-9.81401e-09
1.38419e-08
-3.05896e-09
-1.20995e-08
-3.38979e-09
-5.66108e-09
6.22399e-09
4.66335e-08
6.97195e-10
-2.91473e-08
-1.83995e-08
-7.83364e-08
2.9617e-08
5.30862e-08
2.42655e-08
8.35198e-08
-4.44255e-08
-5.00051e-08
-2.49755e-08
-1.07533e-07
1.80073e-08
-3.73732e-08
5.14052e-08
2.59066e-08
-8.37595e-09
-2.73739e-08
1.13199e-07
2.33646e-09
1.44495e-07
4.32246e-08
-3.32618e-09
1.13958e-08
-4.12552e-08
-1.72179e-08
-4.29425e-09
-1.48889e-08
-6.68929e-09
-1.23031e-09
-1.91935e-08
-4.15774e-09
1.12709e-08
8.35232e-09
3.86634e-09
-9.74649e-09
-2.51048e-08
2.04053e-08
3.25185e-08
3.07371e-09
2.72015e-08
-1.89939e-08
-8.74603e-08
-2.55983e-09
-1.59408e-08
9.66733e-09
1.00627e-07
-1.32601e-08
2.34048e-08
-3.43179e-08
-7.6344e-08
7.30751e-09
-7.08308e-08
2.59466e-08
1.90585e-08
3.05116e-08
-1.20952e-08
1.56734e-07
6.08944e-09
1.2707e-07
1.83226e-08
-3.53488e-08
4.10989e-09
-3.84727e-08
-7.30694e-09
4.72857e-09
-1.31885e-08
-1.18831e-08
-3.56662e-09
-6.9236e-09
2.00134e-09
-2.41851e-09
6.11379e-09
1.92657e-08
1.34907e-09
-3.049e-08
4.56161e-09
4.81589e-10
7.49103e-09
4.45674e-08
-8.51921e-09
-6.36876e-08
-8.88872e-09
-5.95839e-08
3.66529e-09
7.26816e-08
-2.8435e-09
7.00188e-08
-1.13951e-08
-3.2426e-08
-3.40734e-09
-8.04503e-08
1.13478e-08
8.22495e-09
5.49598e-08
3.61539e-10
1.7358e-07
1.16599e-09
1.16144e-07
9.30282e-11
-4.83516e-08
6.61793e-10
-3.76825e-08
-1.57172e-09
1.22733e-08
4.21745e-10
-1.70977e-08
8.34067e-10
-1.73995e-09
-3.73024e-11
7.66107e-10
1.48695e-10
-1.35569e-09
4.70649e-10
-2.56673e-08
6.8885e-10
1.0248e-08
7.78475e-10
6.4911e-08
9.26549e-10
-5.66218e-08
1.2457e-11
-9.14009e-08
4.01818e-10
4.70129e-08
7.61866e-10
8.00422e-08
7.68977e-10
-7.64786e-09
5.84889e-10
-7.99479e-08
-1.01897e-10
-5.73523e-10
5.59207e-08
1.32788e-08
1.726e-07
-5.64521e-09
1.17249e-07
-1.51495e-08
-5.01861e-08
-4.53454e-09
-3.62753e-08
9.23393e-09
1.26192e-08
1.33812e-08
-1.7918e-08
3.61508e-09
-1.70457e-09
-1.45247e-09
9.8114e-10
-5.30152e-09
-1.32323e-09
-1.0796e-10
-2.58622e-08
-4.60062e-09
1.03495e-08
-6.99627e-09
6.41666e-08
8.6251e-09
-5.64785e-08
1.13209e-08
-9.11613e-08
-3.28904e-09
4.74412e-08
3.76773e-09
7.99324e-08
1.20131e-08
-8.39773e-09
1.93308e-09
-8.02984e-08
-1.41671e-08
-9.55996e-09
2.9986e-08
2.85622e-08
1.56203e-07
-2.02308e-09
1.27902e-07
-4.12923e-08
-3.44275e-08
-1.04054e-08
-3.96787e-08
1.1319e-08
5.76246e-09
1.58017e-08
-1.21421e-08
7.20989e-10
-6.77792e-09
4.98662e-09
-1.92239e-09
-7.04009e-09
1.82153e-08
9.53814e-09
-2.99627e-08
-5.66538e-09
2.32504e-10
-2.9194e-09
4.39831e-08
1.99181e-08
-6.45845e-08
4.78731e-09
-5.92775e-08
-1.84553e-08
7.1874e-08
1.66732e-08
6.95091e-08
3.23455e-08
-3.14155e-08
-4.01348e-09
-8.02564e-08
-2.53456e-08
-2.11559e-08
-1.02343e-08
4.06938e-08
1.13861e-07
1.70329e-08
1.43424e-07
-5.61162e-08
-3.22528e-10
-4.45012e-08
-4.33019e-08
-3.24745e-09
-4.77067e-09
1.73793e-08
-6.37286e-09
1.07934e-08
-1.80825e-08
9.39699e-09
1.05282e-08
2.55393e-09
2.91581e-09
3.26493e-09
-2.44252e-08
-6.81878e-09
3.30433e-08
2.85315e-10
2.85916e-08
1.82098e-08
-8.91686e-08
-3.11744e-08
-1.61807e-08
-1.68247e-08
9.56586e-08
4.19919e-08
2.43051e-08
2.47417e-08
-7.58995e-08
-3.75775e-08
-7.27221e-08
-4.38498e-08
-1.99127e-08
-4.2972e-08
4.36682e-08
4.61886e-08
4.09795e-08
1.40772e-07
-3.67884e-08
4.74889e-08
-8.9241e-08
-3.20168e-08
1.88438e-09
-1.61586e-08
1.47011e-09
-7.1402e-09
1.46674e-08
-2.02932e-08
1.54814e-08
1.3279e-08
1.79692e-08
-1.04628e-08
1.20807e-09
-6.19476e-09
-1.0631e-08
4.60307e-08
1.56635e-08
-3.01339e-08
-1.62039e-08
-7.90501e-08
-4.61756e-08
4.84599e-08
2.1811e-08
8.27458e-08
4.48217e-08
-4.49781e-08
-8.83019e-09
-1.11131e-07
-4.82857e-08
-4.00582e-08
-5.50923e-08
-2.30417e-08
-5.50236e-08
3.37007e-08
-1.76536e-08
5.48564e-08
9.37735e-08
7.80314e-09
9.5173e-08
-8.18696e-08
-5.23087e-09
-8.38167e-08
-1.55722e-08
2.56686e-08
-8.93312e-09
-5.6274e-09
-1.66686e-08
5.78709e-09
-4.90281e-10
1.56374e-08
-9.86516e-09
1.59267e-08
6.5121e-09
9.98209e-09
1.21326e-08
1.11223e-08
-4.81763e-08
-1.0117e-08
2.89223e-11
8.61726e-09
7.42384e-08
3.51104e-08
1.62461e-08
1.64746e-08
-1.05533e-07
-1.38976e-08
-1.09576e-07
-4.53132e-08
7.77076e-09
-2.9034e-08
-6.75673e-09
-4.52271e-08
2.28234e-08
-5.05839e-08
4.82357e-08
2.51898e-08
4.73893e-08
9.08361e-08
-2.60935e-08
4.41031e-08
-9.48424e-08
-7.42259e-09
-7.15248e-08
-5.37453e-09
1.19874e-08
-6.58733e-09
-4.75737e-08
-1.22348e-08
-1.16119e-08
-6.37604e-09
1.77839e-09
5.01541e-09
1.21628e-09
-6.69235e-09
1.82871e-11
-1.58248e-08
-5.62231e-11
2.89917e-08
2.2545e-08
3.78029e-08
2.00692e-08
-4.92872e-08
-9.23573e-09
-1.1558e-07
-3.46029e-08
-7.55112e-08
-8.94315e-09
5.88002e-08
2.35348e-08
1.23717e-08
-2.81811e-08
1.09865e-08
-4.84202e-08
3.15566e-08
-2.38288e-08
5.31556e-08
4.27801e-08
3.17314e-08
6.0798e-08
-4.3511e-08
2.09801e-08
-8.96456e-08
-2.7152e-09
-7.19587e-08
-4.92445e-09
-1.4535e-08
-8.53233e-09
-3.46921e-08
-9.12181e-09
-1.96864e-08
2.06623e-09
-4.59429e-09
-6.72807e-09
-6.43897e-09
3.15264e-09
-3.14914e-09
1.57301e-08
-7.56957e-10
-1.1852e-08
-1.14028e-08
-6.57104e-08
-1.74192e-08
-7.78216e-08
-6.21782e-09
-1.67006e-08
4.32361e-08
8.37973e-08
7.33536e-08
3.71502e-08
-1.41709e-08
3.51889e-09
-3.20422e-08
1.50949e-08
-3.56794e-08
3.72001e-08
-3.86068e-09
4.61963e-08
3.40549e-08
1.2497e-08
3.51706e-08
-4.98804e-08
1.28639e-08
-8.31564e-08
2.33346e-09
-7.24999e-08
1.14227e-09
-3.22687e-08
-8.60419e-10
-3.7841e-08
-3.13715e-09
-1.95017e-08
-4.24641e-09
-7.86471e-09
2.49076e-09
-1.1929e-09
-1.98955e-09
-2.49796e-09
-2.24587e-08
-1.45228e-08
-3.78601e-08
-3.62434e-09
-1.34061e-08
3.79107e-08
2.75792e-08
7.24157e-08
6.68504e-08
7.90167e-08
3.53436e-08
-6.75769e-09
8.51492e-10
-1.69663e-08
6.661e-09
-2.83173e-08
1.69442e-08
-2.40787e-08
2.83206e-08
3.4296e-10
2.32187e-08
2.05772e-08
-1.02529e-08
2.29554e-08
-4.72101e-08
1.51609e-08
-5.72589e-08
9.55717e-09
-4.36915e-08
7.06194e-09
-2.67307e-08
9.66635e-10
-1.58296e-08
2.8344e-10
-5.76214e-09
1.55089e-09
2.11034e-10
-1.20534e-09
2.41331e-09
-2.5848e-09
4.05375e-09
8.57608e-09
1.84371e-08
2.82876e-08
3.79052e-08
3.44904e-08
5.16001e-08
2.803e-08
4.77771e-08
1.9931e-08
-2.98375e-09
-1.03691e-08
-2.04119e-08
-2.67337e-08
-1.74693e-08
4.32377e-09
2.17333e-08
2.47324e-08
1.86597e-08
1.18258e-08
5.79898e-09
4.01665e-09
3.84567e-09
6.83522e-09
1.69859e-08
3.3258e-08
4.02871e-08
2.59859e-08
-1.15582e-09
)
;

boundaryField
{
    sides
    {
        type            calculated;
        value           uniform 0;
    }
    inlet
    {
        type            calculated;
        value           uniform 0;
    }
    outlet
    {
        type            calculated;
        value           nonuniform List<scalar> 
20
(
-1.33822e-08
2.46855e-08
8.60757e-08
1.36437e-07
1.4038e-07
9.20379e-08
2.11553e-08
-4.28207e-08
-8.20486e-08
-9.79156e-08
-9.79318e-08
-8.30438e-08
-4.6326e-08
2.08989e-08
8.97749e-08
1.40372e-07
1.34103e-07
8.4419e-08
2.29286e-08
-1.61255e-08
)
;
    }
    frontAndBack
    {
        type            empty;
        value           nonuniform List<scalar> 0();
    }
}


// ************************************************************************* //
