/*--------------------------------*- C++ -*----------------------------------*\
  =========                 |
  \\      /  F ield         | OpenFOAM: The Open Source CFD Toolbox
   \\    /   O peration     | Website:  https://openfoam.org
    \\  /    A nd           | Version:  9
     \\/     M anipulation  |
\*---------------------------------------------------------------------------*/
FoamFile
{
    format      ascii;
    class       volScalarField;
    location    "2";
    object      h;
}
// * * * * * * * * * * * * * * * * * * * * * * * * * * * * * * * * * * * * * //

dimensions      [0 1 0 0 0 0 0];

internalField   nonuniform List<scalar> 
400
(
0.0100007
0.0100023
0.0100063
0.0100127
0.0100188
0.010021
0.010018
0.0100119
0.010006
0.0100016
0.00999887
0.00999777
0.00999769
0.00999806
0.0099986
0.00999931
0.00999979
0.01
0.0100007
0.0100006
0.0100011
0.0100039
0.0100095
0.010016
0.0100189
0.0100162
0.0100105
0.0100056
0.010002
0.00999949
0.00999818
0.00999781
0.00999802
0.00999822
0.00999836
0.00999969
0.0100018
0.0100041
0.0100052
0.0100026
0.0100025
0.0100077
0.0100153
0.0100196
0.0100153
0.0100064
0.0100003
0.00999814
0.00999731
0.00999738
0.00999768
0.00999786
0.00999825
0.00999845
0.00999844
0.00999933
0.0100032
0.0100087
0.010011
0.0100054
0.0100055
0.0100138
0.0100214
0.0100184
0.0100057
0.00999582
0.00999394
0.00999403
0.00999478
0.00999632
0.00999769
0.00999778
0.00999819
0.00999953
0.00999942
0.00999872
0.0100025
0.0100097
0.0100134
0.0100066
0.0100109
0.0100211
0.0100235
0.0100101
0.00999449
0.00999114
0.00999161
0.00999276
0.00999545
0.00999673
0.00999755
0.00999805
0.00999805
0.010001
0.0100026
0.0100005
0.0100015
0.0100069
0.0100102
0.0100052
0.0100183
0.0100267
0.0100194
0.00999869
0.0099889
0.00999072
0.0099928
0.0099946
0.00999713
0.00999687
0.00999722
0.0099983
0.00999698
0.00999896
0.0100048
0.0100044
0.0100015
0.0100031
0.0100036
0.0100016
0.0100261
0.0100286
0.0100113
0.00999092
0.00998924
0.00999328
0.00999517
0.00999686
0.00999765
0.00999587
0.00999456
0.00999656
0.00999754
0.00999674
0.0100041
0.010009
0.0100048
0.0100003
0.00999721
0.00999779
0.0100324
0.0100273
0.0100039
0.00998845
0.00999248
0.009996
0.0099973
0.00999893
0.0099973
0.0099949
0.00998944
0.00999037
0.00999734
0.00999864
0.010003
0.0100104
0.0100089
0.0100001
0.0099925
0.00999503
0.0100361
0.0100249
0.00999959
0.00998902
0.00999588
0.00999854
0.00999868
0.00999943
0.00999449
0.00999002
0.00998525
0.00998997
0.0100015
0.0100032
0.0100027
0.0100092
0.0100109
0.0100014
0.00999097
0.00999369
0.0100375
0.0100233
0.00999776
0.00998985
0.00999818
0.0100016
0.0100025
0.0100075
0.0100031
0.00897777
0.00894983
0.00997783
0.0100145
0.0100172
0.010006
0.0100084
0.0100114
0.0100028
0.00999098
0.00999335
0.0100374
0.0100233
0.00999761
0.0099899
0.00999814
0.0100015
0.0100024
0.0100074
0.010003
0.00897767
0.00894973
0.00997767
0.0100144
0.010017
0.0100058
0.0100083
0.0100114
0.0100027
0.00999094
0.00999334
0.0100358
0.0100247
0.00999942
0.00998864
0.00999563
0.00999829
0.00999836
0.00999907
0.00999407
0.00998961
0.00998478
0.00998957
0.0100011
0.0100029
0.0100023
0.010009
0.0100107
0.0100015
0.00999088
0.00999368
0.010032
0.010027
0.0100036
0.00998799
0.00999182
0.00999555
0.00999687
0.00999847
0.00999672
0.00999439
0.00998908
0.00998986
0.00999669
0.00999792
0.0100023
0.0100098
0.0100084
0.00999981
0.00999232
0.00999482
0.0100256
0.0100282
0.0100109
0.00999059
0.00998841
0.00999258
0.0099947
0.00999623
0.00999694
0.00999514
0.00999377
0.00999571
0.00999666
0.00999578
0.0100034
0.0100081
0.0100047
0.00999978
0.00999666
0.00999774
0.0100176
0.010026
0.0100188
0.00999816
0.00998834
0.00998991
0.00999191
0.00999391
0.00999634
0.00999612
0.00999609
0.00999731
0.00999605
0.00999806
0.0100037
0.010004
0.0100011
0.0100024
0.0100033
0.0100015
0.0100101
0.0100203
0.0100227
0.0100094
0.00999384
0.00999009
0.00999055
0.00999184
0.00999422
0.00999544
0.00999631
0.00999678
0.00999687
0.00999997
0.0100016
0.00999957
0.0100006
0.0100064
0.0100099
0.0100051
0.0100047
0.0100128
0.0100205
0.0100174
0.0100047
0.00999495
0.00999264
0.00999225
0.00999349
0.0099951
0.00999656
0.0099966
0.00999692
0.00999829
0.00999823
0.00999794
0.0100015
0.0100091
0.010013
0.0100064
0.0100016
0.0100067
0.0100142
0.0100184
0.0100141
0.0100052
0.00999914
0.00999709
0.00999612
0.00999592
0.00999644
0.0099965
0.00999692
0.00999716
0.00999708
0.00999825
0.0100024
0.0100081
0.0100106
0.0100052
0.0100001
0.0100029
0.0100083
0.0100146
0.0100175
0.0100148
0.0100092
0.0100042
0.0100008
0.00999817
0.00999665
0.00999631
0.00999655
0.00999685
0.00999729
0.00999853
0.010001
0.0100034
0.0100048
0.0100025
0.00999955
0.0100012
0.010005
0.0100112
0.0100173
0.0100194
0.0100163
0.0100102
0.0100042
0.00999984
0.0099971
0.00999601
0.00999596
0.00999642
0.00999704
0.00999795
0.00999856
0.00999904
0.01
0.0100003
)
;

boundaryField
{
    sides
    {
        type            zeroGradient;
    }
    inlet
    {
        type            zeroGradient;
    }
    outlet
    {
        type            fixedValue;
        value           uniform 0.01;
    }
    frontAndBack
    {
        type            empty;
    }
}


// ************************************************************************* //
