/*--------------------------------*- C++ -*----------------------------------*\
  =========                 |
  \\      /  F ield         | OpenFOAM: The Open Source CFD Toolbox
   \\    /   O peration     | Website:  https://openfoam.org
    \\  /    A nd           | Version:  9
     \\/     M anipulation  |
\*---------------------------------------------------------------------------*/
FoamFile
{
    format      ascii;
    class       volScalarField;
    location    "2";
    object      h_0;
}
// * * * * * * * * * * * * * * * * * * * * * * * * * * * * * * * * * * * * * //

dimensions      [0 1 0 0 0 0 0];

internalField   nonuniform List<scalar> 
400
(
0.0100005
0.0100012
0.0100035
0.0100081
0.010014
0.0100183
0.0100185
0.0100148
0.0100096
0.0100048
0.0100014
0.00999943
0.00999844
0.00999806
0.00999794
0.00999737
0.00999611
0.00999499
0.0099957
0.00999833
0.0100005
0.010002
0.0100058
0.0100117
0.0100166
0.0100172
0.0100133
0.0100082
0.0100041
0.0100011
0.00999931
0.00999859
0.0099984
0.0099984
0.00999863
0.00999939
0.00999973
0.00999965
0.00999999
0.0100002
0.010001
0.0100042
0.0100108
0.0100174
0.0100183
0.0100117
0.0100038
0.00999931
0.0099976
0.00999723
0.00999723
0.00999777
0.0099984
0.00999846
0.00999881
0.0100006
0.0100039
0.0100067
0.0100073
0.0100034
0.0100023
0.0100086
0.0100178
0.0100216
0.0100137
0.0100011
0.00999464
0.00999381
0.00999393
0.00999502
0.0099964
0.00999702
0.00999817
0.00999865
0.00999821
0.00999941
0.0100048
0.0100117
0.0100141
0.0100067
0.0100053
0.0100152
0.010024
0.0100192
0.0100024
0.00999185
0.00999099
0.00999137
0.00999278
0.00999493
0.00999641
0.00999656
0.00999807
0.0100009
0.01
0.00999827
0.0100031
0.0100119
0.0100166
0.0100082
0.0100104
0.0100224
0.0100257
0.0100096
0.0099916
0.00998927
0.00999132
0.00999269
0.00999505
0.00999569
0.00999679
0.00999681
0.00999695
0.0100021
0.0100037
0.00999931
0.0100001
0.0100083
0.0100136
0.0100071
0.0100171
0.0100278
0.0100216
0.00999844
0.00998749
0.00999092
0.00999361
0.00999497
0.00999707
0.00999483
0.00999506
0.0099965
0.00999525
0.00999977
0.0100067
0.0100036
0.00999934
0.010004
0.0100082
0.0100044
0.0100236
0.01003
0.0100147
0.00999135
0.00998863
0.0099945
0.00999613
0.00999717
0.00999812
0.00999396
0.00998965
0.00999191
0.00999467
0.00999821
0.0100068
0.0100079
0.0100019
0.0100012
0.0100027
0.0100014
0.0100285
0.0100299
0.0100091
0.00998872
0.00999162
0.00999804
0.00999812
0.00999826
0.00999538
0.0099896
0.00998504
0.00999143
0.0100004
0.0100014
0.0100057
0.0100092
0.0100052
0.010001
0.00999925
0.00999934
0.0100309
0.0100291
0.0100063
0.00998809
0.00999371
0.0100018
0.0100028
0.0100065
0.0100045
0.00897601
0.0089502
0.0099795
0.0100132
0.010014
0.0100084
0.0100092
0.0100067
0.0100019
0.00999817
0.00999844
0.0100309
0.010029
0.0100063
0.00998796
0.00999381
0.0100017
0.0100026
0.0100064
0.0100044
0.00897592
0.00895011
0.00997937
0.0100131
0.0100139
0.0100083
0.0100091
0.0100065
0.0100018
0.00999812
0.00999844
0.0100283
0.0100297
0.010009
0.00998846
0.00999122
0.00999781
0.0099978
0.00999796
0.00999504
0.00998918
0.00998468
0.00999105
0.0100001
0.0100011
0.0100054
0.0100088
0.010005
0.010001
0.0099992
0.00999927
0.0100232
0.0100298
0.0100144
0.00999116
0.00998803
0.00999404
0.00999574
0.00999674
0.00999755
0.00999345
0.00998925
0.00999142
0.00999409
0.00999747
0.0100062
0.0100073
0.0100017
0.0100008
0.0100023
0.0100013
0.0100165
0.0100274
0.0100212
0.00999808
0.00998706
0.00999009
0.00999302
0.00999437
0.00999634
0.00999414
0.00999421
0.0099957
0.00999446
0.00999899
0.010006
0.0100032
0.00999905
0.0100034
0.0100079
0.0100043
0.0100098
0.0100217
0.0100251
0.0100091
0.00999119
0.00998858
0.00999041
0.00999194
0.00999442
0.00999499
0.0099959
0.00999594
0.00999604
0.0100013
0.0100026
0.00999866
0.00999927
0.0100078
0.0100133
0.010007
0.0100047
0.0100143
0.0100233
0.0100184
0.0100017
0.00999117
0.00999004
0.00999042
0.0099917
0.0099939
0.00999528
0.00999555
0.00999699
0.00999976
0.00999914
0.00999732
0.010002
0.0100114
0.0100163
0.0100082
0.0100016
0.0100078
0.0100168
0.0100207
0.0100127
0.0100002
0.00999376
0.00999253
0.00999266
0.00999377
0.00999539
0.00999588
0.00999703
0.00999752
0.0099971
0.00999857
0.0100042
0.0100112
0.0100138
0.0100066
0.0100001
0.0100034
0.0100097
0.0100163
0.0100171
0.0100106
0.0100026
0.00999823
0.00999658
0.00999583
0.00999586
0.00999642
0.00999713
0.00999728
0.00999766
0.00999954
0.0100032
0.0100062
0.0100069
0.0100033
0.00999958
0.0100011
0.0100047
0.0100104
0.0100154
0.0100158
0.010012
0.0100068
0.0100028
0.00999997
0.00999795
0.00999714
0.00999697
0.00999704
0.00999748
0.00999826
0.00999885
0.00999897
0.00999957
0.01
0.00999935
0.0100001
0.0100024
0.0100067
0.0100125
0.0100167
0.0100169
0.0100131
0.0100078
0.0100031
0.00999971
0.0099977
0.00999669
0.0099964
0.00999636
0.00999598
0.00999488
0.00999401
0.00999505
0.00999806
)
;

boundaryField
{
    sides
    {
        type            zeroGradient;
    }
    inlet
    {
        type            zeroGradient;
    }
    outlet
    {
        type            fixedValue;
        value           uniform 0.01;
    }
    frontAndBack
    {
        type            empty;
    }
}


// ************************************************************************* //
