/*--------------------------------*- C++ -*----------------------------------*\
  =========                 |
  \\      /  F ield         | OpenFOAM: The Open Source CFD Toolbox
   \\    /   O peration     | Website:  https://openfoam.org
    \\  /    A nd           | Version:  9
     \\/     M anipulation  |
\*---------------------------------------------------------------------------*/
FoamFile
{
    format      ascii;
    class       volVectorField;
    location    "2";
    object      hU;
}
// * * * * * * * * * * * * * * * * * * * * * * * * * * * * * * * * * * * * * //

dimensions      [0 2 -1 0 0 0 0];

internalField   nonuniform List<vector> 
400
(
(0.000999918 -2.57166e-08 0)
(0.000999585 -1.79119e-07 0)
(0.000999047 -5.36362e-07 0)
(0.00099849 -1.00465e-06 0)
(0.000998324 -1.26401e-06 0)
(0.000998837 -1.02467e-06 0)
(0.000999906 -4.13336e-07 0)
(0.00100111 1.631e-07 0)
(0.00100209 4.82693e-07 0)
(0.00100271 5.95769e-07 0)
(0.00100298 5.56555e-07 0)
(0.00100301 4.1625e-07 0)
(0.00100286 2.47654e-07 0)
(0.00100259 8.11337e-08 0)
(0.00100231 -1.02038e-07 0)
(0.00100204 -3.74351e-07 0)
(0.00100144 -5.9477e-07 0)
(0.00100021 -6.91697e-07 0)
(0.000998419 -5.50274e-07 0)
(0.000996668 -2.84734e-07 0)
(0.000999853 -7.98651e-08 0)
(0.000999299 -5.40853e-07 0)
(0.000998608 -1.55329e-06 0)
(0.000998137 -2.70202e-06 0)
(0.000998336 -3.03459e-06 0)
(0.000999217 -2.06354e-06 0)
(0.00100036 -4.63566e-07 0)
(0.00100137 8.25094e-07 0)
(0.00100213 1.5225e-06 0)
(0.00100257 1.69561e-06 0)
(0.00100273 1.57363e-06 0)
(0.0010027 1.27974e-06 0)
(0.00100255 9.28472e-07 0)
(0.00100226 5.89063e-07 0)
(0.00100184 1.26133e-07 0)
(0.00100158 -5.21462e-07 0)
(0.00100134 -1.23054e-06 0)
(0.00100062 -1.68534e-06 0)
(0.000999331 -1.41904e-06 0)
(0.00099761 -5.60441e-07 0)
(0.000999715 -2.72937e-07 0)
(0.000998671 -1.2431e-06 0)
(0.00099781 -2.87983e-06 0)
(0.000997716 -4.08977e-06 0)
(0.000998628 -3.60424e-06 0)
(0.000999966 -1.75674e-06 0)
(0.00100104 6.98392e-09 0)
(0.00100172 1.11484e-06 0)
(0.00100209 1.70159e-06 0)
(0.00100234 1.80239e-06 0)
(0.00100244 1.67187e-06 0)
(0.00100237 1.50784e-06 0)
(0.00100222 1.24363e-06 0)
(0.00100183 9.50089e-07 0)
(0.00100119 5.43238e-07 0)
(0.00100067 -1.75971e-07 0)
(0.00100064 -1.26616e-06 0)
(0.0010008 -2.32528e-06 0)
(0.00100065 -2.31458e-06 0)
(0.000999496 -9.90923e-07 0)
(0.000999533 -6.61631e-07 0)
(0.000997783 -2.19024e-06 0)
(0.000996993 -3.9804e-06 0)
(0.000997695 -4.26236e-06 0)
(0.000999375 -2.50957e-06 0)
(0.00100082 -5.85013e-07 0)
(0.00100158 4.72724e-07 0)
(0.00100191 1.01103e-06 0)
(0.00100209 1.24781e-06 0)
(0.00100222 1.35108e-06 0)
(0.00100238 1.41748e-06 0)
(0.00100227 1.59766e-06 0)
(0.00100201 1.5977e-06 0)
(0.00100169 1.23667e-06 0)
(0.00100082 9.32661e-07 0)
(0.000999665 4.67899e-07 0)
(0.000999279 -6.3538e-07 0)
(0.001 -2.04404e-06 0)
(0.00100145 -2.46414e-06 0)
(0.00100163 -1.13056e-06 0)
(0.000999415 -1.25274e-06 0)
(0.000996897 -3.1653e-06 0)
(0.000996597 -4.32272e-06 0)
(0.000998296 -3.11427e-06 0)
(0.00100027 -8.7721e-07 0)
(0.00100144 9.60726e-08 0)
(0.00100177 1.97248e-07 0)
(0.00100195 1.09514e-07 0)
(0.00100224 -1.6913e-08 0)
(0.00100244 1.10407e-07 0)
(0.00100267 4.69327e-07 0)
(0.00100257 1.19084e-06 0)
(0.00100184 1.82742e-06 0)
(0.00100141 1.49922e-06 0)
(0.00100084 1.05454e-06 0)
(0.00099922 9.99823e-07 0)
(0.000998001 4.43178e-07 0)
(0.000998662 -9.17368e-07 0)
(0.0010013 -1.6486e-06 0)
(0.0010032 -8.52022e-07 0)
(0.000999525 -1.89585e-06 0)
(0.000996415 -3.69797e-06 0)
(0.000996897 -3.62207e-06 0)
(0.000999246 -1.44178e-06 0)
(0.00100097 -6.87219e-09 0)
(0.00100139 -1.80783e-07 0)
(0.00100147 -7.58997e-07 0)
(0.00100175 -1.25783e-06 0)
(0.00100232 -1.53396e-06 0)
(0.00100276 -8.73843e-07 0)
(0.00100342 2.90685e-07 0)
(0.00100369 1.81019e-06 0)
(0.00100221 2.92913e-06 0)
(0.00100084 2.19703e-06 0)
(0.00100086 6.74868e-07 0)
(0.000999625 4.80467e-07 0)
(0.000997327 8.37653e-07 0)
(0.000997157 9.65223e-08 0)
(0.00100022 -5.22353e-07 0)
(0.0010036 -3.59947e-07 0)
(0.000999982 -2.28014e-06 0)
(0.000996652 -3.51365e-06 0)
(0.000997724 -2.36573e-06 0)
(0.00100009 -3.48977e-07 0)
(0.00100106 -1.84998e-07 0)
(0.0010009 -1.16101e-06 0)
(0.00100104 -2.04842e-06 0)
(0.00100158 -2.95442e-06 0)
(0.00100283 -3.41695e-06 0)
(0.00100418 -3.12626e-06 0)
(0.00100506 -7.49215e-07 0)
(0.00100506 2.6822e-06 0)
(0.00100218 5.22801e-06 0)
(0.000998701 4.65763e-06 0)
(0.00099924 1.95565e-06 0)
(0.00100023 6.61833e-07 0)
(0.000998021 1.10076e-06 0)
(0.00099657 1.03208e-06 0)
(0.000999166 5.67815e-07 0)
(0.00100326 1.55919e-07 0)
(0.00100066 -2.1499e-06 0)
(0.000997435 -2.73191e-06 0)
(0.000998654 -1.28698e-06 0)
(0.00100049 -1.23615e-07 0)
(0.00100055 -8.26824e-07 0)
(0.00100005 -2.152e-06 0)
(0.00100012 -3.41017e-06 0)
(0.00100083 -4.38353e-06 0)
(0.00100212 -4.79455e-06 0)
(0.0010053 -2.77938e-06 0)
(0.00100853 9.46318e-07 0)
(0.00100894 4.66876e-06 0)
(0.00100428 4.80118e-06 0)
(0.00099753 2.83297e-06 0)
(0.000996625 8.5765e-07 0)
(0.000999348 6.59351e-08 0)
(0.000998506 5.07777e-07 0)
(0.000996294 9.62966e-07 0)
(0.000997919 9.07033e-07 0)
(0.00100227 3.59216e-07 0)
(0.0010013 -1.51658e-06 0)
(0.000998319 -1.68151e-06 0)
(0.000999334 -6.39012e-07 0)
(0.00100044 -2.28398e-07 0)
(0.000999698 -1.07864e-06 0)
(0.000998895 -2.60839e-06 0)
(0.000999074 -5.03077e-06 0)
(0.0010006 -7.92869e-06 0)
(0.00100397 -1.42389e-05 0)
(0.00100932 -1.50602e-05 0)
(0.0010112 5.42899e-06 0)
(0.00100791 1.91987e-05 0)
(0.0010005 1.39354e-05 0)
(0.000995274 4.45539e-06 0)
(0.000996269 7.58888e-07 0)
(0.000999849 6.12032e-07 0)
(0.000999554 7.01872e-07 0)
(0.000997079 6.20055e-07 0)
(0.000997727 6.24259e-07 0)
(0.00100163 2.37368e-07 0)
(0.00100167 -5.53283e-07 0)
(0.000998898 -6.03154e-07 0)
(0.000999619 -2.82903e-07 0)
(0.00100045 -2.33641e-07 0)
(0.000998156 -6.09352e-07 0)
(0.000998327 -1.48791e-06 0)
(0.000991716 -3.0769e-06 0)
(0.000998308 -5.66871e-06 0)
(0.000989 -1.23721e-05 0)
(0.000914019 -1.29742e-05 0)
(0.000955375 1.05186e-06 0)
(0.00100993 1.42187e-05 0)
(0.000985495 1.13577e-05 0)
(0.000980237 4.38664e-06 0)
(0.000990598 1.49553e-06 0)
(0.00099914 1.21572e-06 0)
(0.000999408 9.11557e-07 0)
(0.000996863 4.08975e-07 0)
(0.000997393 2.09355e-07 0)
(0.00100123 -2.68075e-08 0)
(0.00100167 5.34956e-07 0)
(0.000998902 4.70503e-07 0)
(0.000999612 -4.45931e-09 0)
(0.00100045 -1.33834e-07 0)
(0.000998141 1.99473e-07 0)
(0.000998329 1.07874e-06 0)
(0.000991709 2.69159e-06 0)
(0.000998295 5.28582e-06 0)
(0.000989001 1.20135e-05 0)
(0.00091401 1.26548e-05 0)
(0.000955338 -1.39624e-06 0)
(0.00100994 -1.45926e-05 0)
(0.000985523 -1.17489e-05 0)
(0.000980258 -4.79127e-06 0)
(0.000990588 -1.89108e-06 0)
(0.000999096 -1.58169e-06 0)
(0.000999382 -1.28902e-06 0)
(0.000996854 -8.3378e-07 0)
(0.00099738 -6.61008e-07 0)
(0.0010012 -4.87715e-07 0)
(0.00100129 1.52327e-06 0)
(0.000998307 1.57097e-06 0)
(0.00099934 3.95656e-07 0)
(0.00100046 -1.30132e-07 0)
(0.00099972 7.25341e-07 0)
(0.000998903 2.23179e-06 0)
(0.000999074 4.64807e-06 0)
(0.00100059 7.54478e-06 0)
(0.00100394 1.38574e-05 0)
(0.0010093 1.46718e-05 0)
(0.00101119 -5.82568e-06 0)
(0.00100784 -1.95871e-05 0)
(0.00100038 -1.43259e-05 0)
(0.000995177 -4.82627e-06 0)
(0.000996246 -1.14848e-06 0)
(0.000999868 -1.03312e-06 0)
(0.000999498 -1.13201e-06 0)
(0.000997007 -1.0119e-06 0)
(0.000997654 -1.06285e-06 0)
(0.00100155 -7.58807e-07 0)
(0.00100063 2.14549e-06 0)
(0.00099742 2.62681e-06 0)
(0.000998647 1.05318e-06 0)
(0.0010005 -2.29384e-07 0)
(0.00100053 4.09798e-07 0)
(0.00100002 1.7535e-06 0)
(0.00100008 3.01414e-06 0)
(0.00100078 3.99966e-06 0)
(0.00100207 4.41002e-06 0)
(0.00100522 2.42434e-06 0)
(0.00100847 -1.29343e-06 0)
(0.00100892 -5.04124e-06 0)
(0.00100427 -5.14639e-06 0)
(0.00099749 -3.14804e-06 0)
(0.000996522 -1.16163e-06 0)
(0.00099921 -4.4447e-07 0)
(0.000998458 -9.16118e-07 0)
(0.00099626 -1.39322e-06 0)
(0.000997771 -1.40691e-06 0)
(0.00100209 -9.05116e-07 0)
(0.00099996 2.25732e-06 0)
(0.000996656 3.42131e-06 0)
(0.000997717 2.15704e-06 0)
(0.00100009 5.6787e-08 0)
(0.00100105 -1.94407e-07 0)
(0.00100091 7.94663e-07 0)
(0.00100104 1.70156e-06 0)
(0.00100156 2.62084e-06 0)
(0.0010028 3.09182e-06 0)
(0.00100415 2.81066e-06 0)
(0.001005 4.96653e-07 0)
(0.00100495 -2.94756e-06 0)
(0.00100207 -5.50175e-06 0)
(0.000998585 -4.97362e-06 0)
(0.000999127 -2.26686e-06 0)
(0.00100008 -9.66199e-07 0)
(0.000997928 -1.38454e-06 0)
(0.000996344 -1.45481e-06 0)
(0.000998943 -1.02658e-06 0)
(0.00100311 -6.78281e-07 0)
(0.000999516 1.87621e-06 0)
(0.000996437 3.6137e-06 0)
(0.000996915 3.44583e-06 0)
(0.000999237 1.19781e-06 0)
(0.00100096 -2.84559e-07 0)
(0.00100137 -1.48948e-07 0)
(0.00100142 4.3269e-07 0)
(0.0010017 9.20242e-07 0)
(0.00100226 1.24504e-06 0)
(0.00100273 5.7212e-07 0)
(0.00100333 -6.35186e-07 0)
(0.0010036 -2.13776e-06 0)
(0.00100212 -3.22745e-06 0)
(0.00100074 -2.47268e-06 0)
(0.00100072 -9.54908e-07 0)
(0.000999537 -7.44525e-07 0)
(0.000997168 -1.12538e-06 0)
(0.000996887 -4.3872e-07 0)
(0.000999976 1.80124e-07 0)
(0.00100336 -1.14481e-07 0)
(0.000999406 1.22849e-06 0)
(0.000996927 3.06497e-06 0)
(0.000996632 4.14924e-06 0)
(0.000998304 2.87666e-06 0)
(0.00100027 6.37504e-07 0)
(0.00100141 -3.58197e-07 0)
(0.00100171 -4.47638e-07 0)
(0.00100194 -2.91332e-07 0)
(0.00100219 -1.60468e-07 0)
(0.0010023 -2.85335e-07 0)
(0.00100254 -6.78829e-07 0)
(0.00100247 -1.39562e-06 0)
(0.00100175 -2.04481e-06 0)
(0.00100131 -1.71104e-06 0)
(0.0010007 -1.29273e-06 0)
(0.000999059 -1.2603e-06 0)
(0.00099775 -7.84217e-07 0)
(0.000998366 5.8282e-07 0)
(0.00100099 1.29777e-06 0)
(0.00100291 4.18201e-07 0)
(0.000999529 6.44611e-07 0)
(0.000997812 2.11355e-06 0)
(0.000997053 3.83237e-06 0)
(0.000997726 4.06222e-06 0)
(0.000999376 2.30403e-06 0)
(0.00100081 3.93478e-07 0)
(0.00100157 -6.57682e-07 0)
(0.00100183 -1.18366e-06 0)
(0.00100199 -1.47245e-06 0)
(0.00100212 -1.52159e-06 0)
(0.00100227 -1.54406e-06 0)
(0.00100216 -1.71627e-06 0)
(0.00100188 -1.74465e-06 0)
(0.00100153 -1.41178e-06 0)
(0.00100063 -1.11258e-06 0)
(0.00099944 -6.70237e-07 0)
(0.000999 3.72497e-07 0)
(0.00099973 1.77063e-06 0)
(0.00100115 2.17773e-06 0)
(0.00100124 7.37686e-07 0)
(0.000999704 2.67922e-07 0)
(0.000998703 1.18184e-06 0)
(0.00099787 2.73304e-06 0)
(0.00099777 3.89826e-06 0)
(0.000998644 3.39094e-06 0)
(0.000999958 1.56758e-06 0)
(0.001001 -1.87213e-07 0)
(0.00100165 -1.33461e-06 0)
(0.00100205 -1.90576e-06 0)
(0.00100228 -2.0241e-06 0)
(0.00100236 -1.85783e-06 0)
(0.00100223 -1.66638e-06 0)
(0.00100206 -1.38532e-06 0)
(0.00100166 -1.09573e-06 0)
(0.00100099 -7.16419e-07 0)
(0.00100041 1.67762e-08 0)
(0.00100033 1.09981e-06 0)
(0.00100045 2.10441e-06 0)
(0.00100026 2.06505e-06 0)
(0.000999003 5.99244e-07 0)
(0.000999832 8.83582e-08 0)
(0.000999303 5.54986e-07 0)
(0.000998654 1.53421e-06 0)
(0.000998187 2.66585e-06 0)
(0.000998357 2.99486e-06 0)
(0.000999208 2.02833e-06 0)
(0.00100032 4.46895e-07 0)
(0.00100131 -8.09293e-07 0)
(0.00100203 -1.47886e-06 0)
(0.00100247 -1.68055e-06 0)
(0.00100264 -1.56457e-06 0)
(0.0010026 -1.26296e-06 0)
(0.00100241 -8.9438e-07 0)
(0.00100206 -5.53423e-07 0)
(0.00100164 -1.09264e-07 0)
(0.00100132 5.11319e-07 0)
(0.00100101 1.22957e-06 0)
(0.00100023 1.64245e-06 0)
(0.000998885 1.36456e-06 0)
(0.00099704 3.3944e-07 0)
(0.0009999 5.13867e-09 0)
(0.000999598 1.21294e-07 0)
(0.000999107 4.10639e-07 0)
(0.000998553 8.29189e-07 0)
(0.000998351 1.06935e-06 0)
(0.000998823 8.22916e-07 0)
(0.00099986 2.20754e-07 0)
(0.00100103 -3.42003e-07 0)
(0.00100199 -6.45691e-07 0)
(0.00100259 -7.31807e-07 0)
(0.00100285 -6.95055e-07 0)
(0.00100286 -5.68106e-07 0)
(0.00100267 -4.08731e-07 0)
(0.00100237 -2.50918e-07 0)
(0.00100205 -5.06061e-08 0)
(0.00100172 1.84904e-07 0)
(0.00100107 4.11028e-07 0)
(0.000999734 4.8517e-07 0)
(0.000997905 3.42665e-07 0)
(0.000995884 -2.72074e-08 0)
)
;

boundaryField
{
    sides
    {
        type            slip;
    }
    inlet
    {
        type            fixedValue;
        value           uniform (0.001 0 0);
    }
    outlet
    {
        type            zeroGradient;
    }
    frontAndBack
    {
        type            empty;
    }
}


// ************************************************************************* //
