/*--------------------------------*- C++ -*----------------------------------*\
  =========                 |
  \\      /  F ield         | OpenFOAM: The Open Source CFD Toolbox
   \\    /   O peration     | Website:  https://openfoam.org
    \\  /    A nd           | Version:  9
     \\/     M anipulation  |
\*---------------------------------------------------------------------------*/
FoamFile
{
    format      ascii;
    class       volVectorField;
    location    "2";
    object      hU_0;
}
// * * * * * * * * * * * * * * * * * * * * * * * * * * * * * * * * * * * * * //

dimensions      [0 2 -1 0 0 0 0];

internalField   nonuniform List<vector> 
400
(
(0.000999965 -5.61594e-09 0)
(0.000999793 -8.70058e-08 0)
(0.000999438 -3.25311e-07 0)
(0.00099897 -7.35196e-07 0)
(0.00099866 -1.14797e-06 0)
(0.000998839 -1.25229e-06 0)
(0.0009996 -9.13648e-07 0)
(0.00100068 -3.60338e-07 0)
(0.00100172 9.51363e-08 0)
(0.00100247 3.51059e-07 0)
(0.00100288 4.2782e-07 0)
(0.00100299 3.68136e-07 0)
(0.00100284 2.46125e-07 0)
(0.00100255 8.46133e-08 0)
(0.00100221 -1.08686e-07 0)
(0.00100171 -2.83725e-07 0)
(0.0010008 -3.21433e-07 0)
(0.000999428 -2.37904e-07 0)
(0.000997752 -7.42221e-08 0)
(0.000996484 -6.71307e-08 0)
(0.000999925 6.1404e-09 0)
(0.000999615 -2.26487e-07 0)
(0.000999085 -9.41263e-07 0)
(0.000998546 -2.08184e-06 0)
(0.000998427 -3.01069e-06 0)
(0.000998973 -2.90783e-06 0)
(0.000999984 -1.76329e-06 0)
(0.00100104 -3.68451e-07 0)
(0.00100189 6.52086e-07 0)
(0.00100243 1.17321e-06 0)
(0.00100268 1.308e-06 0)
(0.00100272 1.16744e-06 0)
(0.00100256 9.04245e-07 0)
(0.00100223 5.61217e-07 0)
(0.00100191 6.49466e-08 0)
(0.0010017 -4.69216e-07 0)
(0.00100122 -7.46172e-07 0)
(0.0010001 -6.62673e-07 0)
(0.000998451 -2.37593e-07 0)
(0.00099683 -2.67979e-09 0)
(0.000999819 -5.53138e-08 0)
(0.000999156 -6.33298e-07 0)
(0.000998339 -1.99687e-06 0)
(0.000997857 -3.64517e-06 0)
(0.000998271 -4.27142e-06 0)
(0.00099944 -3.20532e-06 0)
(0.00100068 -1.38738e-06 0)
(0.00100156 6.63867e-08 0)
(0.00100207 9.68296e-07 0)
(0.00100236 1.39063e-06 0)
(0.00100245 1.50933e-06 0)
(0.00100241 1.41051e-06 0)
(0.00100223 1.20491e-06 0)
(0.00100175 9.74201e-07 0)
(0.00100126 4.7039e-07 0)
(0.00100121 -3.85036e-07 0)
(0.00100141 -1.1562e-06 0)
(0.00100103 -1.52345e-06 0)
(0.000999775 -1.0912e-06 0)
(0.000997938 -3.46982e-07 0)
(0.00099964 -2.25504e-07 0)
(0.000998387 -1.28754e-06 0)
(0.000997329 -3.20923e-06 0)
(0.000997298 -4.62611e-06 0)
(0.000998585 -3.97646e-06 0)
(0.00100026 -1.93865e-06 0)
(0.0010014 -3.55808e-07 0)
(0.00100196 4.80376e-07 0)
(0.00100219 9.95281e-07 0)
(0.00100236 1.25212e-06 0)
(0.00100241 1.4142e-06 0)
(0.00100225 1.58479e-06 0)
(0.00100209 1.5613e-06 0)
(0.00100152 1.43642e-06 0)
(0.00100051 1.12316e-06 0)
(0.00100006 2.54027e-07 0)
(0.00100061 -9.97477e-07 0)
(0.00100126 -2.03656e-06 0)
(0.00100121 -1.95425e-06 0)
(0.000999768 -7.59569e-07 0)
(0.000999413 -5.62054e-07 0)
(0.000997353 -2.17474e-06 0)
(0.000996382 -4.16989e-06 0)
(0.000997302 -4.41052e-06 0)
(0.000999405 -2.37425e-06 0)
(0.0010011 -5.26355e-07 0)
(0.00100183 1.9267e-08 0)
(0.00100211 9.39339e-08 0)
(0.00100235 1.75645e-07 0)
(0.00100255 2.27599e-07 0)
(0.0010027 5.86749e-07 0)
(0.00100244 1.35777e-06 0)
(0.00100205 1.75781e-06 0)
(0.00100156 1.58482e-06 0)
(0.00100021 1.5558e-06 0)
(0.000998853 1.20455e-06 0)
(0.000999062 -4.32124e-08 0)
(0.00100045 -1.62349e-06 0)
(0.00100203 -2.14248e-06 0)
(0.00100184 -9.6349e-07 0)
(0.000999227 -1.04113e-06 0)
(0.000996333 -2.9486e-06 0)
(0.000995929 -4.255e-06 0)
(0.000997949 -3.00527e-06 0)
(0.00100032 -7.33636e-07 0)
(0.0010015 -1.42086e-07 0)
(0.00100168 -5.42665e-07 0)
(0.00100199 -9.37099e-07 0)
(0.00100244 -1.18356e-06 0)
(0.00100283 -7.34614e-07 0)
(0.00100357 3.62483e-07 0)
(0.00100342 2.01401e-06 0)
(0.0010022 2.80965e-06 0)
(0.00100165 1.71552e-06 0)
(0.00100069 9.45631e-07 0)
(0.000998454 1.19406e-06 0)
(0.000997353 7.48304e-07 0)
(0.000998686 -8.04519e-07 0)
(0.00100169 -1.60779e-06 0)
(0.0010033 -8.46064e-07 0)
(0.000999261 -1.47233e-06 0)
(0.000995725 -3.20476e-06 0)
(0.000996126 -3.41101e-06 0)
(0.000998824 -1.4085e-06 0)
(0.00100084 -1.35868e-07 0)
(0.0010012 -8.24165e-07 0)
(0.00100128 -1.75963e-06 0)
(0.00100183 -2.65535e-06 0)
(0.00100298 -3.28382e-06 0)
(0.00100408 -3.05288e-06 0)
(0.00100531 -8.75805e-07 0)
(0.00100489 2.70006e-06 0)
(0.00100146 5.35868e-06 0)
(0.000999538 4.10511e-06 0)
(0.00100035 1.63482e-06 0)
(0.000999199 1.34582e-06 0)
(0.000996746 1.57864e-06 0)
(0.000997187 4.17159e-07 0)
(0.00100088 -5.90284e-07 0)
(0.001004 -4.39712e-07 0)
(0.000999536 -1.58484e-06 0)
(0.000995671 -2.78644e-06 0)
(0.000996697 -2.19929e-06 0)
(0.000999489 -5.25287e-07 0)
(0.00100065 -4.54814e-07 0)
(0.00100039 -1.81515e-06 0)
(0.00100032 -3.23924e-06 0)
(0.00100093 -4.23181e-06 0)
(0.0010023 -4.88204e-06 0)
(0.00100513 -2.70658e-06 0)
(0.00100869 7.7847e-07 0)
(0.00100923 4.57794e-06 0)
(0.00100344 5.07107e-06 0)
(0.000997505 2.80426e-06 0)
(0.000998189 4.74634e-07 0)
(0.000999266 3.7699e-07 0)
(0.000996673 1.20021e-06 0)
(0.000995729 8.66067e-07 0)
(0.000999438 1.01213e-07 0)
(0.00100378 -1.10155e-07 0)
(0.000999929 -1.23828e-06 0)
(0.000995962 -1.85343e-06 0)
(0.00099723 -1.1639e-06 0)
(0.000999689 -2.83538e-07 0)
(0.00099998 -7.63371e-07 0)
(0.000999162 -2.37529e-06 0)
(0.000999229 -4.99014e-06 0)
(0.00100066 -7.93497e-06 0)
(0.00100417 -1.44505e-05 0)
(0.00100922 -1.49434e-05 0)
(0.0010112 5.37361e-06 0)
(0.00100835 1.90244e-05 0)
(0.00100002 1.40723e-05 0)
(0.00099498 4.70927e-06 0)
(0.000997741 6.36663e-07 0)
(0.00100046 6.48621e-07 0)
(0.00099787 1.0863e-06 0)
(0.000995747 7.61228e-07 0)
(0.000998747 2.96093e-07 0)
(0.00100343 -9.37228e-09 0)
(0.00100021 -4.84241e-07 0)
(0.000996247 -6.91423e-07 0)
(0.000997497 -4.52354e-07 0)
(0.000999787 -2.24338e-07 0)
(0.000998585 -4.96128e-07 0)
(0.00099838 -1.40128e-06 0)
(0.000991971 -3.0838e-06 0)
(0.000998384 -5.74778e-06 0)
(0.00098868 -1.24815e-05 0)
(0.000914466 -1.29416e-05 0)
(0.000956039 9.85161e-07 0)
(0.00100963 1.41269e-05 0)
(0.000984499 1.15169e-05 0)
(0.000980001 4.60602e-06 0)
(0.000992414 1.47775e-06 0)
(0.0010002 1.15651e-06 0)
(0.000997924 9.40648e-07 0)
(0.000995305 4.44816e-07 0)
(0.000998143 1.24785e-07 0)
(0.00100308 -9.50891e-08 0)
(0.00100021 4.53148e-07 0)
(0.000996238 5.37726e-07 0)
(0.000997505 1.46871e-07 0)
(0.000999775 -1.60671e-07 0)
(0.00099858 8.36992e-08 0)
(0.000998372 9.90951e-07 0)
(0.000991963 2.68595e-06 0)
(0.000998377 5.35586e-06 0)
(0.000988682 1.21066e-05 0)
(0.000914454 1.26018e-05 0)
(0.000956002 -1.34814e-06 0)
(0.00100964 -1.45235e-05 0)
(0.000984527 -1.19309e-05 0)
(0.000980023 -5.02735e-06 0)
(0.000992406 -1.89083e-06 0)
(0.00100016 -1.5341e-06 0)
(0.00099789 -1.32148e-06 0)
(0.000995299 -8.55135e-07 0)
(0.000998134 -5.67001e-07 0)
(0.00100305 -4.01104e-07 0)
(0.00099992 1.23449e-06 0)
(0.000995958 1.73047e-06 0)
(0.000997229 9.05587e-07 0)
(0.000999703 -8.77273e-08 0)
(0.000999993 3.74008e-07 0)
(0.000999169 1.99026e-06 0)
(0.000999218 4.60794e-06 0)
(0.00100065 7.54336e-06 0)
(0.00100413 1.40501e-05 0)
(0.0010092 1.45429e-05 0)
(0.0010112 -5.76931e-06 0)
(0.00100828 -1.94188e-05 0)
(0.00099991 -1.4479e-05 0)
(0.000994897 -5.11075e-06 0)
(0.000997737 -1.04343e-06 0)
(0.00100048 -1.09074e-06 0)
(0.000997835 -1.51151e-06 0)
(0.000995673 -1.14464e-06 0)
(0.000998672 -7.41701e-07 0)
(0.00100335 -5.07482e-07 0)
(0.000999515 1.5671e-06 0)
(0.000995673 2.66131e-06 0)
(0.000996681 1.94467e-06 0)
(0.000999487 1.81486e-07 0)
(0.00100063 2.94633e-08 0)
(0.00100037 1.39951e-06 0)
(0.00100028 2.85521e-06 0)
(0.00100087 3.84992e-06 0)
(0.00100225 4.49655e-06 0)
(0.00100507 2.35593e-06 0)
(0.00100863 -1.13879e-06 0)
(0.0010092 -4.96488e-06 0)
(0.00100342 -5.42913e-06 0)
(0.000997457 -3.13807e-06 0)
(0.000998097 -7.8849e-07 0)
(0.000999167 -7.68348e-07 0)
(0.000996693 -1.58136e-06 0)
(0.000995675 -1.33436e-06 0)
(0.000999269 -6.15846e-07 0)
(0.00100364 -4.1163e-07 0)
(0.000999252 1.43978e-06 0)
(0.000995737 3.07739e-06 0)
(0.000996131 3.18139e-06 0)
(0.000998806 1.10979e-06 0)
(0.00100084 -2.07995e-07 0)
(0.00100121 4.59769e-07 0)
(0.00100128 1.39794e-06 0)
(0.00100179 2.32841e-06 0)
(0.00100293 2.97614e-06 0)
(0.00100405 2.75043e-06 0)
(0.00100522 5.94589e-07 0)
(0.00100478 -2.98045e-06 0)
(0.00100136 -5.63619e-06 0)
(0.000999453 -4.40759e-06 0)
(0.00100025 -1.95922e-06 0)
(0.000999144 -1.60907e-06 0)
(0.000996629 -1.87422e-06 0)
(0.00099692 -8.60888e-07 0)
(0.00100074 1.5186e-07 0)
(0.00100389 -5.486e-08 0)
(0.000999225 1.01894e-06 0)
(0.000996359 2.83571e-06 0)
(0.000995953 4.05306e-06 0)
(0.000997941 2.73792e-06 0)
(0.0010003 4.60009e-07 0)
(0.00100145 -1.75505e-07 0)
(0.00100163 1.97189e-07 0)
(0.00100195 6.01162e-07 0)
(0.0010024 8.84946e-07 0)
(0.00100278 4.1191e-07 0)
(0.00100349 -7.15991e-07 0)
(0.00100335 -2.33767e-06 0)
(0.00100212 -3.10165e-06 0)
(0.00100156 -1.97761e-06 0)
(0.00100058 -1.2195e-06 0)
(0.000998376 -1.46173e-06 0)
(0.000997132 -1.09188e-06 0)
(0.000998469 4.88413e-07 0)
(0.0010015 1.29264e-06 0)
(0.0010031 3.89359e-07 0)
(0.000999409 5.4514e-07 0)
(0.000997385 2.06377e-06 0)
(0.000996421 3.97447e-06 0)
(0.000997312 4.15558e-06 0)
(0.000999384 2.11694e-06 0)
(0.00100107 2.81854e-07 0)
(0.00100177 -2.55081e-07 0)
(0.00100208 -3.20745e-07 0)
(0.00100229 -3.77851e-07 0)
(0.00100243 -4.24078e-07 0)
(0.00100258 -7.74689e-07 0)
(0.00100237 -1.55687e-06 0)
(0.00100197 -1.97514e-06 0)
(0.00100146 -1.80296e-06 0)
(0.00100009 -1.7805e-06 0)
(0.000998672 -1.47254e-06 0)
(0.000998822 -2.9066e-07 0)
(0.00100021 1.32899e-06 0)
(0.00100177 1.8089e-06 0)
(0.00100157 5.45485e-07 0)
(0.000999628 2.16946e-07 0)
(0.00099842 1.21567e-06 0)
(0.00099738 3.0455e-06 0)
(0.00099733 4.41671e-06 0)
(0.000998584 3.75145e-06 0)
(0.00100024 1.74907e-06 0)
(0.00100137 1.86978e-07 0)
(0.0010019 -6.39192e-07 0)
(0.00100212 -1.18737e-06 0)
(0.00100226 -1.40917e-06 0)
(0.00100231 -1.5177e-06 0)
(0.00100213 -1.69867e-06 0)
(0.00100197 -1.70176e-06 0)
(0.00100138 -1.60397e-06 0)
(0.00100035 -1.30892e-06 0)
(0.000999854 -4.45947e-07 0)
(0.00100038 7.732e-07 0)
(0.00100103 1.78491e-06 0)
(0.00100093 1.68102e-06 0)
(0.000999413 3.72244e-07 0)
(0.000999807 5.33165e-08 0)
(0.000999183 5.8391e-07 0)
(0.000998393 1.84175e-06 0)
(0.0009979 3.44289e-06 0)
(0.000998284 4.05192e-06 0)
(0.000999429 3.00039e-06 0)
(0.00100064 1.21104e-06 0)
(0.0010015 -2.39884e-07 0)
(0.00100201 -1.14436e-06 0)
(0.00100229 -1.58524e-06 0)
(0.00100235 -1.6972e-06 0)
(0.00100227 -1.56532e-06 0)
(0.00100209 -1.33992e-06 0)
(0.0010016 -1.10988e-06 0)
(0.00100109 -6.13032e-07 0)
(0.00100098 2.21629e-07 0)
(0.00100115 1.00738e-06 0)
(0.00100072 1.3086e-06 0)
(0.000999414 8.44947e-07 0)
(0.000997479 -2.80039e-08 0)
(0.000999902 5.13159e-09 0)
(0.000999614 2.46292e-07 0)
(0.000999121 9.30324e-07 0)
(0.000998588 2.03787e-06 0)
(0.000998444 2.96819e-06 0)
(0.000998959 2.8645e-06 0)
(0.000999946 1.73113e-06 0)
(0.00100097 3.54131e-07 0)
(0.00100179 -6.39728e-07 0)
(0.00100233 -1.15985e-06 0)
(0.00100259 -1.3137e-06 0)
(0.00100262 -1.15683e-06 0)
(0.00100242 -8.82154e-07 0)
(0.00100206 -5.38515e-07 0)
(0.00100172 -5.34582e-08 0)
(0.00100145 4.54913e-07 0)
(0.00100093 7.29377e-07 0)
(0.000999742 6.03904e-07 0)
(0.000998031 1.69198e-07 0)
(0.000996296 -2.19445e-07 0)
(0.000999949 -1.53644e-08 0)
(0.000999806 2.79275e-08 0)
(0.000999489 2.0935e-07 0)
(0.00099902 5.6518e-07 0)
(0.000998676 9.60572e-07 0)
(0.000998817 1.05832e-06 0)
(0.000999547 7.21757e-07 0)
(0.0010006 1.7536e-07 0)
(0.00100162 -2.69454e-07 0)
(0.00100235 -4.99993e-07 0)
(0.00100274 -5.67667e-07 0)
(0.00100283 -5.20208e-07 0)
(0.00100266 -4.07989e-07 0)
(0.00100234 -2.53585e-07 0)
(0.00100196 -6.08651e-08 0)
(0.00100141 9.77808e-08 0)
(0.00100046 1.30303e-07 0)
(0.000998984 2.56897e-08 0)
(0.000997277 -1.36842e-07 0)
(0.000995752 -2.39248e-07 0)
)
;

boundaryField
{
    sides
    {
        type            slip;
    }
    inlet
    {
        type            fixedValue;
        value           uniform (0.001 0 0);
    }
    outlet
    {
        type            zeroGradient;
    }
    frontAndBack
    {
        type            empty;
    }
}


// ************************************************************************* //
