/*--------------------------------*- C++ -*----------------------------------*\
  =========                 |
  \\      /  F ield         | OpenFOAM: The Open Source CFD Toolbox
   \\    /   O peration     | Website:  https://openfoam.org
    \\  /    A nd           | Version:  9
     \\/     M anipulation  |
\*---------------------------------------------------------------------------*/
FoamFile
{
    format      ascii;
    class       surfaceScalarField;
    location    "2";
    object      phi_0;
}
// * * * * * * * * * * * * * * * * * * * * * * * * * * * * * * * * * * * * * //

dimensions      [0 4 -1 0 0 0 0];

internalField   nonuniform List<scalar> 
760
(
4.99971e-06
8.55101e-11
4.99864e-06
-6.44026e-10
4.99628e-06
-2.89066e-09
4.99339e-06
-6.97592e-09
4.99223e-06
-1.1198e-08
4.99478e-06
-1.21577e-08
5.00047e-06
-8.15499e-09
5.00668e-06
-1.9813e-09
5.01143e-06
2.71966e-09
5.01413e-06
4.86663e-09
5.01514e-06
5.24252e-09
5.01474e-06
4.52543e-09
5.01336e-06
3.24216e-09
5.01172e-06
1.53796e-09
5.00992e-06
-5.29771e-10
5.00682e-06
-2.24172e-09
5.00123e-06
-2.97045e-09
4.9933e-06
-2.128e-09
4.98458e-06
-4.12706e-10
-4.20868e-12
4.99941e-06
-2.72385e-11
4.99734e-06
-1.9355e-09
4.99376e-06
-7.15228e-09
4.99082e-06
-1.49466e-08
4.99171e-06
-2.04036e-08
4.99689e-06
-1.78258e-08
5.00327e-06
-8.79753e-09
5.00824e-06
1.75571e-11
5.01162e-06
4.53049e-09
5.01337e-06
7.33755e-09
5.01374e-06
7.90025e-09
5.01322e-06
6.96316e-09
5.01175e-06
5.4653e-09
5.01006e-06
3.53489e-09
5.00894e-06
1.30839e-09
5.0079e-06
-2.92654e-09
5.00421e-06
-5.83022e-09
4.99667e-06
-6.02333e-09
4.98729e-06
-3.43502e-09
-9.06938e-10
4.99824e-06
-5.71599e-10
4.99399e-06
-4.53656e-09
4.98868e-06
-1.32402e-08
4.98732e-06
-2.24422e-08
4.99312e-06
-2.31286e-08
5.00164e-06
-1.35268e-08
5.00726e-06
-2.89169e-09
5.00999e-06
1.85476e-09
5.01156e-06
4.52936e-09
5.01239e-06
6.58434e-09
5.01216e-06
7.40028e-09
5.01141e-06
7.57844e-09
5.00978e-06
7.12381e-09
5.00711e-06
6.60191e-09
5.00589e-06
4.90974e-09
5.00699e-06
5.63607e-10
5.00713e-06
-5.93847e-09
5.00207e-06
-9.96162e-09
4.99355e-06
-8.42393e-09
-3.08939e-09
4.99579e-06
-1.86915e-09
4.98815e-06
-8.74181e-09
4.98226e-06
-1.97044e-08
4.98647e-06
-2.48387e-08
4.99862e-06
-1.64751e-08
5.00719e-06
-4.1102e-09
5.00964e-06
-7.14572e-10
5.01096e-06
-2.79519e-12
5.01165e-06
3.04055e-09
5.01225e-06
3.60046e-09
5.01151e-06
4.66355e-09
5.01028e-06
7.59641e-09
5.00894e-06
8.50794e-09
5.0049e-06
8.15849e-09
5.00081e-06
7.71186e-09
5.00187e-06
4.52496e-09
5.00504e-06
-2.12475e-09
5.0057e-06
-9.97715e-09
5.00233e-06
-1.13978e-08
-4.82008e-09
4.99138e-06
-4.13093e-09
4.98024e-06
-1.35555e-08
4.97795e-06
-2.27309e-08
4.99138e-06
-1.92519e-08
5.00598e-06
-5.66191e-09
5.00952e-06
-1.84019e-09
5.01009e-06
-2.6641e-09
5.01194e-06
-3.09298e-09
5.01256e-06
-3.48152e-09
5.01341e-06
-1.62789e-09
5.01317e-06
1.52801e-09
5.00995e-06
7.60055e-09
5.00808e-06
1.11332e-08
5.0048e-06
8.04145e-09
4.99778e-06
6.95133e-09
4.9943e-06
6.85869e-09
4.99815e-06
2.19086e-09
5.00444e-06
-5.31044e-09
5.01054e-06
-9.5154e-09
-4.52829e-09
4.98512e-06
-6.66996e-09
4.97295e-06
-1.64615e-08
4.97942e-06
-1.99275e-08
5.00035e-06
-9.65783e-09
5.0095e-06
-1.04436e-09
5.0081e-06
-4.35225e-09
5.00903e-06
-6.82982e-09
5.01187e-06
-9.81763e-09
5.01304e-06
-1.09659e-08
5.01756e-06
-8.85434e-09
5.01903e-06
-1.58006e-09
5.0115e-06
1.00358e-08
5.00614e-06
1.93764e-08
5.00739e-06
1.33933e-08
4.99995e-06
5.64865e-09
4.9887e-06
6.7421e-09
4.98776e-06
5.82901e-09
4.99762e-06
7.15851e-11
5.01437e-06
-4.9595e-09
-2.76919e-09
4.97893e-06
-8.25005e-09
4.96965e-06
-1.56917e-08
4.98649e-06
-1.34744e-08
5.00724e-06
-3.11448e-09
5.00741e-06
-2.25414e-09
5.00469e-06
-8.06268e-09
5.00745e-06
-1.36487e-08
5.01192e-06
-1.89263e-08
5.02077e-06
-2.34564e-08
5.02694e-06
-1.69675e-08
5.02648e-06
3.20189e-10
5.01082e-06
2.2347e-08
4.99522e-06
3.15214e-08
5.00225e-06
2.01436e-08
5.00499e-06
4.3694e-09
4.98946e-06
3.12496e-09
4.9801e-06
6.31525e-09
4.99097e-06
3.3355e-09
5.0144e-06
-5.72452e-11
-8.15815e-10
4.97475e-06
-7.61748e-09
4.97116e-06
-1.16843e-08
4.99472e-06
-7.32185e-09
5.00891e-06
-1.65301e-09
5.00172e-06
-4.13492e-09
4.99997e-06
-1.13292e-08
5.00252e-06
-1.93508e-08
5.00416e-06
-2.55912e-08
5.02196e-06
-3.98376e-08
5.05089e-06
-4.8647e-08
5.04388e-06
9.1177e-09
5.0193e-06
4.97397e-08
4.99079e-06
5.08778e-08
4.9933e-06
2.26068e-08
5.00371e-06
4.71438e-09
4.99102e-06
1.9084e-09
4.97438e-06
4.60581e-09
4.98262e-06
3.06039e-09
5.01097e-06
1.40777e-09
6.18389e-12
4.97329e-06
-4.59692e-09
4.97501e-06
-6.15351e-09
5.00009e-06
-3.33837e-09
5.00664e-06
-1.47715e-09
4.99436e-06
-3.96414e-09
4.99182e-06
-1.13835e-08
4.99673e-06
-2.4701e-08
5.01003e-06
-4.29488e-08
5.05404e-06
-8.10964e-08
5.06065e-06
-5.79001e-08
5.04051e-06
3.10787e-08
4.99478e-06
9.87076e-08
4.98705e-06
5.30603e-08
4.99255e-06
1.65198e-08
5.00415e-06
3.52755e-09
4.99583e-06
4.47723e-09
4.9773e-06
4.35926e-09
4.98084e-06
2.35074e-09
5.00836e-06
9.20098e-10
-1.41676e-10
4.97337e-06
-1.32619e-10
4.97793e-06
-3.71109e-10
5.00282e-06
-7.52682e-10
5.00483e-06
-8.65213e-10
4.98876e-06
-1.17508e-09
4.97696e-06
-1.16301e-09
4.95587e-06
-1.08715e-09
4.90989e-06
-1.06832e-09
4.83494e-06
-1.03157e-09
4.7722e-06
-9.57909e-10
4.80702e-06
-1.06312e-09
4.91079e-06
-1.07494e-09
4.9576e-06
-9.39293e-10
4.97015e-06
-9.83464e-10
4.9855e-06
-1.12087e-09
4.98771e-06
-1.01363e-09
4.97582e-06
-8.72495e-10
4.97923e-06
-1.01645e-09
5.00592e-06
-1.05732e-09
-1.25802e-09
4.9734e-06
4.49646e-09
4.97786e-06
5.26483e-09
5.00294e-06
1.94958e-09
5.00465e-06
-3.29013e-10
4.98875e-06
1.5617e-09
4.97694e-06
9.19302e-09
4.95583e-06
2.25976e-08
4.90987e-06
4.08418e-08
4.83495e-06
7.9047e-08
4.77192e-06
5.62909e-08
4.8071e-06
-3.34933e-08
4.91091e-06
-1.00775e-07
4.95774e-06
-5.49744e-08
4.97011e-06
-1.82947e-08
4.9853e-06
-5.28656e-09
4.98762e-06
-6.53507e-09
4.97573e-06
-6.6056e-09
4.97921e-06
-4.34483e-09
5.00579e-06
-2.93114e-09
-2.31176e-09
4.97333e-06
7.55424e-09
4.97494e-06
1.09405e-08
5.00004e-06
5.9353e-09
5.00684e-06
8.05798e-11
4.99439e-06
1.62491e-09
4.99178e-06
9.17387e-09
4.99671e-06
1.7297e-08
5.00984e-06
2.37513e-08
5.05384e-06
3.80315e-08
5.06096e-06
4.65667e-08
5.04008e-06
-1.06308e-08
4.9942e-06
-5.16151e-08
4.9866e-06
-5.28141e-08
4.99239e-06
-2.45089e-08
5.00435e-06
-6.51451e-09
4.99565e-06
-4.11941e-09
4.97695e-06
-6.51367e-09
4.9805e-06
-5.88021e-09
5.00804e-06
-3.34438e-09
-2.33219e-09
4.9748e-06
8.07878e-09
4.97109e-06
1.50715e-08
4.99462e-06
1.22404e-08
5.00885e-06
1.62764e-09
5.00166e-06
6.37567e-10
4.99981e-06
5.87099e-09
5.00221e-06
1.18307e-08
5.00386e-06
1.71422e-08
5.0218e-06
2.1704e-08
5.05037e-06
1.52484e-08
5.04383e-06
-2.42522e-09
5.01911e-06
-2.4047e-08
4.99057e-06
-3.32201e-08
4.99302e-06
-2.18397e-08
5.00317e-06
-6.06151e-09
4.99078e-06
-5.04915e-09
4.97456e-06
-7.89451e-09
4.98183e-06
-4.88941e-09
5.01018e-06
-2.02995e-09
-1.32787e-09
4.97912e-06
6.51769e-09
4.96964e-06
1.58223e-08
4.98646e-06
1.89158e-08
5.00701e-06
8.29301e-09
5.00756e-06
-9.62759e-13
5.00483e-06
2.13991e-09
5.00723e-06
4.70708e-09
5.01172e-06
8.09994e-09
5.02057e-06
9.22704e-09
5.02669e-06
7.27603e-09
5.02596e-06
-1.82871e-10
5.01031e-06
-1.15538e-08
4.99467e-06
-2.07302e-08
5.00198e-06
-1.47461e-08
5.00431e-06
-7.21117e-09
4.98945e-06
-7.7382e-09
4.97879e-06
-7.48521e-09
4.98992e-06
-1.93665e-09
5.01401e-06
2.8261e-09
5.30923e-10
4.98535e-06
4.00228e-09
4.97311e-06
1.30533e-08
4.97944e-06
2.17657e-08
5.00025e-06
1.79539e-08
5.00933e-06
4.38602e-09
5.00783e-06
5.58234e-10
5.00894e-06
7.38301e-10
5.01157e-06
1.25646e-09
5.01289e-06
1.88053e-09
5.01718e-06
3.34191e-10
5.01865e-06
-2.62006e-09
5.01115e-06
-8.92192e-09
5.00571e-06
-1.239e-08
5.00677e-06
-9.16828e-09
4.99972e-06
-8.30389e-09
4.988e-06
-8.7008e-09
4.98635e-06
-3.85308e-09
4.99683e-06
3.36813e-09
5.0132e-06
7.70011e-09
2.32151e-09
4.9916e-06
1.81636e-09
4.98048e-06
8.35576e-09
4.97803e-06
1.89378e-08
4.99138e-06
2.36697e-08
5.00576e-06
1.52089e-08
5.00931e-06
3.03865e-09
5.00984e-06
-4.34299e-11
5.0119e-06
-2.40335e-09
5.01195e-06
-3.68851e-09
5.01278e-06
-4.23403e-09
5.01272e-06
-5.45818e-09
5.00962e-06
-8.30788e-09
5.00775e-06
-9.46493e-09
5.00425e-06
-9.30076e-09
4.99696e-06
-8.81661e-09
4.99333e-06
-6.12147e-09
4.99692e-06
9.73905e-10
5.00315e-06
8.15568e-09
5.0092e-06
9.87384e-09
2.42816e-09
4.99586e-06
5.54163e-10
4.98853e-06
4.37698e-09
4.98241e-06
1.25297e-08
4.98656e-06
2.15582e-08
4.99856e-06
2.20285e-08
5.00698e-06
1.25594e-08
5.0095e-06
2.1403e-09
5.01064e-06
-2.28112e-09
5.01126e-06
-4.78142e-09
5.01175e-06
-7.16049e-09
5.01094e-06
-8.05493e-09
5.00968e-06
-8.22977e-09
5.00831e-06
-7.71358e-09
5.00412e-06
-7.2356e-09
5.00005e-06
-5.61314e-09
5.00049e-06
-1.78546e-09
5.00418e-06
5.2914e-09
5.00434e-06
8.84573e-09
5.00075e-06
7.18998e-09
1.1783e-09
4.99838e-06
2.14365e-11
4.99422e-06
1.89631e-09
4.98897e-06
6.66536e-09
4.9874e-06
1.42083e-08
4.99317e-06
1.96567e-08
5.00151e-06
1.70867e-08
5.007e-06
8.14309e-09
5.00959e-06
-5.61728e-10
5.01128e-06
-4.89062e-09
5.01213e-06
-7.31634e-09
5.01145e-06
-8.50756e-09
5.01071e-06
-7.47831e-09
5.00906e-06
-5.88373e-09
5.00632e-06
-3.94459e-09
5.00497e-06
-1.36865e-09
5.00565e-06
2.25762e-09
5.00577e-06
5.29671e-09
5.00037e-06
5.20118e-09
4.99149e-06
2.50654e-09
-6.81308e-10
4.9994e-06
-3.01346e-11
4.9974e-06
6.3995e-10
4.99402e-06
2.70861e-09
4.99095e-06
6.5482e-09
4.99173e-06
1.07903e-08
4.99677e-06
1.17267e-08
5.00302e-06
7.70878e-09
5.00788e-06
1.58698e-09
5.01105e-06
-2.93952e-09
5.01288e-06
-4.95387e-09
5.01334e-06
-5.42441e-09
5.01265e-06
-4.74919e-09
5.01101e-06
-3.38913e-09
5.00913e-06
-1.66932e-09
5.00791e-06
3.12719e-10
5.00653e-06
2.16535e-09
5.00261e-06
2.56607e-09
4.9947e-06
1.58373e-09
4.98489e-06
-1.30916e-10
-1.22721e-09
4.99986e-06
4.99879e-06
4.99651e-06
4.99358e-06
4.99221e-06
4.9946e-06
5.00014e-06
5.00624e-06
5.01088e-06
5.01352e-06
5.01444e-06
5.01391e-06
5.01242e-06
5.0106e-06
5.00856e-06
5.00524e-06
4.99935e-06
4.99098e-06
4.98173e-06
)
;

boundaryField
{
    sides
    {
        type            calculated;
        value           uniform 0;
    }
    inlet
    {
        type            calculated;
        value           nonuniform List<scalar> 
20
(
-5e-06
-5e-06
-5e-06
-5e-06
-5e-06
-5e-06
-5e-06
-5e-06
-5e-06
-5e-06
-5e-06
-5e-06
-5e-06
-5e-06
-5e-06
-5e-06
-5e-06
-5e-06
-5e-06
-5e-06
)
;
    }
    outlet
    {
        type            calculated;
        value           nonuniform List<scalar> 
20
(
4.98056e-06
4.98243e-06
4.98896e-06
5.00003e-06
5.01306e-06
5.02294e-06
5.02846e-06
5.02764e-06
5.02563e-06
5.02331e-06
5.02319e-06
5.02509e-06
5.02699e-06
5.02771e-06
5.02219e-06
5.01181e-06
4.99819e-06
4.98657e-06
4.97968e-06
4.97645e-06
)
;
    }
    frontAndBack
    {
        type            empty;
        value           nonuniform List<scalar> 0();
    }
}


// ************************************************************************* //
