/*--------------------------------*- C++ -*----------------------------------*\
  =========                 |
  \\      /  F ield         | OpenFOAM: The Open Source CFD Toolbox
   \\    /   O peration     | Website:  https://openfoam.org
    \\  /    A nd           | Version:  9
     \\/     M anipulation  |
\*---------------------------------------------------------------------------*/
FoamFile
{
    format      ascii;
    class       volSymmTensorField;
    location    "20";
    object      sigma;
}
// * * * * * * * * * * * * * * * * * * * * * * * * * * * * * * * * * * * * * //

dimensions      [1 -1 -2 0 0 0 0];

internalField   nonuniform List<symmTensor> 
1000
(
(7792.41 -5434.46 -5.97622e-14 4267.07 4.93444e-14 2782.96)
(10478.9 -4161.91 -9.34802e-14 1385.45 6.39987e-14 2737.92)
(11856.4 -3312.65 1.18364e-13 -191.102 -1.6633e-14 2691.99)
(12560.3 -2709.97 1.64598e-14 -1068.03 -1.37659e-14 2652.06)
(12897 -2265.48 -1.06233e-13 -1546.61 -2.06567e-14 2619.32)
(13023.4 -1928.54 3.14752e-15 -1793.46 3.26103e-15 2591.52)
(13027.9 -1667.42 -1.35355e-13 -1901.67 -7.01934e-14 2567.58)
(12960.5 -1459.78 7.84016e-14 -1929.74 5.04181e-14 2545.56)
(12854.9 -1288.02 -8.98363e-14 -1916.04 -1.99729e-14 2524.36)
(12726.2 -1057.41 0 -1863.86 0 2506.7)
(10475.5 -6490.13 -1.10443e-13 4691.49 1.79109e-14 3500.07)
(12470.2 -4448.48 0 1933.01 0 3323.81)
(13402.1 -3175.61 1.18837e-13 395.55 5.34639e-14 3184.07)
(13799.8 -2340.86 -2.04917e-13 -483.443 -9.84806e-14 3073.01)
(13908.5 -1773.88 -8.88857e-14 -988.645 -4.48858e-14 2981.51)
(13861.7 -1377.13 8.02127e-14 -1270.18 4.19126e-14 2905.74)
(13727.9 -1092.14 6.99971e-14 -1418.84 3.58653e-14 2840.55)
(13551.3 -879.207 1.42751e-13 -1484.62 8.43074e-14 2784.61)
(13363.7 -707.21 0 -1499.48 0 2737.9)
(13166.1 -498.924 0 -1441.39 0 2705.7)
(13406.4 -7252.67 0 4730.36 0 4185.41)
(14513.2 -4589.26 0 2329.56 0 3886.79)
(14889.8 -2972.43 1.16314e-13 973.574 5.34093e-14 3660.77)
(14912.2 -1953.37 -1.90464e-14 164.811 7.57826e-15 3479.31)
(14761.1 -1290.12 -1.18783e-16 -323.361 5.27473e-17 3331.78)
(14526.3 -847.606 -7.77414e-14 -618.222 -4.01605e-14 3209.57)
(14255.2 -544.962 6.13078e-14 -793.846 3.79333e-14 3106.47)
(13976 -330.57 -6.2167e-14 -893.469 -3.18109e-14 3019.05)
(13711.4 -169.149 1.82881e-14 -942.979 -6.53098e-15 2946.55)
(13457.4 6.01454 -7.75158e-15 -918.18 -1.37322e-14 2893.66)
(16471 -7629.95 -6.73673e-14 4451.61 6.62186e-15 4828.29)
(16536.7 -4548.67 5.02709e-14 2592.14 -1.06073e-14 4414.35)
(16272.7 -2707.46 -5.68616e-14 1517.54 -2.53993e-14 4105.43)
(15881 -1569.95 -1.80468e-14 844.501 3.8181e-15 3859.74)
(15450.8 -849.267 7.75456e-14 408.45 4.35959e-14 3659.82)
(15023.7 -382.774 -7.55091e-14 120.915 -3.80498e-14 3494.92)
(14617.2 -75.7938 -6.7e-14 -73.3674 -3.42038e-14 3356.28)
(14241.6 131.008 -1.50645e-13 -205.298 -7.66033e-14 3239.14)
(13906.1 276.256 -4.36881e-14 -293.14 -6.78988e-15 3141.46)
(13599.3 418.575 4.40199e-14 -314.532 1.24705e-14 3065.71)
(19518.8 -7564.83 -4.40639e-14 3928.9 2.21268e-15 5411)
(18466.3 -4309.58 -1.31818e-15 2734.83 7.32003e-17 4892.58)
(17525.6 -2383.3 -1.74013e-13 2020.26 -6.86324e-14 4510.59)
(16700.8 -1210.75 8.54691e-15 1523.05 -2.1158e-16 4205.49)
(15987.2 -479.893 -8.55894e-15 1164.56 -1.047e-15 3958.1)
(15370 -17.3432 7.2143e-14 897.415 3.24784e-14 3754.01)
(14834.6 278.402 2.71114e-15 692.506 -2.3546e-15 3583.17)
(14369.9 469.275 5.35258e-14 532.148 3.11714e-14 3438.93)
(13970 594.893 -6.22612e-14 405.285 6.04273e-15 3317.37)
(13616.7 706.15 -4.10147e-14 333.382 -1.91612e-14 3219.25)
(22399.6 -7030.29 -1.3045e-13 3269.38 1.12153e-14 5923.61)
(20226.9 -3868.6 -1.16916e-15 2793.37 -1.37359e-16 5312.37)
(18615.1 -2011.53 6.96467e-16 2464.68 8.55089e-17 4864.57)
(17370.4 -890.882 7.65641e-15 2165.49 1.38578e-15 4508.27)
(16385.6 -201.162 -8.09541e-14 1897.14 -3.40711e-14 4219.09)
(15590.4 228.46 7.09441e-17 1659.97 2.1428e-16 3980.87)
(14936.6 496.723 6.27318e-14 1449.86 2.78272e-14 3781.48)
(14391.9 663.794 1.45096e-13 1264.41 5.90151e-14 3613)
(13936.1 767.98 2.54916e-14 1101.75 1.12938e-14 3470.27)
(13544.5 851.33 -5.41564e-14 980.065 -1.59158e-14 3351.81)
(24958.2 -6042.62 1.48964e-13 2573.96 -1.07097e-14 6353.57)
(21749.1 -3237.41 3.16053e-14 2794.39 1.05241e-14 5663.88)
(19521.4 -1600.09 5.60254e-14 2844.18 1.64224e-14 5161.28)
(17894.2 -619.504 -7.03924e-15 2737.53 -3.07071e-15 4761.18)
(16666.6 -20.8319 7.18623e-14 2560.12 2.26286e-14 4436.95)
(15714.2 347.456 -6.72897e-14 2354.83 -2.008e-14 4169.78)
(14957.9 573.459 -5.75221e-15 2143.49 1.20796e-14 3946.46)
(14345.5 710.332 -5.47394e-14 1937.71 -2.03545e-14 3757.66)
(13843.1 791.751 9.06671e-15 1743.11 -8.09673e-15 3596.83)
(13421.2 850.93 -2.47499e-14 1576.01 -1.6212e-14 3460.91)
(27043.8 -4649.22 2.71151e-13 1946.33 -2.05353e-14 6690.03)
(22961.8 -2445.03 -1.38207e-13 2769.45 -2.33899e-14 5937.98)
(20222.5 -1164.74 6.64219e-16 3145.55 4.46135e-16 5392.63)
(18279.1 -401.343 1.01172e-14 3206.8 8.23105e-15 4958.3)
(16852 61.7612 1.48639e-13 3109.12 3.5067e-14 4606.42)
(15772.2 344.371 -1.04282e-15 2933.22 -5.94593e-15 4316.63)
(14933.8 515.409 8.0682e-17 2722.21 -2.71552e-16 4074.45)
(14268.2 617.021 -5.05951e-14 2499.92 -1.93241e-14 3869.57)
(13730.5 675.443 -3.21175e-15 2279.62 4.1414e-15 3694.64)
(13286.5 714.698 1.30675e-15 2074.97 6.56832e-15 3544.96)
(28516 -2936.5 1.61677e-13 1471.75 -1.96113e-14 6920.26)
(23805.5 -1538.68 -1.46828e-13 2742.03 -2.46737e-14 6126.35)
(20698.7 -727.584 9.71301e-15 3360.73 1.28275e-14 5552.18)
(18529.6 -244.791 9.28603e-15 3546.75 1.45788e-14 5094.54)
(16960.7 47.6236 -3.32363e-15 3507.33 -8.28189e-15 4723.39)
(15791.2 225.333 6.46269e-14 3352.48 4.57456e-15 4417.78)
(14896.1 332.741 -1.15631e-15 3141.54 7.07108e-15 4162.52)
(14194.4 396.11 1.03847e-13 2907.41 1.84124e-14 3946.57)
(13633.3 432.576 2.35822e-14 2668.02 4.23791e-15 3761.84)
(13175.5 456.231 1.98867e-14 2435.44 -1.38302e-14 3602.52)
(29301 -1022.77 1.73457e-13 1224.2 -2.76884e-14 7044.29)
(24251.6 -613.823 -4.82397e-15 2746.01 -1.98786e-14 6230.22)
(20922.9 -356.873 5.75764e-14 3483.75 1.61381e-14 5632.31)
(18619.8 -197.69 2.15658e-15 3724.96 1.06693e-14 5156.47)
(16970.4 -97.5174 -4.92607e-17 3709.29 -3.79492e-16 4772.24)
(15751.9 -33.688 6.41766e-14 3561.12 -4.55046e-15 4456.85)
(14827.3 7.76077 -3.87673e-16 3348.03 7.62278e-15 4194.3)
(14108.1 34.6713 5.1205e-14 3106.2 1.90483e-15 3972.54)
(13537.4 52.8003 1.35554e-15 2855.6 -9.04493e-15 3783.01)
(13076.7 66.1092 -1.71431e-16 2607.16 -5.48102e-15 3619.35)
(-367.087 310.705 5.33475e-15 -9222.83 -5.13619e-14 -2213.06)
(-128.314 98.5262 7.19455e-15 -5823.47 4.23186e-15 -1373.49)
(371.217 -68.1712 -6.5349e-15 -3716.21 -1.20735e-14 -771.921)
(1103.62 -167.528 0 -2366.88 0 -291.523)
(1901.62 -220.474 -1.43813e-14 -1482.3 -1.28736e-15 96.7674)
(2687.6 -245.527 -3.73651e-15 -886.23 -7.4327e-15 415.701)
(3427.48 -254.599 2.39928e-14 -473.511 2.2962e-16 681.686)
(4108.84 -254.469 1.14608e-14 -180.241 -5.53645e-15 906.599)
(4729.85 -249.369 1.97585e-14 34.2307 2.36541e-15 1099.4)
(5292.8 -243.131 5.37204e-15 195.747 7.25514e-15 1266.59)
(-418.889 711.971 -4.69717e-15 -8883.85 -4.69903e-14 -2146.79)
(24.9475 -290.725 1.60535e-14 -5599.88 2.46372e-14 -1286.52)
(625.429 -820.136 -1.54081e-14 -3668.67 -1.56466e-14 -702.286)
(1399.32 -1086.58 -4.46798e-15 -2430.7 -2.91303e-15 -238.011)
(2208.06 -1205.59 0 -1608.19 0 138.43)
(2988.68 -1241.67 -1.75676e-14 -1045.29 -8.6757e-15 448.473)
(3715.28 -1231.8 2.45126e-14 -649.116 6.60239e-16 707.577)
(4379.34 -1197.06 1.05261e-16 -361.945 -1.11603e-18 927.09)
(4980.03 -1149.85 -7.25551e-14 -147.222 2.10657e-15 1115.26)
(5517.06 -1103.84 7.83184e-15 19.6059 3.70345e-15 1277.69)
(-431.743 992.051 -5.35965e-15 -7904.3 -2.80632e-14 -1923.7)
(372.865 -601.102 2.33804e-14 -5165.44 2.95146e-14 -1105.98)
(1153.38 -1422.69 2.07242e-14 -3531.1 1.21746e-14 -548.704)
(2009.6 -1823.09 -3.63682e-15 -2467.1 -4.67517e-15 -105.579)
(2841.87 -1994.97 0 -1747.33 0 252.585)
(3614.52 -2039.86 -3.07488e-14 -1243.1 -1.08991e-14 547.251)
(4316.05 -2014.77 -4.16087e-14 -878.664 -1.39085e-14 793.244)
(4946.18 -1952.1 3.8776e-14 -606.607 7.96372e-15 1001.44)
(5508.13 -1870.69 2.11432e-17 -397.039 -1.0164e-18 1179.48)
(5999.31 -1792.89 -3.98445e-14 -230.052 -5.74097e-15 1331.37)
(-379.91 1049.1 2.02924e-14 -6506.12 3.10966e-14 -1589.08)
(915.297 -934.281 1.34547e-15 -4536.12 -1.44349e-14 -835.576)
(1937.34 -1947.73 2.84899e-14 -3324.95 1.35075e-14 -320.218)
(2890.13 -2432.57 0 -2506.44 0 88.5422)
(3746.32 -2630.93 -3.58513e-14 -1928.82 -8.86192e-15 419.425)
(4502.18 -2672.63 2.49407e-14 -1506.16 6.27633e-15 691.39)
(5165.61 -2628.84 -2.14624e-14 -1186.15 -1.28507e-15 918.337)
(5746.56 -2539.91 -4.14177e-14 -935.96 1.10347e-15 1110.14)
(6253.69 -2429.12 1.4829e-14 -734.898 4.8499e-15 1273.57)
(6680.66 -2327.29 2.83446e-14 -569.627 8.82627e-15 1410.24)
(-188.133 822.112 -3.79343e-14 -4810.25 7.04668e-16 -1153.47)
(1662.66 -1322.5 -4.70349e-14 -3752.57 1.23845e-14 -482.286)
(2947.71 -2405.46 -3.54569e-14 -3054.25 -1.64081e-14 -24.5879)
(4004.38 -2907.14 2.21823e-15 -2528.35 1.56385e-14 340.623)
(4876.44 -3098.35 1.21597e-16 -2121.36 1.35502e-16 635.79)
(5603.14 -3121.12 3.66263e-14 -1796.74 1.25926e-14 878.399)
(6214.03 -3053.48 2.17561e-14 -1530.93 7.53058e-15 1080.71)
(6730.99 -2939.38 0 -1308.1 0 1251.44)
(7168.78 -2804.2 -5.2513e-14 -1118.59 -3.16729e-15 1396.2)
(7515.75 -2686.93 1.50668e-14 -957.393 5.22901e-15 1513.47)
(215.83 289.27 -2.5946e-14 -2971.81 -9.8964e-14 -635.995)
(2624.44 -1772.42 1.46367e-14 -2876.42 -3.6877e-14 -58.1478)
(4164.1 -2784.04 -3.76153e-14 -2720.47 -3.12284e-14 333.144)
(5304.08 -3231.4 5.40763e-16 -2510.97 -8.31505e-15 644.565)
(6175.01 -3378.42 6.67341e-14 -2288.75 2.472e-14 896.83)
(6855.96 -3365.52 -4.71197e-14 -2071.71 -1.62722e-14 1104.06)
(7399.57 -3268.64 1.2308e-16 -1866.26 1.03634e-17 1276.92)
(7839.22 -3130.84 -6.06983e-14 -1674.87 -1.63136e-14 1422.54)
(8195.48 -2976.99 1.88883e-17 -1499.91 -2.0574e-18 1545.13)
(8450.91 -2853.65 -4.81187e-14 -1346 -1.69381e-14 1639.59)
(928.059 -542.754 2.22576e-14 -1090.9 -4.00937e-14 -37.5785)
(3810.38 -2262.81 4.44179e-16 -1947.43 -8.11984e-16 429.911)
(5549.62 -3074.05 3.53318e-16 -2327.6 -7.43852e-16 743.542)
(6735.43 -3395.68 -8.17123e-14 -2428.43 -4.4055e-14 993.924)
(7577.08 -3463.68 3.4858e-15 -2391.43 1.11146e-14 1196.69)
(8192.53 -3399.37 -6.69193e-14 -2284.52 -2.60253e-14 1363.39)
(8653.84 -3268.83 1.20169e-13 -2142.81 4.58615e-14 1502.55)
(9004.83 -3109.36 8.4155e-17 -1986.16 -5.18366e-18 1619.69)
(9270.97 -2942.85 9.89866e-15 -1828.58 1.10575e-14 1717.47)
(9428.09 -2823.15 -3.636e-14 -1686.47 -1.38457e-14 1786.53)
(2017.39 -1629.79 1.15341e-13 684.964 -3.17924e-14 623.621)
(5214.8 -2778.95 2.79509e-14 -1018 -3.92784e-14 968.491)
(7059.11 -3266.79 -9.29893e-15 -1868.14 1.44688e-14 1197.92)
(8236.28 -3402.79 3.70389e-15 -2252.89 -8.4793e-15 1380.78)
(9013.65 -3362.56 4.11269e-17 -2389.98 4.99386e-16 1528.54)
(9541.32 -3234.92 6.30764e-14 -2390.83 2.44753e-14 1650.11)
(9907.08 -3067.78 -1.55971e-14 -2314.27 -1.39453e-15 1752.19)
(10161.7 -2888.61 2.09262e-14 -2195.33 -1.61453e-15 1838.39)
(10333.3 -2715.13 1.43427e-14 -2059.57 -2.1424e-15 1909.31)
(10390.6 -2607.83 4.03754e-14 -1934.85 6.29045e-15 1951.33)
(3517.6 -2878.19 5.26991e-14 2222.8 6.18701e-14 1324.71)
(6810.58 -3288.71 7.39642e-15 -121.059 8.75003e-14 1543.74)
(8641.3 -3365.1 6.00704e-16 -1348.57 -7.202e-16 1682.94)
(9740.06 -3271.45 1.02321e-13 -1968.24 3.44371e-14 1793.5)
(10414.3 -3102.05 8.53902e-14 -2256.49 3.87006e-14 1882.57)
(10832.8 -2903.92 7.57582e-14 -2355.83 3.38462e-14 1956.22)
(11092 -2699.57 1.49936e-14 -2343.94 1.12021e-15 2018.77)
(11246.9 -2503.35 -9.20937e-14 -2267.3 -4.05227e-14 2072.21)
(11327.1 -2325.22 2.97467e-14 -2159.58 2.86407e-14 2115.58)
(11296.2 -2233.64 2.49026e-14 -2054.73 1.09478e-14 2132.66)
(5454.86 -4189.82 -6.92926e-15 3440.21 6.91489e-15 2052.71)
(8581.25 -3763.45 -2.18545e-14 690.181 1.9143e-14 2139.56)
(10256.1 -3380.05 -5.55803e-14 -782.403 -2.72865e-14 2186.23)
(11196.5 -3031.49 2.19895e-13 -1569.94 7.07344e-14 2221.51)
(11723.7 -2723.04 5.46459e-17 -1974.32 -1.35458e-16 2249.86)
(12008.6 -2452.71 -7.85448e-14 -2157.97 -3.73422e-14 2273.23)
(12149.6 -2215.97 -5.15006e-14 -2208.51 -3.2426e-14 2294.11)
(12201.8 -2008.83 -3.3006e-14 -2181.06 -1.46116e-14 2312.47)
(12204.7 -1824.36 -3.61633e-14 -2102.09 7.07491e-15 2331.37)
(12136.5 -1732.82 6.71563e-14 -2028.98 9.8243e-16 2332.5)
(5788.58 -226.333 4.9184e-14 316.829 2.27952e-15 1408.94)
(6240.72 -201.274 3.43715e-15 429.228 4.95108e-15 1539.22)
(6649.05 -180.671 -7.89647e-14 529.12 2.68315e-15 1656.5)
(7019.86 -162.436 -2.81486e-14 621.643 3.22501e-17 1763.42)
(7358.02 -146.192 -4.28078e-15 710.73 -7.83058e-15 1862.02)
(7667.36 -131.62 0 799.155 0 1953.81)
(7951.3 -118.447 0 889.588 0 2040.2)
(8212.53 -106.428 3.18386e-14 984.013 8.80466e-17 2122.28)
(8453.33 -95.3402 1.28428e-15 1084.64 2.58778e-15 2201.07)
(8675.57 -84.9639 6.60861e-14 1193.23 3.34911e-16 2277.42)
(8880.62 -75.1105 3.47538e-15 1311.99 7.31356e-15 2352.14)
(9069.69 -65.5349 -1.33381e-15 1442.83 -2.31895e-15 2425.97)
(9243.39 -56.08 3.08014e-15 1588.35 6.47951e-15 2499.63)
(9402.44 -46.5281 -1.04137e-13 1750.83 -1.13907e-15 2573.83)
(9546.78 -36.6676 3.39888e-14 1933.36 -1.2688e-15 2649.26)
(9676.09 -26.1526 1.25158e-16 2138.81 1.87584e-18 2726.52)
(9789 -15.018 -3.49312e-14 2370.92 -6.07181e-16 2806.14)
(9882.24 -3.63594 3.46747e-14 2631.91 6.88597e-16 2887.88)
(9955.12 4.66808 -6.73779e-14 2924.31 -1.11891e-15 2972.18)
(10030.2 -0.185182 -3.40592e-14 3247.65 -9.21531e-16 3064.12)
(5975.31 -1022.28 7.86979e-14 155.067 1.67005e-15 1414.7)
(6395.87 -913.393 9.6684e-15 291.681 5.55419e-15 1543.28)
(6775.42 -823.48 -2.30366e-14 409.405 2.8656e-15 1658.04)
(7123.69 -743.921 9.53328e-14 516.879 5.52208e-15 1763.21)
(7443.46 -673.589 -1.79755e-15 618.177 -2.75125e-15 1860.38)
(7737.66 -611.264 -9.59306e-14 716.849 -3.11965e-15 1951.04)
(8008.88 -555.777 8.27017e-15 815.561 5.65167e-15 2036.41)
(8259.43 -506.055 0 916.927 0 2117.62)
(8491.11 -461.13 2.96014e-15 1022.98 2.71609e-15 2195.56)
(8705.58 -420.088 6.97632e-15 1136.03 5.37035e-15 2271.14)
(8903.92 -382.096 4.80795e-14 1257.98 1.34669e-14 2345.05)
(9087.27 -346.337 7.1389e-16 1391.28 4.24385e-17 2418.13)
(9256.1 -312.085 -3.0104e-14 1538.02 3.54607e-15 2490.95)
(9411.02 -278.425 3.44566e-14 1701.04 1.11781e-15 2564.32)
(9552.12 -244.748 3.51432e-14 1882.86 1.35329e-15 2638.84)
(9679.37 -210.063 -3.46812e-14 2086.92 -1.53569e-15 2715.3)
(9791.5 -173.557 -3.4788e-14 2316.47 -1.78933e-15 2794.15)
(9885.77 -133.894 -6.90955e-14 2576.05 -4.12548e-15 2875.81)
(9959.48 -89.3991 -6.12038e-16 2874.05 -4.49297e-17 2961.58)
(10035.5 -35.0194 2.05485e-14 3236.94 6.44036e-15 3062.88)
(6391.69 -1663.1 2.65371e-14 -82.6989 2.17197e-16 1455.92)
(6750.58 -1494.29 9.45418e-15 84.1751 3.36302e-15 1577.25)
(7070.33 -1353.33 -8.57492e-14 226.147 -2.57765e-16 1683.8)
(7369.28 -1227.31 1.90112e-14 355.042 -3.26202e-15 1782.54)
(7648.09 -1114.93 1.04374e-13 474.753 6.84726e-15 1874.5)
(7908.06 -1014.64 -9.89886e-14 589.019 -3.91312e-15 1960.86)
(8150.5 -924.891 -3.37497e-14 700.825 -5.07211e-16 2042.61)
(8376.68 -844.147 6.44938e-14 813.049 1.03984e-15 2120.71)
(8587.62 -770.977 -5.30887e-14 927.989 4.73067e-15 2195.91)
(8784.34 -704.005 -6.79434e-14 1048.14 -1.86415e-15 2269.04)
(8967.49 -641.939 6.5447e-14 1175.57 1.9776e-15 2340.71)
(9137.75 -583.485 1.00883e-13 1312.78 3.79365e-15 2411.66)
(9295.43 -527.442 7.26583e-16 1461.95 7.37492e-17 2482.47)
(9440.98 -472.599 -3.43351e-14 1625.89 -1.82323e-15 2553.89)
(9574.3 -417.67 3.38754e-14 1807.15 2.07266e-15 2626.49)
(9695.11 -361.162 1.19551e-16 2009.16 8.64434e-18 2700.99)
(9802.22 -301.53 -3.44914e-14 2235.41 -2.90086e-15 2777.91)
(9892.21 -235.789 3.08185e-14 2490.74 2.39755e-15 2857.6)
(9961.62 -159.395 1.87516e-14 2782.89 1.84227e-15 2941.04)
(10034.3 -62.4656 2.40544e-17 3132.85 1.93717e-18 3038.58)
(6984.07 -2164.92 0 -408.489 0 1517.44)
(7257.39 -1958.77 1.16986e-14 -204.474 4.11564e-15 1627.6)
(7495.38 -1784.8 3.01336e-14 -31.0413 5.27041e-16 1722.54)
(7725.66 -1627.34 3.43217e-14 126.078 7.49979e-16 1811.94)
(7946.67 -1485.18 0 270.568 0 1896.29)
(8157.85 -1356.94 -2.15031e-14 406.203 3.18104e-15 1976.32)
(8358.92 -1241.1 -4.89557e-14 536.221 -7.78841e-15 2052.72)
(8549.84 -1136.08 -6.47073e-14 663.724 -1.65628e-15 2126.21)
(8730.63 -1040.3 -1.06841e-14 791.313 -3.70175e-15 2197.37)
(8901.43 -952.146 5.21252e-14 921.643 -4.04563e-15 2266.86)
(9062.24 -870.063 1.98441e-14 1056.99 -4.78321e-15 2335.21)
(9213.27 -792.493 1.51723e-14 1199.92 6.29165e-15 2403.04)
(9354.41 -717.881 -1.43356e-14 1352.68 6.51555e-15 2470.87)
(9485.66 -644.592 2.74959e-14 1518.02 -2.29896e-16 2539.31)
(9606.84 -571.008 2.86264e-14 1698.56 5.46809e-16 2608.94)
(9717.44 -495.142 -3.39526e-14 1897.61 -3.34157e-15 2680.4)
(9815.79 -414.452 -1.06744e-16 2118.54 -1.22277e-17 2754.07)
(9898.62 -324.722 9.70174e-14 2365.76 1.23786e-14 2830.24)
(9962.91 -219.806 -2.86214e-14 2645.52 -4.4926e-15 2909.64)
(10032.4 -86.9364 -3.60912e-14 2976.3 -1.77159e-14 3002.02)
(7714.43 -2509.26 3.83918e-14 -783.258 -6.16324e-15 1599.5)
(7883.19 -2291.89 -1.64228e-14 -543.653 -5.31609e-15 1693.74)
(8024.28 -2105.31 -7.92141e-14 -336.748 -7.59347e-15 1774.05)
(8171.96 -1933.49 4.17717e-14 -149.118 5.42132e-15 1851.43)
(8322.79 -1775.64 1.05771e-13 22.8831 1.59051e-14 1925.93)
(8474.12 -1631.03 -3.37639e-14 182.801 -1.17571e-15 1997.75)
(8623.97 -1498.67 0 333.946 0 2067.21)
(8770.92 -1377.32 3.25571e-14 479.454 1.22012e-15 2134.7)
(8913.84 -1265.57 -2.90269e-14 622.145 -1.16784e-14 2200.61)
(9051.92 -1161.89 -4.33138e-14 764.726 -5.5477e-15 2265.38)
(9184.44 -1064.64 -4.65826e-14 909.682 3.71411e-15 2329.41)
(9310.88 -972.15 -6.00909e-14 1059.53 -1.33366e-15 2393.17)
(9430.71 -882.664 7.21006e-14 1216.65 -2.6576e-15 2457.08)
(9543.62 -794.378 9.2867e-14 1383.64 6.0805e-15 2521.67)
(9648.95 -705.23 7.6367e-15 1563.05 2.86733e-15 2587.39)
(9745.92 -612.735 -2.62066e-14 1757.89 -1.53216e-15 2654.72)
(9833.16 -513.84 1.3222e-14 1971.34 4.30136e-15 2724.12)
(9907.37 -403.209 6.25307e-15 2207.08 1.71701e-15 2795.64)
(9965.61 -273.38 7.67123e-14 2470.39 1.5165e-14 2869.85)
(10030.7 -109.543 3.06446e-14 2779.03 2.1207e-14 2956.09)
(8538.68 -2678.85 3.15259e-14 -1163.39 7.20459e-16 1701.99)
(8590.89 -2478.99 1.84044e-15 -899.462 2.74899e-16 1774.94)
(8627.9 -2301.77 -5.0509e-14 -663.082 -8.30607e-15 1838.03)
(8685.17 -2134.15 -1.3187e-13 -447.633 -1.71629e-14 1900.97)
(8758.21 -1976.05 4.41552e-14 -249.404 6.60232e-15 1963.57)
(8842.41 -1827.91 6.8015e-14 -65.3347 3.50626e-15 2025.48)
(8934.18 -1689.77 -3.2956e-14 107.397 -1.62572e-15 2086.52)
(9030.83 -1561.08 1.8562e-14 271.824 -3.26328e-15 2146.77)
(9130.1 -1440.98 7.28106e-14 430.577 1.61492e-14 2206.31)
(9230.26 -1328.22 -9.65142e-14 586.447 -5.8997e-15 2265.39)
(9329.75 -1221.39 -3.5458e-14 741.806 -2.77092e-15 2324.2)
(9427.44 -1118.84 1.42957e-13 899.255 5.23436e-15 2383.08)
(9522.2 -1018.81 -1.51165e-14 1061 -1.5779e-14 2442.28)
(9613.21 -919.321 -9.80896e-14 1229.59 -1.0504e-14 2502.19)
(9699.64 -818.194 -2.41247e-14 1407.29 -7.98741e-16 2563.14)
(9780.67 -712.649 -8.32751e-14 1596.87 -1.56276e-14 2625.59)
(9854.46 -599.036 -1.18657e-15 1800.79 -2.77334e-16 2689.67)
(9918.34 -471.271 1.04683e-13 2022.47 2.10629e-14 2755.57)
(9969.49 -320.687 2.57864e-14 2266.03 5.82263e-15 2823.58)
(10028.9 -130.359 4.6574e-15 2549.72 1.7613e-15 2902.76)
(9408.08 -2668.25 -3.3638e-14 -1504.08 -1.88309e-15 1824)
(9340.06 -2514.24 3.37824e-14 -1237.01 3.99943e-15 1869.94)
(9274.24 -2367.82 2.22283e-14 -981.667 7.67199e-15 1913.67)
(9239.75 -2222.91 -3.46905e-14 -746.34 -3.0294e-15 1960.02)
(9232.39 -2080.26 -3.52778e-14 -527.304 -1.28455e-14 2008.87)
(9246.16 -1941.93 1.67051e-14 -322.324 6.09612e-15 2059.35)
(9276.16 -1809.35 6.8172e-14 -130.049 1.44776e-14 2110.64)
(9318.84 -1682.96 -1.1335e-13 52.3738 -2.16957e-14 2162.59)
(9370.81 -1562.73 -6.95738e-14 226.661 -1.44889e-14 2214.8)
(9429.66 -1447.93 1.08213e-13 395.816 2.08255e-14 2267.42)
(9492.9 -1337.59 -2.55664e-14 561.539 -9.7544e-15 2320.26)
(9558.89 -1230.26 9.57208e-14 726.747 9.02308e-15 2373.61)
(9625.81 -1124.36 5.74498e-14 892.986 1.27743e-14 2427.41)
(9692.64 -1017.95 -8.37326e-14 1063.08 -7.26762e-15 2482.09)
(9757.84 -908.787 3.014e-14 1238.43 -3.33329e-15 2537.6)
(9820.45 -793.944 2.4658e-15 1421.96 6.22459e-16 2594.4)
(9878.71 -669.651 -1.1305e-13 1615.12 -2.40045e-14 2652.42)
(9930.5 -529.051 3.15963e-14 1821.14 6.87854e-15 2711.92)
(9972.52 -362.141 3.96423e-14 2042.11 1.03838e-14 2772.61)
(10026 -149.07 2.80622e-15 2297.09 1.4884e-15 2843.79)
(10274.2 -2484.85 2.71624e-15 -1763.75 6.58025e-16 1963.94)
(10090.8 -2400.44 -3.48039e-14 -1524.11 -5.51326e-15 1976.94)
(9931.36 -2302.58 -1.42639e-14 -1264.6 3.58442e-15 2000.02)
(9809.3 -2197.2 0 -1022.98 0 2027.61)
(9723.93 -2084.55 0 -790.74 0 2061.51)
(9667.43 -1969.29 -8.83246e-14 -572.165 -1.39253e-14 2098.91)
(9635.55 -1853.45 9.34157e-14 -363.506 7.76598e-15 2139.7)
(9622.92 -1739.38 1.8638e-13 -167.09 2.17235e-14 2182.12)
(9626.58 -1627.36 -1.49795e-13 21.8665 -1.18526e-14 2226.57)
(9642.3 -1517.97 -1.16764e-13 201.938 -1.57826e-14 2271.75)
(9668.04 -1410.36 6.29416e-14 378.275 6.14082e-15 2318.38)
(9700.47 -1303.9 1.55053e-14 549.511 -2.43452e-15 2365.38)
(9738.4 -1196.99 4.13503e-14 720.901 1.57548e-14 2413.69)
(9779.03 -1088.09 1.01369e-13 890.72 2.34509e-14 2462.25)
(9821.87 -974.952 3.34072e-15 1064.5 8.81236e-16 2512.24)
(9864.2 -854.736 -3.50805e-14 1240.06 5.12244e-15 2562.52)
(9905.59 -723.526 0 1423.41 0 2614.38)
(9942.41 -574.359 -2.03072e-14 1611.34 -7.01125e-15 2666.25)
(9974.62 -395.751 8.87393e-15 1811.24 2.82339e-15 2719.82)
(10021.5 -165.011 9.50996e-15 2025.21 6.42958e-15 2780.02)
(11099 -2140.76 -3.17697e-15 -1904.09 -8.97199e-16 2121.9)
(10816 -2137.51 2.58969e-14 -1718.75 1.09026e-14 2099.36)
(10574.4 -2102.36 -2.77832e-14 -1477.49 -1.08725e-14 2099.28)
(10373.1 -2050.25 -2.66003e-14 -1242.28 -1.01442e-14 2107.11)
(10214.1 -1982.04 8.51232e-14 -1011.66 2.35865e-14 2123.65)
(10091.2 -1902.26 5.16788e-14 -786.819 1.85889e-14 2147.17)
(9999.06 -1815.03 -7.41579e-14 -571.843 -1.95134e-14 2175.51)
(9932.89 -1723.06 -2.6446e-14 -365.158 7.93349e-15 2207.94)
(9888.3 -1628.35 1.94216e-14 -168.531 6.16232e-16 2243.02)
(9861.57 -1531.81 2.86303e-14 21.1448 -6.70315e-15 2280.63)
(9849.06 -1433.82 -5.66601e-14 202.833 -2.11281e-14 2319.67)
(9848.1 -1333.93 1.92012e-15 380.288 4.65265e-16 2360.4)
(9855.79 -1231.32 -7.44191e-14 552.346 -5.82482e-15 2401.88)
(9870.39 -1124.5 -2.95898e-15 723.123 -8.01304e-16 2444.66)
(9889.34 -1011.54 2.57211e-14 890.912 1.02573e-14 2487.75)
(9911.43 -889.595 -2.0662e-15 1060.41 -6.295e-16 2531.96)
(9933.96 -755.085 1.05289e-13 1229.47 2.08566e-14 2576.18)
(9956.12 -600.678 -1.02019e-14 1403.51 -3.84495e-15 2621.45)
(9979.96 -416.267 -1.28171e-13 1574.52 -3.85968e-14 2666.42)
(10019.2 -179.457 -2.3215e-14 1743.2 -2.2993e-14 2714.39)
(11868.1 -1643.9 -4.11921e-15 -1913.75 -3.13803e-15 2297.16)
(11509.6 -1721.99 -2.86993e-14 -1782.83 -1.48459e-14 2244.63)
(11185.9 -1767.05 3.72708e-14 -1581.05 9.89326e-15 2216.51)
(10907.6 -1785.01 -1.06386e-13 -1376.61 -1.73424e-14 2199.45)
(10677.8 -1776.3 -1.0169e-13 -1166.46 -1.98732e-14 2194.92)
(10491.4 -1745.76 6.87562e-14 -953.592 4.82436e-15 2201.02)
(10342 -1698.65 7.44911e-14 -743.746 2.08229e-15 2214.98)
(10225.1 -1638.92 9.17643e-14 -537.998 1.2555e-14 2235.47)
(10135 -1569.88 -7.56485e-14 -339.479 -1.70948e-14 2260.5)
(10068 -1493.59 4.94566e-16 -147.072 -9.43141e-16 2289.44)
(10019.4 -1411.28 -3.26074e-15 37.5749 2.19201e-15 2320.85)
(9986.66 -1323.44 -8.58628e-14 216.687 -1.19367e-14 2354.62)
(9965.89 -1229.64 0 389.004 0 2389.59)
(9955.46 -1129.12 -1.85887e-14 557.209 -1.54592e-14 2426)
(9952.18 -1019.91 -5.05645e-16 719.815 3.54271e-16 2462.77)
(9954.78 -899.608 -4.1425e-14 879.971 -1.75025e-14 2500.33)
(9960.15 -763.939 2.81791e-14 1036.04 6.72139e-15 2537.58)
(9970.61 -608.533 2.40934e-14 1191.35 9.94986e-15 2575.84)
(9985.78 -425.472 7.20835e-16 1334.86 3.4356e-16 2612.45)
(10015.4 -190.603 -7.14983e-15 1460.11 -6.97923e-15 2648.2)
(12469.7 -1186.63 4.78284e-14 -1874.42 1.42121e-14 2445.06)
(12060.1 -1319.82 -3.02836e-14 -1696.47 -1.70456e-14 2391.62)
(11656.5 -1440.21 -2.13547e-14 -1559.85 -5.4311e-15 2329.99)
(11328.4 -1513.26 2.71219e-14 -1392.6 1.45728e-14 2292.87)
(11055.4 -1549.67 -3.71341e-14 -1207.25 -3.34356e-14 2272.64)
(10827.8 -1557.94 -2.70084e-14 -1015.11 -2.12669e-14 2264.47)
(10639.9 -1543.77 -5.18202e-14 -818.87 -1.60682e-14 2266.39)
(10485.5 -1512.3 -7.03127e-15 -625.342 6.77905e-15 2275.43)
(10360.7 -1466.97 8.86235e-14 -434.217 3.41833e-14 2290.73)
(10260.5 -1410.61 -5.49754e-15 -249.874 -5.64164e-16 2310.14)
(10181.7 -1344.8 4.06966e-14 -70.1697 1.81452e-14 2333.44)
(10120.3 -1270.46 -4.18202e-15 101.507 -4.25998e-16 2358.88)
(10074.2 -1187.7 0 268.281 0 2386.72)
(10039.8 -1095.87 -1.50013e-14 426.742 -7.2136e-15 2415.36)
(10016.1 -993.602 1.41327e-14 580.506 6.72565e-15 2445.36)
(9999.59 -878.097 -1.7139e-15 725.599 -1.89131e-16 2475.04)
(9990.22 -746.217 -1.34495e-14 866.922 -4.21424e-16 2505.5)
(9985.86 -594.211 5.44254e-16 998.568 1.24788e-17 2534.87)
(9994.26 -418.076 -2.32532e-17 1118.44 -1.1217e-16 2564.47)
(10015.1 -197.596 -2.43775e-16 1209.76 -2.72269e-16 2590.35)
(12419.9 -859.717 3.93935e-14 -1683.7 1.58476e-14 2477.59)
(12158.2 -1014.22 0 -1619.96 0 2431.89)
(11812.6 -1162.02 -3.27497e-14 -1528.88 -8.37911e-15 2373.17)
(11508.4 -1267.99 5.92273e-28 -1390.34 1.67029e-28 2334.94)
(11243.7 -1335.05 5.27331e-29 -1227.16 7.32482e-29 2311.51)
(11015.7 -1370.63 4.17083e-28 -1050.61 1.95056e-28 2299.63)
(10820.7 -1381.15 5.11354e-28 -867.906 1.4635e-28 2296.79)
(10655.2 -1371.61 -2.89842e-14 -683.835 -4.71981e-15 2301.09)
(10515.9 -1345.79 0 -501.838 0 2310.93)
(10399.5 -1306.45 2.80138e-14 -324.056 4.3335e-15 2325.11)
(10303.2 -1255.46 -2.34541e-28 -152.063 -1.09471e-29 2342.57)
(10224.3 -1193.9 -2.7276e-14 13.2895 -4.41125e-15 2362.52)
(10160.3 -1122.11 2.69788e-14 171.205 4.61223e-15 2384.2)
(10109.3 -1039.79 2.67311e-28 321.268 8.35847e-29 2407.06)
(10069.5 -945.738 -2.6503e-14 462.659 -5.34194e-15 2430.49)
(10038.8 -837.334 -1.82078e-28 594.7 -4.11714e-29 2453.88)
(10015.8 -711.452 2.61562e-14 716.879 6.57695e-15 2476.77)
(10003.5 -567.384 2.60336e-14 828.999 7.40295e-15 2499.8)
(10001.4 -402.751 -1.37365e-28 922.522 -3.72225e-29 2520.9)
(10012.5 -199.263 -4.30083e-29 987.884 -4.6358e-29 2538.56)
(12403.6 -544.579 1.96063e-14 -1418.58 -2.86324e-15 2535.01)
(12202.8 -708.062 -1.48586e-14 -1417.29 -1.35525e-14 2488.96)
(11913.5 -872.276 -4.78052e-14 -1383.32 -2.20805e-14 2430.04)
(11640.1 -1003.43 0 -1291.4 0 2388.16)
(11389.8 -1098.25 1.67386e-14 -1164.3 -5.25643e-15 2359.72)
(11165.7 -1160.98 1.96325e-15 -1016.49 -1.70362e-14 2342.12)
(10967.9 -1196.88 -4.39831e-14 -856.941 -1.67892e-14 2333.3)
(10795 -1210.58 -5.67901e-14 -692.023 -2.62927e-14 2331.45)
(10645.1 -1205.74 2.88308e-14 -525.951 5.03442e-15 2335.19)
(10516.1 -1185.16 -2.61984e-14 -362.009 -1.87715e-14 2343.25)
(10405.9 -1150.78 -1.28146e-14 -202.327 -8.87134e-15 2354.66)
(10312.4 -1103.86 -2.51028e-14 -48.7745 -1.67734e-14 2368.53)
(10233.9 -1044.98 -2.46226e-14 97.4267 -1.58674e-14 2384.16)
(10168.8 -974.099 -1.20944e-14 234.885 -7.51471e-15 2400.85)
(10115.7 -890.285 -2.37976e-14 362.423 -1.42636e-14 2418.02)
(10073.1 -791.203 -2.34424e-14 478.401 -1.35763e-14 2434.96)
(10040.3 -674.209 -2.63298e-14 581.722 -6.87815e-15 2451.23)
(10016.6 -539.356 -1.13979e-14 670.01 -6.23162e-15 2466.15)
(10008.4 -387.109 -1.12402e-14 739.435 -6.03969e-15 2480.26)
(10012.7 -199.852 -4.39818e-15 779.908 -5.93518e-15 2490.61)
(12324.4 -287.306 1.48156e-13 -1193.5 5.94956e-14 2568.66)
(12165.1 -445.645 1.3174e-14 -1225.16 1.30096e-14 2524.59)
(11926.2 -612.121 -7.90372e-14 -1228.22 -3.11577e-14 2468.77)
(11690.1 -755.471 1.22396e-27 -1174.61 4.079e-28 2426.65)
(11464.1 -868.544 4.94184e-14 -1081.34 2.88994e-15 2396.02)
(11253.9 -951.96 0 -961.913 0 2375.08)
(11062.3 -1008.93 1.32741e-14 -826.287 1.10622e-14 2362.17)
(10890 -1043 -5.92181e-14 -681.508 -1.17232e-14 2355.81)
(10736.6 -1057.32 1.37835e-27 -532.833 3.67637e-28 2354.72)
(10601.2 -1054.42 5.72003e-14 -384.082 1.07775e-14 2357.8)
(10482.6 -1036.19 -1.25065e-14 -238.299 -9.02879e-15 2364.07)
(10379.5 -1003.94 -1.86734e-28 -97.7942 -3.38904e-29 2372.71)
(10290.8 -958.385 -1.13086e-27 35.3529 -2.2605e-28 2382.96)
(10215.3 -899.702 1.19657e-14 159.385 7.75345e-15 2394.16)
(10152.2 -827.255 -5.53894e-28 272.301 -1.25066e-28 2405.65)
(10100.3 -738.886 -5.33157e-14 372.058 -1.30691e-14 2416.7)
(10058.8 -632.267 4.31922e-28 456.564 1.41992e-28 2426.63)
(10030.5 -509.001 4.13182e-14 524.304 9.06725e-15 2435.73)
(10014.1 -370.034 -1.124e-14 569.428 -6.49803e-15 2442.36)
(10010 -198.575 -4.41547e-15 585.362 -6.45222e-15 2445.09)
(12202.4 -80.2043 2.24945e-14 -994.411 2.48472e-14 2586.45)
(12077 -229.585 4.47853e-14 -1046.19 2.25849e-14 2545.57)
(11879.7 -390.475 2.41497e-14 -1072.62 2.47479e-14 2493.94)
(11679.1 -536.245 1.70912e-28 -1047.88 1.55335e-29 2453.35)
(11480.5 -658.328 5.63364e-14 -983.452 3.15196e-14 2422.39)
(11289.6 -754.92 -1.83332e-14 -890.458 4.14416e-15 2399.8)
(11110.3 -827.172 -1.7774e-14 -778.199 4.21171e-15 2384.32)
(10944.6 -877.272 2.48887e-14 -653.968 2.1016e-14 2374.75)
(10793.4 -907.533 2.92245e-14 -523.415 6.05943e-15 2369.99)
(10656.9 -920.012 4.10029e-14 -390.947 1.54407e-14 2369.06)
(10534.7 -916.381 2.42594e-14 -260.099 1.82573e-14 2371.06)
(10426.4 -897.861 -1.59272e-14 -133.793 2.92914e-15 2375.21)
(10331.3 -865.21 -3.82041e-15 -14.5818 1.0743e-14 2380.78)
(10248.9 -818.757 1.17598e-14 95.1817 7.95169e-15 2387.1)
(10178.8 -758.067 5.02927e-14 193.087 2.16494e-14 2393.51)
(10120.5 -681.251 1.15248e-14 276.651 7.36454e-15 2399.33)
(10073.8 -586.351 5.90863e-30 343.402 1.62988e-30 2403.97)
(10037.9 -475.301 4.90578e-14 390.179 2.19833e-14 2406.48)
(10018.3 -350.642 2.23331e-14 414.056 1.38321e-14 2407.47)
(10010 -196.313 8.80833e-15 406.529 1.3859e-14 2403.82)