/*--------------------------------*- C++ -*----------------------------------*\
  =========                 |
  \\      /  F ield         | OpenFOAM: The Open Source CFD Toolbox
   \\    /   O peration     | Website:  https://openfoam.org
    \\  /    A nd           | Version:  9
     \\/     M anipulation  |
\*---------------------------------------------------------------------------*/
FoamFile
{
    format      ascii;
    class       volScalarField;
    location    "20";
    object      sigmayz;
}
// * * * * * * * * * * * * * * * * * * * * * * * * * * * * * * * * * * * * * //

dimensions      [1 -1 -2 0 0 0 0];

internalField   nonuniform List<scalar> 
1000
(
4.93444e-14
6.39987e-14
-1.6633e-14
-1.37659e-14
-2.06567e-14
3.26103e-15
-7.01934e-14
5.04181e-14
-1.99729e-14
0
1.79109e-14
0
5.34639e-14
-9.84806e-14
-4.48858e-14
4.19126e-14
3.58653e-14
8.43074e-14
0
0
0
0
5.34093e-14
7.57826e-15
5.27473e-17
-4.01605e-14
3.79333e-14
-3.18109e-14
-6.53098e-15
-1.37322e-14
6.62186e-15
-1.06073e-14
-2.53993e-14
3.8181e-15
4.35959e-14
-3.80498e-14
-3.42038e-14
-7.66033e-14
-6.78988e-15
1.24705e-14
2.21268e-15
7.32003e-17
-6.86324e-14
-2.1158e-16
-1.047e-15
3.24784e-14
-2.3546e-15
3.11714e-14
6.04273e-15
-1.91612e-14
1.12153e-14
-1.37359e-16
8.55089e-17
1.38578e-15
-3.40711e-14
2.1428e-16
2.78272e-14
5.90151e-14
1.12938e-14
-1.59158e-14
-1.07097e-14
1.05241e-14
1.64224e-14
-3.07071e-15
2.26286e-14
-2.008e-14
1.20796e-14
-2.03545e-14
-8.09673e-15
-1.6212e-14
-2.05353e-14
-2.33899e-14
4.46135e-16
8.23105e-15
3.5067e-14
-5.94593e-15
-2.71552e-16
-1.93241e-14
4.1414e-15
6.56832e-15
-1.96113e-14
-2.46737e-14
1.28275e-14
1.45788e-14
-8.28189e-15
4.57456e-15
7.07108e-15
1.84124e-14
4.23791e-15
-1.38302e-14
-2.76884e-14
-1.98786e-14
1.61381e-14
1.06693e-14
-3.79492e-16
-4.55046e-15
7.62278e-15
1.90483e-15
-9.04493e-15
-5.48102e-15
-5.13619e-14
4.23186e-15
-1.20735e-14
0
-1.28736e-15
-7.4327e-15
2.2962e-16
-5.53645e-15
2.36541e-15
7.25514e-15
-4.69903e-14
2.46372e-14
-1.56466e-14
-2.91303e-15
0
-8.6757e-15
6.60239e-16
-1.11603e-18
2.10657e-15
3.70345e-15
-2.80632e-14
2.95146e-14
1.21746e-14
-4.67517e-15
0
-1.08991e-14
-1.39085e-14
7.96372e-15
-1.0164e-18
-5.74097e-15
3.10966e-14
-1.44349e-14
1.35075e-14
0
-8.86192e-15
6.27633e-15
-1.28507e-15
1.10347e-15
4.8499e-15
8.82627e-15
7.04668e-16
1.23845e-14
-1.64081e-14
1.56385e-14
1.35502e-16
1.25926e-14
7.53058e-15
0
-3.16729e-15
5.22901e-15
-9.8964e-14
-3.6877e-14
-3.12284e-14
-8.31505e-15
2.472e-14
-1.62722e-14
1.03634e-17
-1.63136e-14
-2.0574e-18
-1.69381e-14
-4.00937e-14
-8.11984e-16
-7.43852e-16
-4.4055e-14
1.11146e-14
-2.60253e-14
4.58615e-14
-5.18366e-18
1.10575e-14
-1.38457e-14
-3.17924e-14
-3.92784e-14
1.44688e-14
-8.4793e-15
4.99386e-16
2.44753e-14
-1.39453e-15
-1.61453e-15
-2.1424e-15
6.29045e-15
6.18701e-14
8.75003e-14
-7.202e-16
3.44371e-14
3.87006e-14
3.38462e-14
1.12021e-15
-4.05227e-14
2.86407e-14
1.09478e-14
6.91489e-15
1.9143e-14
-2.72865e-14
7.07344e-14
-1.35458e-16
-3.73422e-14
-3.2426e-14
-1.46116e-14
7.07491e-15
9.8243e-16
2.27952e-15
4.95108e-15
2.68315e-15
3.22501e-17
-7.83058e-15
0
0
8.80466e-17
2.58778e-15
3.34911e-16
7.31356e-15
-2.31895e-15
6.47951e-15
-1.13907e-15
-1.2688e-15
1.87584e-18
-6.07181e-16
6.88597e-16
-1.11891e-15
-9.21531e-16
1.67005e-15
5.55419e-15
2.8656e-15
5.52208e-15
-2.75125e-15
-3.11965e-15
5.65167e-15
0
2.71609e-15
5.37035e-15
1.34669e-14
4.24385e-17
3.54607e-15
1.11781e-15
1.35329e-15
-1.53569e-15
-1.78933e-15
-4.12548e-15
-4.49297e-17
6.44036e-15
2.17197e-16
3.36302e-15
-2.57765e-16
-3.26202e-15
6.84726e-15
-3.91312e-15
-5.07211e-16
1.03984e-15
4.73067e-15
-1.86415e-15
1.9776e-15
3.79365e-15
7.37492e-17
-1.82323e-15
2.07266e-15
8.64434e-18
-2.90086e-15
2.39755e-15
1.84227e-15
1.93717e-18
0
4.11564e-15
5.27041e-16
7.49979e-16
0
3.18104e-15
-7.78841e-15
-1.65628e-15
-3.70175e-15
-4.04563e-15
-4.78321e-15
6.29165e-15
6.51555e-15
-2.29896e-16
5.46809e-16
-3.34157e-15
-1.22277e-17
1.23786e-14
-4.4926e-15
-1.77159e-14
-6.16324e-15
-5.31609e-15
-7.59347e-15
5.42132e-15
1.59051e-14
-1.17571e-15
0
1.22012e-15
-1.16784e-14
-5.5477e-15
3.71411e-15
-1.33366e-15
-2.6576e-15
6.0805e-15
2.86733e-15
-1.53216e-15
4.30136e-15
1.71701e-15
1.5165e-14
2.1207e-14
7.20459e-16
2.74899e-16
-8.30607e-15
-1.71629e-14
6.60232e-15
3.50626e-15
-1.62572e-15
-3.26328e-15
1.61492e-14
-5.8997e-15
-2.77092e-15
5.23436e-15
-1.5779e-14
-1.0504e-14
-7.98741e-16
-1.56276e-14
-2.77334e-16
2.10629e-14
5.82263e-15
1.7613e-15
-1.88309e-15
3.99943e-15
7.67199e-15
-3.0294e-15
-1.28455e-14
6.09612e-15
1.44776e-14
-2.16957e-14
-1.44889e-14
2.08255e-14
-9.7544e-15
9.02308e-15
1.27743e-14
-7.26762e-15
-3.33329e-15
6.22459e-16
-2.40045e-14
6.87854e-15
1.03838e-14
1.4884e-15
6.58025e-16
-5.51326e-15
3.58442e-15
0
0
-1.39253e-14
7.76598e-15
2.17235e-14
-1.18526e-14
-1.57826e-14
6.14082e-15
-2.43452e-15
1.57548e-14
2.34509e-14
8.81236e-16
5.12244e-15
0
-7.01125e-15
2.82339e-15
6.42958e-15
-8.97199e-16
1.09026e-14
-1.08725e-14
-1.01442e-14
2.35865e-14
1.85889e-14
-1.95134e-14
7.93349e-15
6.16232e-16
-6.70315e-15
-2.11281e-14
4.65265e-16
-5.82482e-15
-8.01304e-16
1.02573e-14
-6.295e-16
2.08566e-14
-3.84495e-15
-3.85968e-14
-2.2993e-14
-3.13803e-15
-1.48459e-14
9.89326e-15
-1.73424e-14
-1.98732e-14
4.82436e-15
2.08229e-15
1.2555e-14
-1.70948e-14
-9.43141e-16
2.19201e-15
-1.19367e-14
0
-1.54592e-14
3.54271e-16
-1.75025e-14
6.72139e-15
9.94986e-15
3.4356e-16
-6.97923e-15
1.42121e-14
-1.70456e-14
-5.4311e-15
1.45728e-14
-3.34356e-14
-2.12669e-14
-1.60682e-14
6.77905e-15
3.41833e-14
-5.64164e-16
1.81452e-14
-4.25998e-16
0
-7.2136e-15
6.72565e-15
-1.89131e-16
-4.21424e-16
1.24788e-17
-1.1217e-16
-2.72269e-16
1.58476e-14
0
-8.37911e-15
1.67029e-28
7.32482e-29
1.95056e-28
1.4635e-28
-4.71981e-15
0
4.3335e-15
-1.09471e-29
-4.41125e-15
4.61223e-15
8.35847e-29
-5.34194e-15
-4.11714e-29
6.57695e-15
7.40295e-15
-3.72225e-29
-4.6358e-29
-2.86324e-15
-1.35525e-14
-2.20805e-14
0
-5.25643e-15
-1.70362e-14
-1.67892e-14
-2.62927e-14
5.03442e-15
-1.87715e-14
-8.87134e-15
-1.67734e-14
-1.58674e-14
-7.51471e-15
-1.42636e-14
-1.35763e-14
-6.87815e-15
-6.23162e-15
-6.03969e-15
-5.93518e-15
5.94956e-14
1.30096e-14
-3.11577e-14
4.079e-28
2.88994e-15
0
1.10622e-14
-1.17232e-14
3.67637e-28
1.07775e-14
-9.02879e-15
-3.38904e-29
-2.2605e-28
7.75345e-15
-1.25066e-28
-1.30691e-14
1.41992e-28
9.06725e-15
-6.49803e-15
-6.45222e-15
2.48472e-14
2.25849e-14
2.47479e-14
1.55335e-29
3.15196e-14
4.14416e-15
4.21171e-15
2.1016e-14
6.05943e-15
1.54407e-14
1.82573e-14
2.92914e-15
1.0743e-14
7.95169e-15
2.16494e-14
7.36454e-15
1.62988e-30
2.19833e-14
1.38321e-14
1.3859e-14
-1.50613e-14
-1.19272e-14
-9.4797e-15
0
8.20917e-15
1.88443e-14
-1.79974e-14
-6.79529e-15
6.50108e-15
9.58157e-15
1.45626e-28
8.79045e-15
0
-8.10959e-15
0
7.59898e-15
-7.50258e-15
7.81497e-29
5.02015e-29
1.78142e-29
1.3202e-14
1.14192e-14
-9.53201e-15
2.72752e-28
2.66095e-29
1.09234e-14
1.06144e-14
-7.17607e-15
0
1.62263e-14
-2.21181e-28
2.31367e-15
6.55898e-15
8.22892e-15
-6.8915e-15
7.79668e-15
7.61909e-15
8.1257e-15
-5.2501e-29
-1.17947e-28
1.07926e-14
1.09447e-14
1.10025e-14
0
1.08329e-14
0
1.03819e-14
0
0
0
9.14231e-15
0
0
8.31244e-15
0
0
0
7.85166e-15
7.91834e-15
8.08746e-15
-2.24684e-14
0
-1.05855e-14
0
-1.0489e-14
-1.03366e-14
0
0
0
-9.35191e-15
-9.0768e-15
-8.81337e-15
0
0
0
-8.08532e-15
0
-8.05844e-15
-8.16609e-15
-8.37581e-15
-3.30028e-14
-1.01104e-14
-2.34296e-30
-8.92125e-30
8.88489e-15
-1.86157e-14
-1.81567e-14
0
7.77219e-15
-1.64557e-15
3.63479e-29
-1.61e-14
-7.29119e-15
-8.38669e-15
7.36625e-15
-8.17937e-15
5.78129e-29
7.99102e-15
5.85553e-29
-2.77422e-29
9.57901e-15
6.95943e-29
-9.41426e-15
0
8.9551e-15
8.69535e-15
-8.43877e-15
-8.19733e-15
7.98021e-15
-2.31277e-28
-1.2208e-28
-8.73429e-30
5.85743e-29
2.71608e-28
5.63097e-30
2.35245e-29
-7.67859e-15
-5.75256e-29
-1.14164e-28
-6.06491e-29
-3.08065e-14
-1.29804e-28
-6.65961e-29
6.53463e-29
9.0019e-15
-8.78698e-15
-8.56665e-15
0
8.15252e-15
7.97414e-15
-5.94546e-29
-7.69719e-15
-7.60277e-15
5.17907e-29
7.50958e-15
-1.67153e-30
1.68881e-30
7.71742e-15
-1.13361e-28
-6.17047e-29
-1.03065e-15
-9.14898e-15
-9.28624e-15
0
9.03055e-15
1.80892e-14
-1.78267e-14
-2.65954e-14
8.29312e-15
8.80652e-15
1.17591e-28
8.53905e-15
-1.6846e-14
-8.3336e-15
-1.6567e-14
8.28692e-15
-7.50509e-15
0
-5.18807e-29
0
9.89623e-15
8.89915e-15
-9.22249e-15
-9.91543e-31
1.30985e-29
9.00674e-15
2.64373e-14
-8.57358e-15
-1.6811e-14
1.69211e-14
-1.76823e-28
1.64054e-14
7.80821e-15
8.29439e-15
-7.55626e-15
-6.63199e-15
7.38393e-15
7.32764e-15
2.49083e-29
-2.47133e-29
-3.08962e-29
8.68172e-15
1.21516e-28
0
-1.20389e-28
-8.80502e-15
8.77071e-15
1.74331e-14
0
-8.56584e-15
-5.40997e-29
-8.39357e-15
1.66326e-14
8.25704e-15
1.64574e-14
-8.24796e-15
0
1.18187e-28
2.17291e-28
8.13713e-29
-8.89e-15
3.11148e-29
-6.00573e-29
1.46253e-30
9.04044e-15
-8.94751e-15
-8.83021e-15
0
8.55618e-15
8.4103e-15
-1.43016e-28
-8.10743e-15
-7.94474e-15
0
7.56535e-15
2.96358e-29
-1.12328e-28
6.85869e-15
-1.62802e-29
4.0893e-29
8.25359e-15
0
7.52495e-29
0
-1.73804e-29
-3.01294e-30
0
0
0
-8.69532e-29
2.71559e-29
-5.72463e-29
0
0
0
-5.63821e-29
0
1.73213e-28
5.97517e-29
6.3296e-29
-1.7143e-14
6.80439e-16
1.10618e-29
-2.7603e-29
8.99749e-15
-1.73259e-14
-1.72506e-14
0
8.62169e-15
1.18699e-16
-2.78396e-29
-1.65204e-14
-8.03566e-15
-8.2486e-15
7.59998e-15
-8.19693e-15
9.388e-30
6.4135e-15
-1.20294e-28
-2.02769e-30
5.91114e-16
-8.12207e-15
-7.44506e-16
0
1.72555e-14
8.91084e-15
-1.71881e-14
-8.73753e-15
8.62788e-15
-1.73785e-28
8.35845e-15
-1.82726e-30
-5.71765e-29
-8.30213e-15
-5.68816e-29
2.2116e-29
-6.92654e-15
8.22093e-15
8.3655e-15
8.98286e-15
-5.77621e-15
-3.51396e-15
-3.5742e-15
0
3.6249e-15
3.62507e-15
-3.6141e-15
-3.59528e-15
3.571e-15
-3.88609e-29
2.4166e-29
8.76455e-30
1.90773e-29
4.23427e-29
1.9079e-29
4.13052e-29
-3.09909e-15
0
0
0
1.36717e-14
1.05752e-14
-3.90525e-15
1.62513e-15
-1.163e-14
-6.02253e-15
3.62823e-14
-1.04128e-14
-1.41335e-14
0
6.51911e-15
2.79892e-14
2.70789e-14
3.76593e-14
-1.25173e-14
-1.95345e-14
-4.25392e-14
4.22305e-14
-1.6662e-14
1.4985e-14
-1.38466e-14
-2.1004e-14
-1.79908e-14
2.13801e-14
2.74689e-14
1.98871e-14
-4.76552e-15
-5.84796e-15
-1.61239e-15
1.77289e-14
-1.35282e-48
-4.9077e-15
-2.62977e-14
-3.56219e-14
1.95138e-14
-2.0918e-14
2.24189e-14
2.62402e-14
-2.39768e-15
2.99035e-14
6.79927e-16
1.85402e-14
0
-1.59978e-14
-7.31742e-15
1.19462e-14
-2.57378e-14
-2.81847e-14
-1.52234e-14
-5.51305e-14
-1.28873e-15
1.1457e-14
2.06079e-14
-5.81826e-15
-1.75167e-14
2.2958e-14
1.04099e-14
-2.09391e-15
3.90285e-14
-1.33211e-14
-1.12403e-48
-2.61357e-14
1.31397e-14
5.09668e-15
-2.10468e-14
-6.40512e-15
1.63482e-14
-1.12924e-14
2.8344e-14
4.96927e-14
-8.207e-15
-9.22904e-15
2.84686e-16
9.48433e-15
-2.69013e-14
-1.3977e-14
-8.32757e-16
-3.11912e-14
-5.66291e-14
1.2129e-14
1.81378e-14
2.55774e-14
-3.25003e-15
1.47808e-14
1.91802e-14
-3.1952e-14
4.21869e-14
-3.86665e-15
-5.88202e-14
-6.80866e-14
2.81553e-14
3.24658e-14
-1.65617e-16
-9.70838e-15
5.30344e-14
1.95275e-14
1.91931e-14
5.57753e-14
3.24754e-14
-1.21998e-14
-4.79483e-14
-2.33143e-14
-4.22761e-15
-2.93476e-15
-3.11749e-14
4.54378e-14
1.49891e-14
3.1962e-14
3.16422e-14
2.68373e-16
-2.07132e-14
-3.29162e-14
-3.0401e-15
-3.96204e-15
-4.17786e-14
-1.23499e-14
5.31902e-15
6.26231e-15
2.01985e-14
-2.02334e-16
3.0463e-14
1.15679e-14
7.18093e-15
2.58829e-16
-2.10416e-14
-1.9352e-14
-1.00385e-14
-5.04821e-17
-5.23772e-17
1.86829e-14
-6.19518e-49
1.01661e-14
1.02165e-14
3.88787e-15
9.95862e-15
2.92521e-16
9.68402e-15
-7.63316e-15
-1.93904e-14
1.92742e-14
-5.47563e-49
0
-3.07376e-14
0
-3.00086e-14
2.10858e-14
2.98162e-14
1.32673e-14
-1.01228e-14
-3.68328e-14
-1.02689e-14
4.53178e-15
2.00465e-14
5.33075e-16
-9.94725e-15
-3.55404e-14
3.88998e-14
9.30065e-15
2.88119e-14
8.85703e-15
-3.84569e-16
-4.24057e-15
3.12503e-14
-2.41996e-14
3.06416e-14
-3.0871e-14
6.40954e-16
2.33317e-14
-9.32259e-15
-8.94478e-15
3.70803e-17
2.04861e-14
-4.41987e-14
-1.06387e-14
-1.21691e-14
0
-1.96331e-14
6.88074e-15
1.51266e-14
-9.42052e-15
1.93282e-14
-7.31817e-15
6.33153e-15
2.10186e-14
-1.39206e-14
-9.88956e-15
0
-9.47947e-15
9.16142e-15
-6.97988e-17
9.78116e-15
-8.50021e-15
8.63511e-15
4.34313e-15
-1.66079e-15
-4.96983e-15
5.65257e-17
-3.08955e-15
2.84485e-15
-3.06792e-15
)
;

boundaryField
{
    left
    {
        type            symmetryPlane;
    }
    right
    {
        type            calculated;
        value           nonuniform List<scalar> 
30
(
-9.21531e-16
6.44036e-15
1.93717e-18
-1.77159e-14
2.1207e-14
1.7613e-15
1.4884e-15
6.42958e-15
-2.2993e-14
-6.97923e-15
-2.72269e-16
-4.6358e-29
-5.93518e-15
-6.45222e-15
1.3859e-14
1.78142e-29
-1.17947e-28
8.08746e-15
-8.37581e-15
-2.77422e-29
-6.06491e-29
-6.17047e-29
0
-2.47133e-29
8.13713e-29
4.0893e-29
6.3296e-29
-2.02769e-30
8.98286e-15
0
)
;
    }
    down
    {
        type            symmetryPlane;
    }
    up
    {
        type            calculated;
        value           nonuniform List<scalar> 
30
(
-8.43189e-16
1.11342e-15
-1.0446e-15
8.84986e-18
5.88486e-16
-2.19752e-16
1.24e-17
1.52904e-16
6.91786e-16
9.05906e-16
-6.81525e-16
-8.96408e-16
-9.27711e-16
0
9.79758e-16
9.99844e-16
-1.01681e-15
-1.0318e-15
1.04594e-15
-1.46103e-29
7.40297e-30
-3.40406e-31
-1.63305e-31
7.63928e-30
-9.45201e-32
7.94531e-30
-1.16718e-15
0
0
0
)
;
    }
    hole
    {
        type            calculated;
        value           nonuniform List<scalar> 
20
(
5.24546e-14
5.58258e-14
0
2.30887e-14
1.52303e-14
3.34082e-14
-3.71354e-14
-4.92309e-14
-1.87477e-14
-8.19603e-15
-5.14594e-14
-4.5904e-14
-2.62067e-14
2.43168e-14
1.04127e-14
-7.48211e-14
-4.11336e-14
-7.08918e-14
1.7914e-14
7.18463e-15
)
;
    }
    frontAndBack
    {
        type            empty;
    }
}


// ************************************************************************* //
