/*--------------------------------*- C++ -*----------------------------------*\
  =========                 |
  \\      /  F ield         | OpenFOAM: The Open Source CFD Toolbox
   \\    /   O peration     | Website:  https://openfoam.org
    \\  /    A nd           | Version:  9
     \\/     M anipulation  |
\*---------------------------------------------------------------------------*/
FoamFile
{
    format      ascii;
    class       volScalarField;
    location    "20";
    object      sigmaxz;
}
// * * * * * * * * * * * * * * * * * * * * * * * * * * * * * * * * * * * * * //

dimensions      [1 -1 -2 0 0 0 0];

internalField   nonuniform List<scalar> 
1000
(
-5.97622e-14
-9.34802e-14
1.18364e-13
1.64598e-14
-1.06233e-13
3.14752e-15
-1.35355e-13
7.84016e-14
-8.98363e-14
0
-1.10443e-13
0
1.18837e-13
-2.04917e-13
-8.88857e-14
8.02127e-14
6.99971e-14
1.42751e-13
0
0
0
0
1.16314e-13
-1.90464e-14
-1.18783e-16
-7.77414e-14
6.13078e-14
-6.2167e-14
1.82881e-14
-7.75158e-15
-6.73673e-14
5.02709e-14
-5.68616e-14
-1.80468e-14
7.75456e-14
-7.55091e-14
-6.7e-14
-1.50645e-13
-4.36881e-14
4.40199e-14
-4.40639e-14
-1.31818e-15
-1.74013e-13
8.54691e-15
-8.55894e-15
7.2143e-14
2.71114e-15
5.35258e-14
-6.22612e-14
-4.10147e-14
-1.3045e-13
-1.16916e-15
6.96467e-16
7.65641e-15
-8.09541e-14
7.09441e-17
6.27318e-14
1.45096e-13
2.54916e-14
-5.41564e-14
1.48964e-13
3.16053e-14
5.60254e-14
-7.03924e-15
7.18623e-14
-6.72897e-14
-5.75221e-15
-5.47394e-14
9.06671e-15
-2.47499e-14
2.71151e-13
-1.38207e-13
6.64219e-16
1.01172e-14
1.48639e-13
-1.04282e-15
8.0682e-17
-5.05951e-14
-3.21175e-15
1.30675e-15
1.61677e-13
-1.46828e-13
9.71301e-15
9.28603e-15
-3.32363e-15
6.46269e-14
-1.15631e-15
1.03847e-13
2.35822e-14
1.98867e-14
1.73457e-13
-4.82397e-15
5.75764e-14
2.15658e-15
-4.92607e-17
6.41766e-14
-3.87673e-16
5.1205e-14
1.35554e-15
-1.71431e-16
5.33475e-15
7.19455e-15
-6.5349e-15
0
-1.43813e-14
-3.73651e-15
2.39928e-14
1.14608e-14
1.97585e-14
5.37204e-15
-4.69717e-15
1.60535e-14
-1.54081e-14
-4.46798e-15
0
-1.75676e-14
2.45126e-14
1.05261e-16
-7.25551e-14
7.83184e-15
-5.35965e-15
2.33804e-14
2.07242e-14
-3.63682e-15
0
-3.07488e-14
-4.16087e-14
3.8776e-14
2.11432e-17
-3.98445e-14
2.02924e-14
1.34547e-15
2.84899e-14
0
-3.58513e-14
2.49407e-14
-2.14624e-14
-4.14177e-14
1.4829e-14
2.83446e-14
-3.79343e-14
-4.70349e-14
-3.54569e-14
2.21823e-15
1.21597e-16
3.66263e-14
2.17561e-14
0
-5.2513e-14
1.50668e-14
-2.5946e-14
1.46367e-14
-3.76153e-14
5.40763e-16
6.67341e-14
-4.71197e-14
1.2308e-16
-6.06983e-14
1.88883e-17
-4.81187e-14
2.22576e-14
4.44179e-16
3.53318e-16
-8.17123e-14
3.4858e-15
-6.69193e-14
1.20169e-13
8.4155e-17
9.89866e-15
-3.636e-14
1.15341e-13
2.79509e-14
-9.29893e-15
3.70389e-15
4.11269e-17
6.30764e-14
-1.55971e-14
2.09262e-14
1.43427e-14
4.03754e-14
5.26991e-14
7.39642e-15
6.00704e-16
1.02321e-13
8.53902e-14
7.57582e-14
1.49936e-14
-9.20937e-14
2.97467e-14
2.49026e-14
-6.92926e-15
-2.18545e-14
-5.55803e-14
2.19895e-13
5.46459e-17
-7.85448e-14
-5.15006e-14
-3.3006e-14
-3.61633e-14
6.71563e-14
4.9184e-14
3.43715e-15
-7.89647e-14
-2.81486e-14
-4.28078e-15
0
0
3.18386e-14
1.28428e-15
6.60861e-14
3.47538e-15
-1.33381e-15
3.08014e-15
-1.04137e-13
3.39888e-14
1.25158e-16
-3.49312e-14
3.46747e-14
-6.73779e-14
-3.40592e-14
7.86979e-14
9.6684e-15
-2.30366e-14
9.53328e-14
-1.79755e-15
-9.59306e-14
8.27017e-15
0
2.96014e-15
6.97632e-15
4.80795e-14
7.1389e-16
-3.0104e-14
3.44566e-14
3.51432e-14
-3.46812e-14
-3.4788e-14
-6.90955e-14
-6.12038e-16
2.05485e-14
2.65371e-14
9.45418e-15
-8.57492e-14
1.90112e-14
1.04374e-13
-9.89886e-14
-3.37497e-14
6.44938e-14
-5.30887e-14
-6.79434e-14
6.5447e-14
1.00883e-13
7.26583e-16
-3.43351e-14
3.38754e-14
1.19551e-16
-3.44914e-14
3.08185e-14
1.87516e-14
2.40544e-17
0
1.16986e-14
3.01336e-14
3.43217e-14
0
-2.15031e-14
-4.89557e-14
-6.47073e-14
-1.06841e-14
5.21252e-14
1.98441e-14
1.51723e-14
-1.43356e-14
2.74959e-14
2.86264e-14
-3.39526e-14
-1.06744e-16
9.70174e-14
-2.86214e-14
-3.60912e-14
3.83918e-14
-1.64228e-14
-7.92141e-14
4.17717e-14
1.05771e-13
-3.37639e-14
0
3.25571e-14
-2.90269e-14
-4.33138e-14
-4.65826e-14
-6.00909e-14
7.21006e-14
9.2867e-14
7.6367e-15
-2.62066e-14
1.3222e-14
6.25307e-15
7.67123e-14
3.06446e-14
3.15259e-14
1.84044e-15
-5.0509e-14
-1.3187e-13
4.41552e-14
6.8015e-14
-3.2956e-14
1.8562e-14
7.28106e-14
-9.65142e-14
-3.5458e-14
1.42957e-13
-1.51165e-14
-9.80896e-14
-2.41247e-14
-8.32751e-14
-1.18657e-15
1.04683e-13
2.57864e-14
4.6574e-15
-3.3638e-14
3.37824e-14
2.22283e-14
-3.46905e-14
-3.52778e-14
1.67051e-14
6.8172e-14
-1.1335e-13
-6.95738e-14
1.08213e-13
-2.55664e-14
9.57208e-14
5.74498e-14
-8.37326e-14
3.014e-14
2.4658e-15
-1.1305e-13
3.15963e-14
3.96423e-14
2.80622e-15
2.71624e-15
-3.48039e-14
-1.42639e-14
0
0
-8.83246e-14
9.34157e-14
1.8638e-13
-1.49795e-13
-1.16764e-13
6.29416e-14
1.55053e-14
4.13503e-14
1.01369e-13
3.34072e-15
-3.50805e-14
0
-2.03072e-14
8.87393e-15
9.50996e-15
-3.17697e-15
2.58969e-14
-2.77832e-14
-2.66003e-14
8.51232e-14
5.16788e-14
-7.41579e-14
-2.6446e-14
1.94216e-14
2.86303e-14
-5.66601e-14
1.92012e-15
-7.44191e-14
-2.95898e-15
2.57211e-14
-2.0662e-15
1.05289e-13
-1.02019e-14
-1.28171e-13
-2.3215e-14
-4.11921e-15
-2.86993e-14
3.72708e-14
-1.06386e-13
-1.0169e-13
6.87562e-14
7.44911e-14
9.17643e-14
-7.56485e-14
4.94566e-16
-3.26074e-15
-8.58628e-14
0
-1.85887e-14
-5.05645e-16
-4.1425e-14
2.81791e-14
2.40934e-14
7.20835e-16
-7.14983e-15
4.78284e-14
-3.02836e-14
-2.13547e-14
2.71219e-14
-3.71341e-14
-2.70084e-14
-5.18202e-14
-7.03127e-15
8.86235e-14
-5.49754e-15
4.06966e-14
-4.18202e-15
0
-1.50013e-14
1.41327e-14
-1.7139e-15
-1.34495e-14
5.44254e-16
-2.32532e-17
-2.43775e-16
3.93935e-14
0
-3.27497e-14
5.92273e-28
5.27331e-29
4.17083e-28
5.11354e-28
-2.89842e-14
0
2.80138e-14
-2.34541e-28
-2.7276e-14
2.69788e-14
2.67311e-28
-2.6503e-14
-1.82078e-28
2.61562e-14
2.60336e-14
-1.37365e-28
-4.30083e-29
1.96063e-14
-1.48586e-14
-4.78052e-14
0
1.67386e-14
1.96325e-15
-4.39831e-14
-5.67901e-14
2.88308e-14
-2.61984e-14
-1.28146e-14
-2.51028e-14
-2.46226e-14
-1.20944e-14
-2.37976e-14
-2.34424e-14
-2.63298e-14
-1.13979e-14
-1.12402e-14
-4.39818e-15
1.48156e-13
1.3174e-14
-7.90372e-14
1.22396e-27
4.94184e-14
0
1.32741e-14
-5.92181e-14
1.37835e-27
5.72003e-14
-1.25065e-14
-1.86734e-28
-1.13086e-27
1.19657e-14
-5.53894e-28
-5.33157e-14
4.31922e-28
4.13182e-14
-1.124e-14
-4.41547e-15
2.24945e-14
4.47853e-14
2.41497e-14
1.70912e-28
5.63364e-14
-1.83332e-14
-1.7774e-14
2.48887e-14
2.92245e-14
4.10029e-14
2.42594e-14
-1.59272e-14
-3.82041e-15
1.17598e-14
5.02927e-14
1.15248e-14
5.90863e-30
4.90578e-14
2.23331e-14
8.80833e-15
-1.19832e-14
-1.04724e-14
-3.22121e-14
0
3.12681e-14
4.24012e-14
-4.19867e-14
-2.97525e-14
2.92761e-14
1.1752e-14
2.56482e-28
1.16393e-14
0
-1.14878e-14
0
1.13182e-14
-2.67138e-14
1.67945e-28
7.58764e-29
-1.86815e-31
3.38485e-14
9.41801e-15
-3.17982e-14
6.50339e-28
-2.09617e-28
1.08324e-14
1.10054e-14
-2.9689e-14
0
4.00652e-14
-7.62076e-28
-1.68383e-14
2.77353e-14
1.11622e-14
-2.71802e-14
1.10519e-14
2.67993e-14
2.66806e-14
-7.44516e-29
-9.04353e-29
7.96952e-15
8.53043e-15
9.02362e-15
0
9.80373e-15
0
1.03211e-14
0
0
0
1.07663e-14
0
0
1.07961e-14
0
0
0
1.06288e-14
1.05558e-14
4.22868e-15
-3.9237e-14
0
-8.28932e-15
0
-9.10884e-15
-9.42931e-15
0
0
0
-1.01961e-14
-1.02866e-14
-1.03479e-14
0
0
0
-1.03852e-14
0
-1.03107e-14
-1.02525e-14
-4.13615e-15
-9.28585e-14
-7.18646e-15
7.31894e-29
1.45634e-28
3.0018e-14
-3.86086e-14
-3.86117e-14
0
2.88752e-14
1.88624e-14
-2.95039e-29
-3.78677e-14
-2.76969e-14
-9.99001e-15
2.7238e-14
-1.00059e-14
7.46142e-29
2.68619e-14
6.93637e-29
-2.9823e-29
3.00079e-14
-1.10857e-28
-2.99474e-14
0
2.96524e-14
2.94483e-14
-2.9216e-14
-2.89631e-14
2.86971e-14
-5.15113e-28
-1.33094e-28
1.23914e-28
6.54399e-29
7.0294e-28
-1.21456e-28
1.53298e-28
-2.69527e-14
-6.5998e-29
-2.50493e-28
-2.69998e-29
-8.87077e-14
-1.66885e-28
-5.00272e-29
2.09007e-28
2.92914e-14
-2.91332e-14
-2.89466e-14
0
2.85131e-14
2.82789e-14
-6.05527e-29
-2.78079e-14
-2.75846e-14
1.88088e-28
2.72007e-14
-6.00777e-30
5.98526e-30
2.69098e-14
-2.48099e-28
-2.61979e-29
1.29608e-16
-6.07343e-15
-2.90723e-14
0
2.89431e-14
3.64083e-14
-3.65402e-14
-4.46953e-14
2.83336e-14
8.43355e-15
1.11523e-28
8.63816e-15
-1.73978e-14
-8.73905e-15
-1.75282e-14
8.77896e-15
-2.69543e-14
0
-1.85053e-28
0
2.81991e-14
5.91449e-15
-2.86693e-14
1.44934e-28
1.13201e-28
7.32245e-15
6.44538e-14
-2.8313e-14
-5.63363e-14
3.61068e-14
-1.68924e-28
3.59282e-14
2.74837e-14
8.33424e-15
-2.71607e-14
-4.57194e-14
2.69463e-14
2.69169e-14
9.25587e-29
-3.09234e-29
-9.66373e-29
5.85612e-15
8.6464e-29
0
-9.39106e-29
-7.14338e-15
7.36956e-15
1.51108e-14
0
-7.81041e-15
-3.27187e-28
-7.9267e-15
1.58856e-14
7.93879e-15
1.58449e-14
-7.90321e-15
0
1.09458e-28
4.79762e-28
-1.46114e-29
-2.7738e-14
9.59141e-29
2.48774e-29
1.41632e-28
2.80431e-14
-2.80476e-14
-2.80264e-14
0
2.79132e-14
2.78256e-14
-3.38031e-28
-2.76017e-14
-2.74716e-14
0
2.71963e-14
-4.7936e-29
-9.5601e-29
2.69155e-14
1.33549e-28
-8.99075e-30
5.72032e-15
0
9.26797e-29
0
-4.92897e-29
-1.42998e-28
0
0
0
-1.46279e-28
-4.59892e-29
-5.06373e-29
0
0
0
-4.80687e-29
0
5.10813e-28
4.66036e-29
2.09629e-29
-5.13755e-14
2.08626e-14
3.57576e-29
-2.04112e-29
2.76366e-14
-3.48464e-14
-3.49923e-14
0
2.78079e-14
2.0503e-14
4.62473e-29
-3.48665e-14
-2.76185e-14
-6.93801e-15
2.74226e-14
-6.58131e-15
-1.40117e-28
2.70163e-14
-8.53182e-29
-6.16453e-31
2.01245e-14
-6.87918e-15
-2.01136e-14
0
3.48328e-14
2.76404e-14
-3.51266e-14
-2.77913e-14
2.78256e-14
-5.68644e-28
7.2187e-15
-6.17283e-30
-4.78598e-29
-6.79193e-15
-4.51887e-29
1.67911e-28
-2.74253e-14
5.60391e-15
5.18075e-15
2.2998e-15
-3.19396e-14
-2.67864e-14
-2.70549e-14
0
2.74812e-14
2.76361e-14
-2.77546e-14
-2.78402e-14
2.78972e-14
-3.55948e-28
1.92351e-28
1.82996e-29
4.78153e-29
2.38563e-28
4.47038e-29
2.34576e-28
-2.78665e-14
0
0
0
4.43289e-14
-4.84971e-15
-4.16765e-14
6.84793e-15
-1.00601e-14
3.05505e-14
4.46135e-14
-1.54539e-14
-2.85392e-14
0
9.88052e-16
5.01408e-14
5.17687e-14
4.39286e-14
-1.03465e-14
-6.17213e-14
-3.83642e-14
6.91336e-14
-1.74852e-14
3.54101e-14
-1.73071e-15
-4.57388e-14
-4.53003e-14
6.53952e-14
5.16101e-14
6.37726e-14
-5.85783e-15
-4.91584e-14
-2.07206e-15
3.42698e-15
-5.35733e-47
1.76453e-14
-1.22148e-14
-3.74999e-14
2.97263e-14
-4.86775e-14
-3.02248e-14
5.41247e-14
-3.34919e-15
7.94577e-14
1.94002e-14
2.3705e-14
0
-2.60999e-14
-2.1375e-14
7.81243e-15
-1.82628e-14
-4.40987e-15
-1.30735e-14
-6.40126e-14
-3.84373e-14
2.19921e-14
6.22759e-14
-2.08721e-14
-2.68379e-14
1.38661e-14
2.4477e-14
1.55189e-14
2.9409e-14
-3.26718e-14
-5.12756e-47
-5.43018e-15
2.29103e-14
2.00732e-14
-6.49063e-14
-1.98012e-14
6.29155e-14
-4.48219e-14
3.94847e-15
9.56538e-14
1.83376e-14
-1.95892e-15
4.08023e-16
3.30164e-15
-3.0382e-14
1.09008e-14
-1.22304e-15
-7.48368e-14
-3.5671e-14
4.59004e-14
1.10333e-15
-1.41464e-14
-1.91779e-14
6.09113e-14
6.85863e-15
-6.96044e-14
4.20275e-14
5.41201e-14
-3.90002e-14
-1.06423e-13
1.62621e-15
4.27085e-14
5.48854e-14
-4.08589e-14
2.43793e-14
7.43662e-15
5.03968e-14
1.24092e-13
1.96041e-14
-5.40178e-14
-2.67555e-15
5.16532e-14
3.48076e-14
-5.58776e-14
-4.88374e-14
5.88563e-14
4.42001e-14
1.77503e-14
1.85276e-14
1.63557e-16
-3.78174e-14
-4.16374e-14
-1.91383e-14
-1.92716e-14
-5.41044e-14
-4.17513e-14
4.0799e-14
4.07545e-14
7.25423e-14
1.38182e-14
1.98607e-14
1.98937e-14
-1.63785e-14
5.29162e-16
-4.59646e-14
-7.06897e-15
4.94352e-14
-2.76338e-17
-3.00139e-17
-1.18912e-14
-4.68525e-47
1.65643e-15
2.67184e-15
1.94633e-14
3.63788e-15
7.86967e-16
4.29586e-15
-2.27747e-14
-1.12344e-14
3.41551e-14
-4.61429e-47
0
-8.26904e-15
0
-4.90239e-14
1.16134e-14
7.04443e-14
6.42631e-14
-2.7828e-14
-8.19118e-14
-6.10005e-16
5.38378e-14
4.78857e-15
1.34982e-15
-4.1473e-14
-6.92952e-14
7.54645e-14
4.79415e-15
1.87648e-14
2.51076e-14
-1.74424e-14
-5.29435e-14
9.82901e-15
2.44389e-14
1.47775e-14
-5.21132e-14
1.61217e-15
5.0147e-14
-6.15421e-15
-6.00785e-15
2.48016e-18
4.08008e-15
3.69787e-14
-5.56616e-15
-5.61803e-14
0
-1.28527e-14
2.24806e-14
4.67838e-14
-2.96606e-14
-4.91795e-14
3.23857e-14
5.12858e-14
-3.89023e-14
-2.42636e-14
-6.61551e-15
0
-7.33679e-15
7.33417e-15
-5.66243e-17
5.13783e-14
2.57476e-14
-4.82075e-15
2.29393e-14
1.14476e-14
-2.64173e-14
5.01498e-16
-8.70685e-15
2.31644e-14
4.24358e-15
)
;

boundaryField
{
    left
    {
        type            symmetryPlane;
    }
    right
    {
        type            calculated;
        value           nonuniform List<scalar> 
30
(
8.67281e-16
-9.20654e-16
1.79439e-18
2.36509e-16
-1.06207e-15
8.76549e-16
5.32227e-16
1.84144e-15
-4.67149e-16
-1.50338e-15
-7.60323e-17
4.4044e-30
-1.05664e-15
-1.07611e-15
2.17678e-15
7.71216e-30
-7.31223e-30
1.10804e-15
-1.11354e-15
3.21691e-31
-7.75803e-30
-7.81688e-30
0
2.08457e-32
1.61973e-29
7.94084e-30
8.0612e-30
-2.52892e-31
1.01992e-15
0
)
;
    }
    down
    {
        type            symmetryPlane;
    }
    up
    {
        type            calculated;
        value           nonuniform List<scalar> 
30
(
5.13783e-14
2.57476e-14
-4.82075e-15
2.29393e-14
1.14476e-14
-2.64173e-14
5.01498e-16
-8.70685e-15
2.31644e-14
4.24358e-15
-3.19396e-14
-2.67864e-14
-2.70549e-14
0
2.74812e-14
2.76361e-14
-2.77546e-14
-2.78402e-14
2.78972e-14
-3.55948e-28
1.92351e-28
1.82996e-29
4.78153e-29
2.38563e-28
4.47038e-29
2.34576e-28
-2.78665e-14
0
0
0
)
;
    }
    hole
    {
        type            calculated;
        value           nonuniform List<scalar> 
20
(
-5.68872e-14
-8.05537e-14
0
-5.9441e-14
-3.80626e-14
-1.23183e-13
1.41511e-13
2.65443e-13
1.61779e-13
1.74223e-13
2.85498e-15
4.48026e-15
3.9732e-15
-3.74665e-15
-9.07964e-15
2.64237e-14
2.27893e-14
5.68247e-14
-3.05893e-15
-6.63747e-15
)
;
    }
    frontAndBack
    {
        type            empty;
    }
}


// ************************************************************************* //
