/*--------------------------------*- C++ -*----------------------------------*\
  =========                 |
  \\      /  F ield         | OpenFOAM: The Open Source CFD Toolbox
   \\    /   O peration     | Website:  https://openfoam.org
    \\  /    A nd           | Version:  9
     \\/     M anipulation  |
\*---------------------------------------------------------------------------*/
FoamFile
{
    format      ascii;
    class       volScalarField;
    location    "50";
    object      ddt0(h);
}
// * * * * * * * * * * * * * * * * * * * * * * * * * * * * * * * * * * * * * //

dimensions      [0 1 -1 0 0 0 0];

internalField   nonuniform List<scalar> 
400
(
-4.43499e-08
-1.51627e-08
-2.58083e-08
-3.51241e-08
-1.12256e-08
-9.97628e-09
1.8285e-08
1.43293e-08
3.78428e-08
3.78561e-08
6.53557e-08
8.12075e-08
8.13158e-08
7.52858e-08
4.02682e-08
2.5812e-08
2.06618e-08
2.09571e-08
2.00097e-08
9.29995e-09
-2.9346e-08
-3.13241e-08
-3.16883e-08
-1.06238e-08
-1.48964e-08
-7.20754e-09
8.85479e-09
2.00292e-08
2.20793e-08
5.12303e-08
5.14649e-08
7.48452e-08
7.10424e-08
5.99466e-08
5.28443e-08
3.05354e-08
1.4833e-08
6.90554e-09
2.14429e-09
-2.3389e-09
-3.31814e-08
-4.98533e-08
-2.1405e-08
1.96256e-09
-2.40083e-08
-1.62804e-09
-3.76979e-09
1.6215e-08
1.64746e-08
3.85091e-08
6.33602e-08
3.7743e-08
6.52995e-08
4.90053e-08
4.7024e-08
3.56568e-08
1.51756e-08
-1.26341e-09
-1.81848e-08
-1.23025e-08
-3.50966e-08
-4.27589e-08
-1.87887e-08
-2.22585e-08
-2.42429e-08
-1.2895e-08
-6.21712e-09
-1.28278e-08
4.59731e-08
1.56264e-08
5.84638e-08
7.2869e-08
1.9044e-08
5.79688e-08
4.80644e-08
2.93829e-08
1.76882e-08
5.88855e-09
-5.48684e-09
-3.25714e-09
-2.35056e-08
-2.73787e-08
-3.16837e-08
-4.85345e-08
-4.4507e-08
-2.01703e-08
-4.26388e-08
3.10979e-08
-2.08004e-08
1.43416e-07
-1.02942e-07
8.80259e-08
6.43897e-08
1.31385e-09
4.29977e-08
3.73048e-08
1.50152e-08
9.81432e-09
1.19322e-08
5.18481e-09
-8.54042e-09
-2.08094e-08
-4.28763e-08
-7.09158e-08
-5.41566e-08
-5.46219e-08
-1.88098e-08
-1.0884e-08
4.8323e-08
-8.12487e-09
6.5817e-08
-2.09717e-07
6.32679e-08
5.43746e-08
2.74134e-09
1.18739e-08
2.03741e-08
2.85215e-08
2.46266e-08
9.09507e-09
-2.30029e-09
-2.37005e-08
-5.26786e-08
-7.24458e-08
-7.3602e-08
-4.17334e-08
-3.30372e-08
-7.99727e-09
1.05524e-07
-4.60094e-07
2.39663e-07
-7.92761e-08
-2.3867e-07
-2.29002e-08
1.05841e-08
-1.32958e-08
8.07223e-10
2.11173e-08
1.43558e-08
7.92536e-09
-6.7538e-09
-3.44836e-08
-5.67204e-08
-7.51671e-08
-5.96568e-08
-4.53053e-08
-3.47677e-08
3.14954e-09
-1.86073e-07
5.538e-08
3.6146e-06
2.38143e-07
-7.38934e-08
-1.06414e-07
-4.82732e-08
-4.25788e-08
-1.66274e-08
-2.45697e-09
-2.74471e-09
7.14122e-09
-1.67684e-08
-4.54066e-08
-6.2423e-08
-6.46026e-08
-5.66532e-08
-2.75042e-08
-6.62449e-08
-1.04688e-07
8.65483e-08
-1.42796e-07
-3.56608e-06
-2.99074e-07
4.4049e-08
4.37065e-08
-4.54813e-08
-7.14471e-08
7.09233e-08
-2.47426e-08
-1.31532e-08
1.77961e-08
-2.47238e-08
-5.0539e-08
-6.1828e-08
-5.65359e-08
-4.68107e-08
-6.03886e-08
-6.78385e-08
-8.81018e-08
-1.2338e-07
4.40778e-07
-2.94223e-07
1.42752e-07
2.37666e-07
2.84146e-08
-2.09767e-08
-4.10247e-08
-1.68871e-07
-3.4454e-08
-1.82148e-08
-3.02218e-08
-2.60847e-08
-4.75051e-08
-5.98306e-08
-4.97353e-08
-5.72113e-08
-7.53767e-08
-9.89822e-08
-1.42915e-08
-4.95627e-08
1.63818e-07
-6.89133e-07
1.22446e-07
-4.7056e-08
-3.06019e-08
-4.52353e-09
-3.84053e-09
-2.20028e-08
-8.17991e-09
1.30815e-10
-1.01112e-08
-2.70436e-08
-3.76322e-08
-5.96311e-08
-5.43223e-08
-6.56067e-08
-8.61429e-08
-6.78152e-08
-7.70748e-08
1.47866e-07
-5.5115e-07
6.16216e-06
-6.87738e-07
-9.68976e-08
1.57357e-08
-3.17625e-09
-3.8298e-09
-9.86453e-10
-9.67702e-10
5.56227e-09
-6.63812e-10
-2.93258e-08
-2.93308e-08
-5.57103e-08
-7.04359e-08
-6.69854e-08
-6.85255e-08
-4.46672e-08
-5.16614e-08
-1.75966e-07
4.55801e-07
-6.25428e-06
6.08649e-07
2.81145e-08
-6.09663e-08
-4.66758e-08
-2.29496e-08
-8.84772e-09
-6.38477e-09
2.06621e-09
3.69602e-09
-3.52398e-08
-2.80959e-08
-5.03275e-08
-7.65713e-08
-7.24821e-08
-4.62454e-08
-1.55215e-08
-5.7325e-08
-7.20365e-08
-2.57781e-07
8.17006e-07
-4.35026e-08
-7.98004e-08
-5.78817e-08
-4.38016e-08
-1.64185e-08
-4.34016e-09
-3.30899e-09
9.93094e-09
1.01675e-08
-4.20865e-08
-3.62071e-08
-3.88242e-08
-6.77116e-08
-7.00349e-08
-4.57122e-08
5.99258e-09
-3.98092e-09
-6.5652e-08
-3.05661e-08
-1.22238e-07
-8.06091e-08
-5.80617e-08
-6.20992e-08
-2.35503e-08
1.20765e-08
1.12617e-08
2.19156e-09
1.35906e-08
1.23598e-08
-4.59236e-08
-4.41011e-08
-3.55045e-08
-4.1204e-08
-6.46896e-08
-4.83276e-08
-1.17575e-08
3.03535e-08
1.22778e-08
1.96574e-09
-2.41315e-08
-6.82758e-09
-2.77747e-08
-1.58575e-08
2.81221e-08
4.86469e-08
3.17809e-08
1.03985e-08
8.47006e-09
6.31927e-09
-4.87726e-08
-4.02552e-08
-3.92501e-08
-3.01394e-08
-4.19891e-08
-5.67275e-08
-2.09616e-08
1.76192e-08
4.98351e-08
4.8705e-08
5.90131e-08
4.90358e-08
3.94715e-08
5.42138e-08
6.67456e-08
6.18745e-08
4.40208e-08
1.76095e-08
-4.98879e-10
-2.78271e-09
-5.14254e-08
-3.57293e-08
-3.77882e-08
-3.7437e-08
-2.22731e-08
-3.5944e-08
-2.55907e-08
6.4568e-09
4.00619e-08
5.63735e-08
7.19823e-08
7.46033e-08
8.31178e-08
8.19328e-08
6.67802e-08
5.54265e-08
3.71845e-08
8.44372e-09
-1.22584e-08
-8.80266e-09
-4.82936e-08
-4.64157e-08
-3.88133e-08
-3.26393e-08
-1.80384e-08
-1.04657e-08
-1.15091e-08
1.06481e-08
2.78659e-08
4.17738e-08
5.35321e-08
7.30096e-08
8.69471e-08
7.08625e-08
4.83547e-08
3.48111e-08
2.26859e-08
2.32083e-09
-1.44188e-08
-9.70208e-09
-3.65907e-08
-5.66054e-08
-4.53276e-08
-2.25407e-08
-1.29083e-08
-2.25774e-10
4.87284e-09
1.70899e-08
2.97674e-08
3.62722e-08
3.90517e-08
6.60281e-08
8.01813e-08
6.25114e-08
3.3782e-08
2.12305e-08
2.04047e-08
4.61366e-09
-1.66817e-08
-1.1857e-08
)
;

boundaryField
{
    sides
    {
        type            calculated;
        value           nonuniform List<scalar> 
40
(
-3.65907e-08
-5.66054e-08
-4.53276e-08
-2.25407e-08
-1.29083e-08
-2.25774e-10
4.87284e-09
1.70899e-08
2.97674e-08
3.62722e-08
3.90517e-08
6.60281e-08
8.01813e-08
6.25114e-08
3.3782e-08
2.12305e-08
2.04047e-08
4.61366e-09
-1.66817e-08
-1.1857e-08
-4.43499e-08
-1.51627e-08
-2.58083e-08
-3.51241e-08
-1.12256e-08
-9.97628e-09
1.8285e-08
1.43293e-08
3.78428e-08
3.78561e-08
6.53557e-08
8.12075e-08
8.13158e-08
7.52858e-08
4.02682e-08
2.5812e-08
2.06618e-08
2.09571e-08
2.00097e-08
9.29995e-09
)
;
    }
    inlet
    {
        type            calculated;
        value           nonuniform List<scalar> 
20
(
-4.43499e-08
-2.9346e-08
-3.31814e-08
-3.50966e-08
-2.35056e-08
-8.54042e-09
-2.30029e-09
-6.7538e-09
-1.67684e-08
-2.47238e-08
-2.60847e-08
-2.70436e-08
-2.93258e-08
-3.52398e-08
-4.20865e-08
-4.59236e-08
-4.87726e-08
-5.14254e-08
-4.82936e-08
-3.65907e-08
)
;
    }
    outlet
    {
        type            calculated;
        value           uniform 0;
    }
    frontAndBack
    {
        type            empty;
    }
}


// ************************************************************************* //
