/*--------------------------------*- C++ -*----------------------------------*\
  =========                 |
  \\      /  F ield         | OpenFOAM: The Open Source CFD Toolbox
   \\    /   O peration     | Website:  https://openfoam.org
    \\  /    A nd           | Version:  9
     \\/     M anipulation  |
\*---------------------------------------------------------------------------*/
FoamFile
{
    format      ascii;
    class       volVectorField;
    location    "50";
    object      ddt0(hU);
}
// * * * * * * * * * * * * * * * * * * * * * * * * * * * * * * * * * * * * * //

dimensions      [0 2 -2 0 0 0 0];

internalField   nonuniform List<vector> 
400
(
(-4.00091e-09 -4.5136e-09 0)
(-8.39998e-09 -3.45992e-09 0)
(-2.18893e-09 -1.35411e-09 0)
(3.98869e-09 -2.17553e-09 0)
(5.38067e-09 -7.37968e-10 0)
(9.28615e-10 2.83002e-09 0)
(-2.81245e-09 9.1063e-10 0)
(-5.55784e-09 -1.60788e-09 0)
(4.43172e-10 -4.55275e-09 0)
(7.5244e-10 -2.61941e-09 0)
(-1.73484e-09 2.20849e-09 0)
(-1.0726e-08 1.20166e-09 0)
(-1.59438e-08 1.98636e-09 0)
(-9.36802e-09 -7.61053e-10 0)
(-2.88886e-09 1.48667e-10 0)
(6.44688e-09 2.78027e-09 0)
(8.88571e-09 2.7537e-09 0)
(6.33875e-11 2.73347e-09 0)
(5.55831e-09 4.98165e-09 0)
(2.04581e-08 1.57517e-09 0)
(-6.06107e-10 -9.12244e-09 0)
(-3.86857e-09 -7.23412e-09 0)
(1.68403e-12 -4.86658e-09 0)
(4.55037e-09 -7.57416e-09 0)
(4.91463e-09 -1.56321e-09 0)
(1.61507e-09 5.90217e-09 0)
(-3.0717e-09 3.96922e-09 0)
(-4.58592e-09 -3.93836e-09 0)
(-3.00289e-09 -8.53166e-09 0)
(2.22242e-09 -6.61804e-09 0)
(-3.70779e-09 3.57544e-09 0)
(-8.80094e-09 4.84325e-09 0)
(-1.25056e-08 1.80003e-09 0)
(-1.06636e-08 -1.94876e-09 0)
(-2.24066e-09 1.80787e-11 0)
(3.47627e-09 6.63216e-09 0)
(7.36972e-09 1.02285e-08 0)
(7.47497e-09 5.90546e-09 0)
(7.53689e-09 -3.76464e-09 0)
(1.16194e-08 -3.29679e-09 0)
(1.70372e-09 -7.43282e-09 0)
(7.64643e-10 -9.07829e-09 0)
(1.93668e-09 -1.25907e-08 0)
(5.18836e-09 -1.30004e-08 0)
(5.03777e-09 -1.52894e-09 0)
(3.46062e-09 7.74653e-09 0)
(-2.62938e-09 6.67055e-09 0)
(-3.13037e-09 -4.94024e-09 0)
(-5.43179e-09 -1.2954e-08 0)
(-3.32323e-09 -4.9025e-09 0)
(-2.26892e-09 7.88069e-10 0)
(-1.06079e-08 1.12401e-08 0)
(-8.75688e-09 4.15379e-10 0)
(-7.73909e-09 -5.70195e-09 0)
(-2.77221e-09 -5.24248e-10 0)
(2.0739e-09 9.36225e-09 0)
(3.81656e-09 1.67314e-08 0)
(1.49318e-09 9.44781e-09 0)
(3.66949e-09 -7.17148e-09 0)
(9.61711e-09 -6.15044e-09 0)
(1.92245e-09 -4.17206e-09 0)
(2.41246e-09 -1.19338e-08 0)
(3.49369e-09 -2.01419e-08 0)
(6.38012e-09 -1.68001e-08 0)
(6.79246e-09 -2.51811e-09 0)
(3.30488e-09 9.63816e-09 0)
(7.89527e-11 8.1133e-09 0)
(-6.11474e-09 -5.72675e-09 0)
(-1.62228e-09 -1.91976e-08 0)
(-1.04776e-08 -7.95635e-09 0)
(-4.72038e-09 1.29799e-08 0)
(-6.62039e-10 4.70609e-09 0)
(-1.26771e-08 3.07263e-09 0)
(-2.57054e-09 -8.94758e-09 0)
(-2.57917e-10 -4.87432e-09 0)
(-1.7833e-09 1.14805e-08 0)
(1.8203e-09 2.45338e-08 0)
(8.00167e-09 1.50174e-08 0)
(8.92061e-09 -9.72786e-09 0)
(7.12524e-09 -1.00764e-08 0)
(1.23664e-09 -2.35714e-09 0)
(2.11999e-09 -1.29535e-08 0)
(4.06598e-09 -2.13711e-08 0)
(7.41271e-09 -1.85101e-08 0)
(6.67477e-09 -4.34716e-09 0)
(5.09343e-09 9.53723e-09 0)
(3.9395e-10 9.02316e-09 0)
(-1.81118e-09 -1.33291e-08 0)
(-1.31356e-08 -1.5379e-08 0)
(1.01679e-08 -2.45697e-08 0)
(-2.81648e-08 2.31516e-08 0)
(-5.28156e-09 1.21702e-08 0)
(5.88801e-09 -3.92476e-09 0)
(-9.21539e-09 -4.78055e-09 0)
(8.9819e-10 -3.30944e-09 0)
(3.45997e-09 1.13051e-08 0)
(7.22858e-10 2.75578e-08 0)
(-5.23508e-10 1.74902e-08 0)
(4.00947e-09 -1.36718e-08 0)
(8.70354e-09 -1.27052e-08 0)
(1.13061e-09 -2.25346e-09 0)
(1.82622e-09 -1.14928e-08 0)
(4.76716e-09 -1.81711e-08 0)
(7.03451e-09 -1.72941e-08 0)
(6.75133e-09 -5.01246e-09 0)
(4.81798e-09 8.97869e-09 0)
(8.21697e-10 3.38363e-09 0)
(-6.15169e-10 -1.2842e-08 0)
(-1.38198e-08 -3.21874e-08 0)
(-7.68323e-09 2.97802e-09 0)
(9.38921e-09 -2.93521e-09 0)
(-4.53616e-08 6.2059e-08 0)
(5.35855e-09 8.50373e-09 0)
(1.06422e-08 -9.67858e-09 0)
(-6.73568e-09 -5.12568e-10 0)
(-3.89849e-09 1.34551e-08 0)
(7.84354e-10 2.63512e-08 0)
(4.6962e-09 1.68745e-08 0)
(6.48624e-09 -8.9377e-09 0)
(5.62642e-09 -1.03513e-08 0)
(1.5126e-09 -2.48038e-09 0)
(3.35655e-09 -8.74944e-09 0)
(5.56494e-09 -1.33898e-08 0)
(6.58322e-09 -1.36966e-08 0)
(5.1326e-09 -4.05358e-09 0)
(4.004e-09 5.55685e-09 0)
(4.32347e-09 3.91685e-10 0)
(-1.10877e-08 -1.20673e-08 0)
(1.3168e-08 -2.70001e-08 0)
(-5.26527e-08 3.9665e-08 0)
(3.88357e-08 -4.47911e-08 0)
(2.91127e-09 2.4994e-08 0)
(-6.7916e-08 3.36097e-08 0)
(-7.99141e-09 1.50699e-09 0)
(3.27809e-09 1.63638e-09 0)
(-5.5415e-09 1.79952e-08 0)
(-4.54614e-09 2.67278e-08 0)
(6.37779e-10 1.69073e-08 0)
(3.02314e-09 -9.30559e-09 0)
(3.06499e-09 -1.10922e-08 0)
(2.04655e-09 -1.79408e-09 0)
(5.70328e-09 -5.8291e-09 0)
(6.91606e-09 -8.56186e-09 0)
(5.50738e-09 -9.29635e-09 0)
(3.30651e-09 -3.28855e-09 0)
(3.89244e-09 2.21566e-09 0)
(4.18267e-09 -7.69799e-10 0)
(4.11544e-10 -8.61104e-09 0)
(1.13987e-08 1.05961e-08 0)
(-4.45449e-08 -3.79747e-08 0)
(3.28357e-07 7.89836e-08 0)
(8.95267e-08 -1.36799e-08 0)
(-5.92813e-09 -1.16272e-10 0)
(-2.70928e-08 1.54555e-08 0)
(-1.10811e-08 1.35062e-08 0)
(-1.13973e-08 2.05364e-08 0)
(-1.03596e-08 2.65508e-08 0)
(-1.88337e-09 1.76633e-08 0)
(-9.47442e-10 -4.21318e-09 0)
(-2.66865e-09 -8.87545e-09 0)
(1.91854e-09 -3.65288e-10 0)
(7.97713e-09 -3.17883e-09 0)
(7.82781e-09 -4.62061e-09 0)
(4.59907e-09 -5.35174e-09 0)
(1.23963e-09 -3.3447e-09 0)
(3.275e-09 1.82974e-09 0)
(8.29821e-09 1.47405e-09 0)
(1.21492e-08 -5.37429e-11 0)
(-1.64994e-08 1.23778e-08 0)
(2.04804e-08 -3.76477e-08 0)
(-3.37596e-07 6.05367e-08 0)
(-9.51019e-08 -2.80702e-08 0)
(1.24184e-08 -9.7191e-09 0)
(2.09931e-08 5.98371e-09 0)
(-1.01714e-08 7.85107e-09 0)
(-1.92971e-08 1.11507e-08 0)
(-4.57309e-09 1.77522e-08 0)
(-7.8814e-09 1.12323e-08 0)
(-6.32646e-09 -4.63314e-09 0)
(-5.97831e-09 -5.23407e-09 0)
(1.40265e-09 1.09035e-09 0)
(8.76058e-09 -7.64444e-10 0)
(8.576e-09 -1.27381e-09 0)
(3.83445e-09 -1.82025e-09 0)
(9.38918e-10 -2.11737e-09 0)
(5.06256e-09 1.54144e-09 0)
(1.16389e-08 5.66707e-09 0)
(1.59448e-08 2.34743e-09 0)
(-1.85708e-08 -1.58064e-08 0)
(2.93506e-08 2.02347e-08 0)
(-6.466e-08 -3.84816e-08 0)
(7.6911e-09 -1.52173e-08 0)
(7.22661e-08 1.15818e-08 0)
(8.77159e-09 -7.83267e-09 0)
(-1.0889e-08 -3.87976e-09 0)
(-1.37379e-08 1.72742e-09 0)
(-2.70106e-08 3.87365e-09 0)
(-9.69463e-09 3.46412e-09 0)
(-5.81724e-09 -3.88148e-09 0)
(-1.31233e-08 -3.72783e-09 0)
(4.51368e-10 1.97697e-09 0)
(8.09284e-09 1.68769e-09 0)
(8.47911e-09 2.30897e-09 0)
(4.15268e-09 2.88041e-09 0)
(1.45112e-09 9.08628e-10 0)
(6.67549e-09 1.19259e-09 0)
(1.22012e-08 9.62267e-10 0)
(4.10711e-09 2.1138e-09 0)
(-1.17686e-08 -1.41637e-08 0)
(2.33139e-08 -2.39641e-08 0)
(-9.18712e-08 5.05539e-08 0)
(7.2164e-10 4.47882e-08 0)
(1.29217e-08 -1.55169e-08 0)
(-2.32478e-09 -6.87103e-09 0)
(6.66787e-10 2.30728e-09 0)
(-7.45886e-09 1.37158e-09 0)
(-1.01252e-08 -3.88467e-09 0)
(-4.89307e-09 -1.35719e-09 0)
(-5.63378e-09 -3.42126e-10 0)
(-1.12413e-08 -3.43423e-09 0)
(-7.81842e-10 1.60443e-09 0)
(6.41077e-09 4.3002e-09 0)
(8.17726e-09 6.31106e-09 0)
(5.33324e-09 8.62431e-09 0)
(3.59731e-09 5.75007e-09 0)
(5.51035e-09 -1.4544e-10 0)
(9.58771e-09 -3.1868e-09 0)
(7.05933e-10 -4.45217e-09 0)
(-2.13353e-08 1.2209e-08 0)
(-1.81902e-09 3.25506e-08 0)
(6.68386e-07 -9.53233e-08 0)
(-1.54181e-07 2.0003e-09 0)
(-2.54763e-08 1.80804e-08 0)
(2.21045e-08 1.85157e-08 0)
(1.54014e-09 7.54785e-09 0)
(-8.57151e-09 -4.60824e-09 0)
(-7.28196e-09 -1.33118e-08 0)
(-2.52202e-09 -1.15109e-08 0)
(-4.93335e-09 -2.05764e-09 0)
(-9.23678e-09 -8.29569e-10 0)
(-1.52168e-09 7.01637e-10 0)
(4.87507e-09 7.4746e-09 0)
(8.40355e-09 1.18889e-08 0)
(7.98076e-09 1.38874e-08 0)
(5.49291e-09 9.13455e-09 0)
(3.94714e-09 -1.4127e-09 0)
(3.80319e-09 -5.36118e-09 0)
(4.68714e-09 -1.38992e-09 0)
(1.70494e-08 1.14524e-08 0)
(-3.89475e-08 4.68838e-08 0)
(-6.86571e-07 -7.66172e-08 0)
(1.58177e-07 2.25826e-09 0)
(2.089e-08 2.69916e-08 0)
(-2.51578e-08 1.85413e-08 0)
(-1.95345e-08 5.29883e-09 0)
(-1.30396e-08 -1.1133e-08 0)
(-6.63438e-09 -2.46622e-08 0)
(-2.52933e-09 -1.91129e-08 0)
(-1.73229e-09 -6.83075e-10 0)
(-3.80108e-09 2.14184e-09 0)
(-1.43512e-09 9.65339e-10 0)
(4.39213e-09 1.12379e-08 0)
(8.47606e-09 1.80996e-08 0)
(9.9828e-09 1.74539e-08 0)
(7.49995e-09 8.47992e-09 0)
(2.73242e-09 -2.85151e-09 0)
(-1.99445e-10 -3.03958e-09 0)
(3.96028e-10 6.49822e-09 0)
(8.13963e-09 8.62693e-09 0)
(-3.7814e-08 -2.86424e-08 0)
(8.86787e-08 7.33401e-08 0)
(8.31404e-09 -5.60517e-09 0)
(-3.31008e-08 -1.8808e-08 0)
(-2.0345e-08 1.83296e-09 0)
(-1.99948e-08 1.30664e-09 0)
(-1.39727e-08 -1.25956e-08 0)
(-4.22814e-09 -2.79982e-08 0)
(2.77924e-09 -1.87032e-08 0)
(3.45957e-09 5.12928e-09 0)
(4.16757e-10 5.80284e-09 0)
(-7.22413e-10 3.30759e-09 0)
(4.06649e-09 1.41481e-08 0)
(7.88314e-09 2.23067e-08 0)
(1.06163e-08 1.91784e-08 0)
(9.56127e-09 5.67257e-09 0)
(3.90169e-09 -6.26136e-09 0)
(-1.53417e-09 -2.56665e-10 0)
(-3.55599e-09 1.4179e-08 0)
(-6.15202e-09 1.19411e-08 0)
(2.8969e-09 -1.1711e-08 0)
(-1.58128e-08 -1.53971e-08 0)
(-2.20633e-08 -4.88724e-08 0)
(-1.43904e-08 -1.84882e-08 0)
(-1.8878e-08 -2.38444e-09 0)
(-1.6199e-08 -1.37096e-09 0)
(-7.2417e-09 -1.13085e-08 0)
(2.04093e-09 -2.39897e-08 0)
(6.91966e-09 -1.56443e-08 0)
(6.33745e-09 8.55606e-09 0)
(1.29472e-09 7.63857e-09 0)
(-4.77156e-10 6.47461e-09 0)
(2.90409e-09 1.55295e-08 0)
(6.19264e-09 2.25852e-08 0)
(9.93847e-09 2.03842e-08 0)
(9.78919e-09 3.16389e-09 0)
(6.55419e-09 -9.84409e-09 0)
(-1.43563e-09 -3.07052e-09 0)
(-6.41518e-09 1.76699e-08 0)
(-6.8521e-09 2.02193e-08 0)
(-7.86279e-09 3.26695e-09 0)
(-1.04472e-08 -2.73574e-08 0)
(-8.25322e-09 -2.73985e-08 0)
(-1.6215e-08 -1.60105e-08 0)
(-1.48909e-08 -8.90979e-10 0)
(-4.16372e-09 2.97523e-09 0)
(4.70996e-09 -6.66427e-09 0)
(8.26311e-09 -2.05287e-08 0)
(8.2955e-09 -1.39087e-08 0)
(6.46866e-09 7.71194e-09 0)
(1.46099e-09 6.24355e-09 0)
(-9.82127e-10 7.44748e-09 0)
(8.18645e-10 1.5583e-08 0)
(4.35212e-09 2.01607e-08 0)
(7.90549e-09 1.97342e-08 0)
(8.82376e-09 4.42257e-09 0)
(6.41879e-09 -1.17494e-08 0)
(9.46076e-10 -7.64788e-09 0)
(-6.01483e-09 1.14277e-08 0)
(-6.58042e-09 2.19415e-08 0)
(-5.08319e-09 9.13195e-09 0)
(-6.57014e-09 -7.52654e-09 0)
(-1.31399e-08 -1.50168e-08 0)
(-1.34504e-08 -3.58219e-09 0)
(-3.53889e-09 9.92428e-09 0)
(4.8609e-09 9.37587e-09 0)
(8.73543e-09 -2.85807e-09 0)
(1.06313e-08 -1.74365e-08 0)
(7.58535e-09 -1.41793e-08 0)
(4.57369e-09 2.81422e-09 0)
(4.05806e-09 3.17138e-09 0)
(-7.68378e-10 5.1396e-09 0)
(-6.25908e-10 1.38247e-08 0)
(2.92133e-09 1.87058e-08 0)
(6.18862e-09 1.70944e-08 0)
(6.47631e-09 5.50018e-09 0)
(4.41257e-09 -1.02453e-08 0)
(1.35963e-10 -1.0252e-08 0)
(-4.52519e-09 3.52856e-09 0)
(-4.02382e-09 1.36445e-08 0)
(-3.46915e-09 7.29411e-09 0)
(-5.05933e-09 -3.27366e-09 0)
(-1.03519e-08 -6.13408e-09 0)
(-1.16441e-08 3.58389e-09 0)
(-5.62243e-09 1.12336e-08 0)
(3.01096e-09 8.06274e-09 0)
(9.50068e-09 -1.92124e-09 0)
(8.45104e-09 -1.497e-08 0)
(1.67776e-09 -1.44351e-08 0)
(2.91486e-09 -4.07714e-10 0)
(9.95199e-09 1.96276e-09 0)
(1.09894e-09 1.33675e-09 0)
(3.74216e-11 8.44613e-09 0)
(2.34193e-09 1.43312e-08 0)
(4.09769e-09 1.22244e-08 0)
(3.19518e-09 3.74286e-09 0)
(1.74376e-09 -5.9234e-09 0)
(-1.15689e-09 -8.7567e-09 0)
(-3.09801e-09 -1.21737e-09 0)
(-2.51857e-09 3.94891e-09 0)
(4.94588e-10 1.28915e-09 0)
(-5.03578e-09 -4.76146e-09 0)
(-1.59011e-08 -5.50749e-09 0)
(-1.65873e-08 2.94714e-10 0)
(-7.58451e-09 4.79679e-09 0)
(3.44816e-09 4.29921e-09 0)
(7.77408e-09 -2.30148e-09 0)
(3.8237e-09 -1.24213e-08 0)
(-1.51918e-09 -1.16212e-08 0)
(4.70029e-09 6.49337e-11 0)
(1.43857e-08 2.22865e-09 0)
(3.34394e-09 -3.1188e-10 0)
(1.54411e-09 2.25939e-09 0)
(2.70511e-09 5.02786e-09 0)
(2.83223e-09 4.40962e-09 0)
(1.0444e-09 1.35846e-09 0)
(-3.4791e-10 -1.68905e-09 0)
(-2.35409e-09 -3.38627e-09 0)
(-3.26183e-09 -1.82996e-09 0)
(-1.27426e-09 -3.20551e-10 0)
(1.75963e-12 -6.6618e-10 0)
(-5.43655e-09 -4.3342e-09 0)
(-1.32106e-08 -2.84986e-09 0)
(-1.70691e-08 5.39204e-10 0)
(-1.00354e-08 1.83374e-09 0)
(7.54529e-10 1.35124e-09 0)
(4.57366e-09 -1.30649e-09 0)
(2.46351e-09 -5.0502e-09 0)
(2.6334e-10 -4.55644e-09 0)
(6.97601e-09 1.63263e-10 0)
(1.5435e-08 1.1112e-09 0)
)
;

boundaryField
{
    sides
    {
        type            calculated;
        value           nonuniform List<vector> 
40
(
(3.34394e-09 0 0)
(1.54411e-09 0 0)
(2.70511e-09 0 0)
(2.83223e-09 0 0)
(1.0444e-09 0 0)
(-3.4791e-10 0 0)
(-2.35409e-09 0 0)
(-3.26183e-09 0 0)
(-1.27426e-09 0 0)
(1.75963e-12 0 0)
(-5.43655e-09 0 0)
(-1.32106e-08 0 0)
(-1.70691e-08 0 0)
(-1.00354e-08 0 0)
(7.54529e-10 0 0)
(4.57366e-09 0 0)
(2.46351e-09 0 0)
(2.6334e-10 0 0)
(6.97601e-09 0 0)
(1.5435e-08 0 0)
(-4.00091e-09 0 0)
(-8.39998e-09 0 0)
(-2.18893e-09 0 0)
(3.98869e-09 0 0)
(5.38067e-09 0 0)
(9.28615e-10 0 0)
(-2.81245e-09 0 0)
(-5.55784e-09 0 0)
(4.43172e-10 0 0)
(7.5244e-10 0 0)
(-1.73484e-09 0 0)
(-1.0726e-08 0 0)
(-1.59438e-08 0 0)
(-9.36802e-09 0 0)
(-2.88886e-09 0 0)
(6.44688e-09 0 0)
(8.88571e-09 0 0)
(6.33875e-11 0 0)
(5.55831e-09 0 0)
(2.04581e-08 0 0)
)
;
    }
    inlet
    {
        type            calculated;
        value           uniform (0 0 0);
    }
    outlet
    {
        type            calculated;
        value           nonuniform List<vector> 
20
(
(2.04581e-08 1.57517e-09 0)
(1.16194e-08 -3.29679e-09 0)
(9.61711e-09 -6.15044e-09 0)
(7.12524e-09 -1.00764e-08 0)
(8.70354e-09 -1.27052e-08 0)
(5.62642e-09 -1.03513e-08 0)
(3.06499e-09 -1.10922e-08 0)
(-2.66865e-09 -8.87545e-09 0)
(-5.97831e-09 -5.23407e-09 0)
(-1.31233e-08 -3.72783e-09 0)
(-1.12413e-08 -3.43423e-09 0)
(-9.23678e-09 -8.29569e-10 0)
(-3.80108e-09 2.14184e-09 0)
(4.16757e-10 5.80284e-09 0)
(1.29472e-09 7.63857e-09 0)
(1.46099e-09 6.24355e-09 0)
(4.05806e-09 3.17138e-09 0)
(9.95199e-09 1.96276e-09 0)
(1.43857e-08 2.22865e-09 0)
(1.5435e-08 1.1112e-09 0)
)
;
    }
    frontAndBack
    {
        type            empty;
    }
}


// ************************************************************************* //
