/*--------------------------------*- C++ -*----------------------------------*\
  =========                 |
  \\      /  F ield         | OpenFOAM: The Open Source CFD Toolbox
   \\    /   O peration     | Website:  https://openfoam.org
    \\  /    A nd           | Version:  9
     \\/     M anipulation  |
\*---------------------------------------------------------------------------*/
FoamFile
{
    format      ascii;
    class       surfaceScalarField;
    location    "50";
    object      ddtCorrDdt0(phi);
}
// * * * * * * * * * * * * * * * * * * * * * * * * * * * * * * * * * * * * * //

dimensions      [0 4 -2 0 0 0 0];

internalField   nonuniform List<scalar> 
760
(
-4.01033e-11
-3.47939e-11
-3.18659e-11
-2.25433e-11
1.39289e-11
-2.57567e-12
2.3585e-11
-2.4355e-11
1.8139e-11
-1.42906e-11
-4.47103e-12
2.34689e-11
-2.7798e-11
8.17858e-12
-6.79894e-12
-8.61243e-12
9.34165e-12
-3.38103e-11
-1.17289e-11
-2.69622e-11
-2.61518e-11
1.67604e-11
-8.15897e-11
6.45829e-12
-6.20511e-11
1.98982e-11
-3.59319e-11
-8.79349e-12
4.61014e-12
-4.38892e-13
5.14379e-11
2.59437e-11
2.92546e-11
3.53093e-11
-1.71192e-12
2.78072e-11
7.09051e-11
-4.38461e-12
4.0534e-12
-1.6993e-11
-4.43435e-11
3.76368e-13
-3.45823e-11
9.50425e-12
-3.65027e-11
1.70357e-11
-5.773e-11
3.06238e-11
-6.74064e-12
-1.33996e-11
3.27292e-11
-1.59761e-11
2.94251e-11
-2.02059e-11
-3.00531e-11
1.96575e-12
-4.55042e-11
-4.00879e-12
-4.06534e-11
-4.22359e-11
1.61416e-11
-4.75948e-11
4.83461e-11
-6.87073e-11
4.08284e-12
-3.28829e-11
-8.08856e-12
1.38714e-13
-3.24101e-13
2.94449e-11
3.77839e-11
4.58058e-11
6.28013e-11
4.46615e-11
3.65795e-11
3.61787e-11
-1.47386e-11
-2.73895e-11
1.43218e-11
-2.83753e-11
2.24764e-11
-5.24426e-11
-1.97412e-12
-8.96388e-11
3.05857e-11
-7.33283e-11
3.12802e-11
-7.46769e-12
-3.27842e-12
4.37451e-11
-1.71875e-11
3.52866e-11
-1.08283e-11
-1.90304e-11
-3.50061e-11
-8.47154e-11
-7.99269e-12
-4.96881e-12
-4.17238e-11
-2.17661e-11
-4.81943e-11
7.02517e-11
-3.82335e-11
4.39495e-12
-3.20705e-11
-4.22601e-11
-3.31512e-12
-2.70706e-12
9.52525e-12
5.68815e-11
1.8994e-11
1.0629e-10
2.22518e-11
6.44632e-11
4.06193e-11
-5.96381e-11
-3.97774e-11
2.62915e-11
-1.37223e-11
1.74174e-11
-6.74374e-11
1.26887e-11
-1.11018e-10
4.43931e-11
-9.0272e-11
2.80129e-11
-1.57261e-11
3.47214e-12
5.09873e-11
-6.07734e-12
4.76006e-11
-3.32527e-11
-3.28556e-11
-5.07975e-12
-9.86106e-11
-9.10258e-11
-7.18311e-11
3.07248e-11
1.48316e-10
-5.6543e-11
-2.94158e-11
-3.59316e-11
2.59192e-11
-8.3718e-13
-4.24531e-11
-1.18399e-11
-4.15412e-11
-3.52676e-12
5.26628e-11
2.68014e-11
1.28138e-10
5.46357e-11
7.6217e-11
3.6903e-11
-5.429e-11
-5.45912e-11
1.61255e-11
-1.09381e-11
1.0449e-11
-6.44159e-11
2.83039e-11
-1.02546e-10
4.96382e-11
-9.11574e-11
2.65572e-11
-2.49112e-11
1.44393e-11
4.5786e-11
8.14159e-12
4.67271e-11
-5.81201e-11
-9.61236e-11
-1.61977e-11
-4.88596e-11
3.7392e-12
-2.08753e-10
-1.76098e-10
1.17254e-10
7.94603e-11
1.84038e-10
-3.88494e-11
-7.6673e-11
-2.14419e-11
-2.68595e-11
1.66527e-11
6.98292e-12
6.21039e-12
5.93212e-11
1.77015e-12
1.36018e-10
1.15768e-11
8.41281e-11
3.48056e-11
-7.18167e-11
-6.39935e-11
6.00031e-12
-1.32625e-11
1.05142e-11
-5.16624e-11
3.6418e-11
-7.72107e-11
4.83104e-11
-7.90632e-11
2.28063e-11
-2.39073e-11
3.66832e-11
4.37465e-11
-4.25198e-11
-1.50361e-11
4.11143e-11
-2.05229e-11
-2.14458e-10
-2.84442e-10
1.85505e-10
3.34089e-10
-1.90155e-10
-1.94022e-10
-1.17221e-10
4.49316e-10
9.59723e-11
2.00488e-10
-1.21717e-11
-5.35031e-11
-3.18861e-11
-2.44934e-12
9.71776e-13
8.25982e-11
9.57718e-12
1.34888e-10
2.39644e-11
7.90691e-11
3.4783e-11
-5.07617e-11
-5.18764e-11
7.90464e-12
-1.25259e-11
2.08044e-11
-3.48729e-11
3.60641e-11
-5.36269e-11
4.12205e-11
-5.53589e-11
3.12645e-11
-1.69862e-11
4.52714e-12
8.70875e-12
3.44843e-11
1.86338e-11
-1.51399e-10
-1.13986e-10
1.26736e-10
4.70494e-11
-3.09729e-10
1.31785e-10
4.21416e-10
-3.15516e-10
-3.76654e-10
-2.3027e-10
-1.65503e-10
1.81844e-10
1.79695e-11
1.07338e-10
-1.01988e-11
4.04435e-11
-1.82163e-11
8.21633e-11
-1.95578e-11
3.72713e-10
4.89725e-12
8.78009e-11
2.175e-11
-2.86312e-11
-4.66551e-11
2.0199e-11
-5.33372e-12
3.19617e-11
-2.17573e-11
3.61096e-11
-3.05333e-11
3.59551e-11
-3.67529e-11
9.9722e-12
-1.6629e-11
3.39418e-11
7.38596e-12
-1.45941e-12
-2.08384e-11
-6.74324e-11
7.58836e-11
2.91062e-10
-4.13212e-11
9.23248e-11
-6.03261e-10
1.50318e-09
-1.03478e-08
1.3236e-10
2.30233e-10
-1.50973e-10
-2.18315e-10
-8.41071e-11
-7.98527e-12
-3.52502e-11
6.40515e-11
-6.42052e-11
7.99184e-11
-3.33677e-11
8.08394e-11
-4.72942e-12
8.32863e-11
-1.14965e-11
-2.03544e-11
-4.99238e-11
3.00203e-11
3.02438e-12
4.42576e-11
-8.37743e-12
3.42287e-11
-1.49175e-11
2.469e-11
-1.83374e-11
6.05705e-12
-1.88839e-11
6.52434e-12
1.30399e-11
6.77608e-11
3.40767e-11
1.02955e-10
-4.99555e-11
-3.77179e-10
8.35507e-11
-1.9241e-10
9.27655e-11
-1.54053e-09
-2.86651e-10
-1.29413e-10
-3.93034e-10
1.66551e-10
7.76671e-11
-4.72084e-13
2.90776e-11
-7.31672e-11
2.60352e-11
-5.68697e-11
4.44729e-12
-4.06913e-11
3.61405e-10
-3.1539e-11
3.18099e-11
-4.20336e-11
-1.76889e-11
7.09851e-10
3.35777e-11
9.11997e-12
4.8695e-11
1.56889e-12
3.63504e-11
2.69251e-12
1.07562e-11
-1.58864e-12
8.25494e-12
-3.72595e-12
4.81465e-11
9.34427e-12
4.53362e-11
2.30173e-11
1.18573e-10
3.1099e-11
-1.58804e-10
-2.14289e-10
1.07548e-10
1.05785e-10
-4.23946e-10
2.68002e-11
4.33078e-10
2.06295e-10
1.65861e-10
5.66355e-11
-2.67965e-11
-6.48253e-11
-6.02788e-11
-1.03045e-11
-9.27997e-11
8.80102e-12
-9.82295e-11
-1.04869e-11
-4.73841e-11
7.38221e-12
-3.26896e-11
-8.74779e-12
-2.99348e-11
2.56135e-11
9.71509e-12
4.94822e-11
1.39056e-11
3.5156e-11
1.90365e-11
8.14341e-12
3.10371e-11
1.85557e-11
1.48231e-11
5.54839e-11
8.89451e-12
7.99403e-11
-1.2665e-11
-8.44195e-11
5.88012e-12
1.88191e-11
1.81904e-11
-4.79059e-11
-2.03822e-10
-4.21591e-10
-1.47678e-09
1.8342e-10
4.19863e-10
-3.5585e-11
-1.72411e-10
2.46045e-11
-3.24502e-11
-1.95283e-11
2.08968e-11
-4.65127e-11
-4.2257e-12
-3.4162e-11
-4.4419e-11
-3.41964e-11
-2.87548e-11
-4.08491e-11
-4.02046e-12
-9.90176e-12
1.31903e-11
5.99593e-12
4.07699e-11
2.85403e-11
4.28636e-11
4.43014e-11
1.34967e-11
5.92282e-11
3.38411e-11
4.43406e-11
3.49094e-11
-9.8639e-12
5.09536e-11
-2.45292e-11
-1.58062e-11
-3.4091e-11
-4.27656e-10
1.52101e-10
2.34033e-09
5.80346e-10
8.33635e-10
-2.92833e-08
-4.43691e-10
-6.94045e-10
8.31028e-11
2.889e-10
5.55258e-11
1.5366e-10
-2.02508e-11
4.51527e-11
-4.53695e-11
-3.24196e-11
-1.98646e-11
-9.46881e-11
-2.42471e-11
-8.25927e-11
-3.94912e-11
-1.25594e-11
2.19779e-12
6.43799e-12
2.58819e-12
2.98123e-11
4.74195e-11
5.35361e-11
7.50143e-11
3.72385e-11
8.08388e-11
3.04402e-11
4.85263e-11
2.10214e-11
-7.05152e-12
-1.33285e-11
-3.39844e-11
3.34451e-11
2.55057e-11
3.1948e-10
2.56275e-11
-2.59737e-09
-3.91538e-11
-7.42844e-10
6.05639e-11
3.70726e-10
4.00701e-10
-7.57745e-11
-3.71274e-11
-1.07517e-10
4.09633e-11
-8.44465e-11
2.02489e-11
-4.30674e-11
-5.23011e-11
-2.21021e-11
-1.19341e-10
-1.28033e-11
-9.97863e-11
-1.72666e-11
6.01391e-12
1.78935e-11
9.86703e-12
8.58925e-12
2.34757e-11
6.64196e-11
5.72714e-11
1.03881e-10
5.59139e-11
9.10976e-11
3.84694e-11
3.76465e-11
-9.98891e-12
-1.94436e-11
-2.85143e-11
3.65382e-12
2.6906e-11
3.68545e-11
3.31001e-11
2.59908e-11
-8.23001e-11
-1.48878e-10
4.57014e-10
1.30777e-10
-1.84503e-10
-2.79916e-10
-1.03211e-10
-8.13154e-11
-1.06825e-10
-1.16045e-11
-9.26051e-11
-1.48387e-11
-4.55152e-11
-6.92203e-11
5.11914e-12
-1.31242e-10
1.56957e-11
-8.30524e-11
7.90316e-12
4.14396e-11
3.70749e-11
1.75162e-11
2.55687e-11
2.29615e-11
7.59045e-11
4.73467e-11
1.18159e-10
6.65196e-11
9.72317e-11
4.65579e-11
1.68544e-11
2.41568e-12
-3.97537e-11
-4.85471e-11
-2.44207e-12
-7.9195e-12
9.01378e-11
-2.28887e-11
7.24672e-11
2.31911e-11
-5.14404e-12
-1.50863e-10
-5.0525e-10
-7.11942e-11
-1.8263e-10
-8.47374e-11
-1.11672e-10
-9.38564e-11
-2.38401e-11
-6.53351e-11
-5.58846e-12
-1.4596e-11
-4.97827e-11
3.2438e-11
-1.13617e-10
4.00591e-11
-7.01321e-11
1.69176e-11
4.77753e-11
3.83572e-11
1.501e-11
4.04352e-11
2.52021e-11
7.88904e-11
3.2641e-11
1.05839e-10
5.66984e-11
1.02675e-10
5.77653e-11
1.1802e-11
1.68828e-11
-5.57292e-11
-3.81913e-11
-2.52976e-11
-4.68423e-11
8.34468e-11
-1.63564e-11
1.23714e-10
-6.13812e-11
3.37636e-11
-3.89205e-11
-9.18359e-11
-6.65802e-11
-1.12433e-10
-7.73973e-11
-4.89061e-11
-4.92455e-11
2.39453e-11
-3.12604e-12
3.1525e-11
2.97225e-11
-2.46038e-11
5.03341e-11
-9.23694e-11
4.76811e-11
-6.88891e-11
1.7237e-11
2.26119e-11
2.12606e-11
5.3048e-12
3.55278e-11
1.68936e-11
7.64443e-11
3.0348e-11
9.39471e-11
3.29538e-11
9.25388e-11
5.53897e-11
2.98477e-11
2.6066e-11
-6.26014e-11
-1.79628e-11
-5.02644e-11
-4.35557e-11
3.24562e-11
-2.83155e-11
9.8168e-11
-3.19135e-11
5.3739e-11
-4.94436e-11
-1.69716e-11
-6.98859e-11
-4.20464e-11
-4.5486e-11
4.85608e-12
5.35931e-12
6.03424e-11
3.15017e-11
5.0498e-11
4.84233e-11
-4.15294e-12
5.20162e-11
-7.45512e-11
3.64447e-11
-7.12315e-11
1.96366e-11
-5.08959e-13
8.42899e-12
3.69347e-12
1.49405e-11
6.85367e-12
5.94804e-11
2.72232e-11
8.80468e-11
2.51232e-11
7.31069e-11
2.67529e-11
2.53747e-11
2.53226e-11
-3.97064e-11
-1.42203e-11
-5.72011e-11
-2.41685e-11
-4.27408e-12
-2.25552e-11
3.78604e-11
-2.14092e-11
2.99711e-11
-4.13119e-11
-2.34937e-11
-6.38485e-11
-1.7967e-11
-4.42508e-11
2.30202e-11
-5.82496e-12
4.84907e-11
3.4345e-11
3.62953e-11
4.68328e-11
-8.07043e-12
2.53676e-11
-7.23947e-11
1.17507e-11
-6.91785e-11
3.32184e-11
-3.35617e-13
1.12431e-11
1.30396e-11
1.55851e-13
1.46613e-11
2.92548e-11
1.35539e-11
5.83881e-11
1.44492e-11
4.59467e-11
7.99284e-12
9.88251e-12
7.52431e-12
-2.06422e-11
-8.1177e-12
-3.51277e-11
-1.47964e-11
-1.20456e-11
-1.00486e-11
4.15304e-12
-1.90781e-12
-2.21584e-12
-6.11873e-11
-1.43932e-11
-8.89846e-11
-1.70001e-11
-6.9186e-11
5.04571e-13
-7.73591e-12
1.35127e-11
3.84031e-11
1.54687e-11
2.72716e-11
-8.24597e-12
-4.78084e-13
-4.5701e-11
1.0818e-11
-4.20508e-11
5.23505e-11
3.42479e-12
1.11218e-11
2.15416e-11
3.10983e-11
5.64174e-12
1.81816e-12
2.7587e-13
-6.6236e-12
-9.11561e-12
-1.15196e-11
-2.77027e-12
-1.33561e-11
-4.57744e-11
-8.68429e-11
-8.06738e-11
-1.63757e-11
2.5254e-11
1.15488e-11
-2.44538e-12
2.56947e-11
6.33879e-11
)
;

boundaryField
{
    sides
    {
        type            calculated;
        value           uniform 0;
    }
    inlet
    {
        type            calculated;
        value           uniform 0;
    }
    outlet
    {
        type            calculated;
        value           nonuniform List<scalar> 
20
(
1.12824e-10
6.83522e-11
2.61929e-11
3.10244e-11
3.95328e-11
3.1547e-11
1.83715e-11
-5.6618e-12
-8.69971e-12
-8.22948e-11
-5.46275e-11
-3.55496e-11
-8.71566e-12
6.71449e-12
3.90168e-13
-5.82279e-12
1.28066e-11
5.1356e-11
7.19733e-11
7.09839e-11
)
;
    }
    frontAndBack
    {
        type            empty;
        value           nonuniform List<scalar> 0();
    }
}


// ************************************************************************* //
