/*--------------------------------*- C++ -*----------------------------------*\
  =========                 |
  \\      /  F ield         | OpenFOAM: The Open Source CFD Toolbox
   \\    /   O peration     | Website:  https://openfoam.org
    \\  /    A nd           | Version:  9
     \\/     M anipulation  |
\*---------------------------------------------------------------------------*/
FoamFile
{
    format      ascii;
    class       volScalarField;
    location    "50";
    object      h;
}
// * * * * * * * * * * * * * * * * * * * * * * * * * * * * * * * * * * * * * //

dimensions      [0 1 0 0 0 0 0];

internalField   nonuniform List<scalar> 
400
(
0.0100004
0.0100003
0.0100002
0.0100001
0.0099999
0.00999969
0.00999945
0.00999922
0.009999
0.00999884
0.00999876
0.00999878
0.00999891
0.00999913
0.0099994
0.00999968
0.0099999
0.01
0.0100001
0.01
0.0100003
0.0100003
0.0100002
0.01
0.00999982
0.00999959
0.00999934
0.00999907
0.00999882
0.00999862
0.00999852
0.00999856
0.00999872
0.00999898
0.0099993
0.00999959
0.00999981
0.00999993
0.00999997
0.00999999
0.0100003
0.0100003
0.0100002
0.01
0.00999982
0.00999957
0.00999929
0.00999898
0.00999868
0.00999844
0.00999831
0.00999832
0.00999852
0.00999886
0.00999927
0.00999966
0.00999994
0.0100001
0.0100001
0.01
0.0100004
0.0100003
0.0100002
0.0100001
0.00999986
0.00999958
0.00999923
0.00999883
0.00999842
0.00999806
0.00999785
0.00999788
0.00999819
0.00999872
0.00999931
0.00999975
0.00999997
0.01
0.00999997
0.00999996
0.0100005
0.0100004
0.0100004
0.0100002
0.00999996
0.00999964
0.00999922
0.0099987
0.00999811
0.00999755
0.00999715
0.00999718
0.00999768
0.00999857
0.00999953
0.0100002
0.0100004
0.0100003
0.0100001
0.00999999
0.0100006
0.0100006
0.0100005
0.0100004
0.0100002
0.00999982
0.00999929
0.00999857
0.00999771
0.00999688
0.0099963
0.00999624
0.00999705
0.00999841
0.00999972
0.0100004
0.0100005
0.0100002
0.00999993
0.00999992
0.0100008
0.0100008
0.0100008
0.0100007
0.0100005
0.0100002
0.00999963
0.00999863
0.00999713
0.00999532
0.00999415
0.00999449
0.00999665
0.00999946
0.0100013
0.0100015
0.0100008
0.01
0.00999974
0.00999987
0.0100009
0.010001
0.010001
0.0100011
0.010001
0.0100008
0.0100003
0.00999925
0.00999734
0.00999427
0.00999044
0.00999021
0.00999445
0.0100002
0.0100033
0.010003
0.0100012
0.00999984
0.00999949
0.00999983
0.010001
0.0100011
0.0100013
0.0100015
0.0100018
0.0100019
0.0100014
0.00999945
0.00999547
0.0099897
0.0099868
0.00998971
0.00999802
0.0100037
0.0100044
0.0100024
0.0100003
0.00999933
0.00999943
0.00999987
0.010001
0.0100012
0.0100014
0.0100019
0.0100026
0.010004
0.0100058
0.0100078
0.0100048
0.00897847
0.00895237
0.00997584
0.0100088
0.0100178
0.0100104
0.0100023
0.00999883
0.00999888
0.00999977
0.0100001
0.010001
0.0100011
0.0100013
0.0100018
0.0100026
0.010004
0.0100058
0.0100077
0.0100048
0.00897842
0.00895235
0.00997579
0.0100087
0.0100177
0.0100104
0.0100023
0.00999882
0.00999887
0.00999974
0.0100001
0.0100008
0.0100009
0.0100011
0.0100013
0.0100016
0.0100017
0.0100012
0.00999925
0.00999529
0.00998949
0.00998674
0.00998953
0.00999789
0.0100036
0.0100043
0.0100023
0.0100002
0.00999931
0.00999945
0.00999989
0.0100006
0.0100006
0.0100007
0.0100007
0.0100007
0.0100005
0.00999999
0.00999894
0.00999706
0.00999402
0.00999005
0.00998997
0.0099942
0.00999991
0.0100031
0.0100029
0.0100011
0.00999976
0.00999946
0.00999982
0.0100003
0.0100003
0.0100003
0.0100002
0.0100001
0.00999975
0.00999918
0.00999818
0.00999667
0.00999489
0.00999375
0.00999411
0.0099963
0.00999915
0.010001
0.0100013
0.0100006
0.0099999
0.00999963
0.00999983
0.01
0.00999999
0.00999992
0.00999979
0.00999957
0.00999923
0.00999872
0.00999801
0.00999716
0.00999635
0.00999579
0.00999579
0.00999661
0.00999802
0.00999938
0.0100001
0.0100002
0.00999999
0.00999982
0.00999988
0.00999975
0.0099997
0.00999961
0.00999946
0.00999923
0.00999892
0.00999851
0.00999801
0.00999744
0.00999688
0.00999651
0.00999657
0.00999711
0.00999805
0.00999905
0.00999975
0.01
0.00999999
0.00999991
0.00999993
0.0099995
0.00999945
0.00999935
0.0099992
0.00999899
0.00999871
0.00999838
0.009998
0.00999762
0.0099973
0.00999713
0.0099972
0.00999755
0.00999813
0.00999879
0.00999933
0.00999965
0.00999978
0.00999984
0.00999992
0.0099993
0.00999925
0.00999915
0.009999
0.00999881
0.00999857
0.00999829
0.00999799
0.00999771
0.00999749
0.00999738
0.00999746
0.00999772
0.00999813
0.00999861
0.00999906
0.00999941
0.00999964
0.00999979
0.00999992
0.00999914
0.00999909
0.009999
0.00999886
0.00999869
0.00999847
0.00999824
0.009998
0.00999779
0.00999763
0.00999757
0.00999763
0.00999784
0.00999817
0.00999856
0.00999896
0.00999931
0.00999957
0.00999977
0.00999992
0.009999
0.00999895
0.00999885
0.00999871
0.00999854
0.00999834
0.00999812
0.0099979
0.00999771
0.00999758
0.00999753
0.00999761
0.0099978
0.00999809
0.00999844
0.0099988
0.00999914
0.00999942
0.00999966
0.00999987
)
;

boundaryField
{
    sides
    {
        type            zeroGradient;
    }
    inlet
    {
        type            zeroGradient;
    }
    outlet
    {
        type            fixedValue;
        value           uniform 0.01;
    }
    frontAndBack
    {
        type            empty;
    }
}


// ************************************************************************* //
