/*--------------------------------*- C++ -*----------------------------------*\
  =========                 |
  \\      /  F ield         | OpenFOAM: The Open Source CFD Toolbox
   \\    /   O peration     | Website:  https://openfoam.org
    \\  /    A nd           | Version:  9
     \\/     M anipulation  |
\*---------------------------------------------------------------------------*/
FoamFile
{
    format      ascii;
    class       volVectorField;
    location    "50";
    object      hU;
}
// * * * * * * * * * * * * * * * * * * * * * * * * * * * * * * * * * * * * * //

dimensions      [0 2 -1 0 0 0 0];

internalField   nonuniform List<vector> 
400
(
(0.001 -2.50904e-08 0)
(0.00100004 -7.1796e-08 0)
(0.00100013 -1.1406e-07 0)
(0.00100025 -1.52254e-07 0)
(0.0010004 -1.86726e-07 0)
(0.00100059 -2.17164e-07 0)
(0.00100079 -2.39153e-07 0)
(0.00100101 -2.47846e-07 0)
(0.0010012 -2.37334e-07 0)
(0.00100134 -2.10525e-07 0)
(0.00100141 -1.68135e-07 0)
(0.0010014 -1.29844e-07 0)
(0.0010013 -1.01021e-07 0)
(0.00100112 -9.44751e-08 0)
(0.00100088 -9.95087e-08 0)
(0.00100065 -1.34554e-07 0)
(0.00100044 -1.56247e-07 0)
(0.00100034 -2.0142e-07 0)
(0.00100027 -1.88549e-07 0)
(0.00100034 -2.68344e-07 0)
(0.001 -2.89204e-08 0)
(0.00100005 -8.21027e-08 0)
(0.00100014 -1.30845e-07 0)
(0.00100027 -1.7456e-07 0)
(0.00100043 -2.12404e-07 0)
(0.00100063 -2.41583e-07 0)
(0.00100086 -2.51431e-07 0)
(0.00100109 -2.2691e-07 0)
(0.00100131 -1.57545e-07 0)
(0.00100149 -4.69023e-08 0)
(0.00100158 9.42099e-08 0)
(0.00100155 2.43747e-07 0)
(0.00100142 3.83248e-07 0)
(0.0010012 4.72567e-07 0)
(0.00100093 5.05201e-07 0)
(0.00100067 4.54267e-07 0)
(0.00100049 3.78265e-07 0)
(0.00100037 2.5069e-07 0)
(0.00100034 1.99401e-07 0)
(0.0010003 8.11803e-08 0)
(0.001 -5.54155e-08 0)
(0.00100005 -1.63858e-07 0)
(0.00100014 -2.71364e-07 0)
(0.00100027 -3.75187e-07 0)
(0.00100044 -4.72673e-07 0)
(0.00100066 -5.57813e-07 0)
(0.00100091 -6.11966e-07 0)
(0.00100118 -6.07444e-07 0)
(0.00100145 -5.2259e-07 0)
(0.00100166 -3.50622e-07 0)
(0.00100178 -1.09588e-07 0)
(0.00100177 1.56877e-07 0)
(0.0010016 3.91912e-07 0)
(0.00100132 5.13359e-07 0)
(0.00100096 4.99246e-07 0)
(0.00100063 3.572e-07 0)
(0.00100037 2.03771e-07 0)
(0.00100027 3.93165e-08 0)
(0.00100023 -1.01377e-08 0)
(0.00100031 -1.17065e-07 0)
(0.001 -7.63884e-08 0)
(0.00100005 -2.28314e-07 0)
(0.00100013 -3.81059e-07 0)
(0.00100027 -5.32706e-07 0)
(0.00100046 -6.79879e-07 0)
(0.0010007 -8.13307e-07 0)
(0.00100101 -8.99928e-07 0)
(0.00100136 -8.98174e-07 0)
(0.00100172 -7.61858e-07 0)
(0.00100204 -4.73728e-07 0)
(0.00100223 -2.24428e-08 0)
(0.0010022 4.84784e-07 0)
(0.00100193 9.24591e-07 0)
(0.00100147 1.13091e-06 0)
(0.00100098 1.0537e-06 0)
(0.00100059 7.46703e-07 0)
(0.00100042 4.23901e-07 0)
(0.00100036 1.60816e-07 0)
(0.00100041 9.33078e-08 0)
(0.00100035 9.53151e-10 0)
(0.001 -9.36924e-08 0)
(0.00100004 -2.84606e-07 0)
(0.00100012 -4.84009e-07 0)
(0.00100026 -6.9678e-07 0)
(0.00100045 -9.20366e-07 0)
(0.00100073 -1.14324e-06 0)
(0.00100111 -1.31109e-06 0)
(0.00100157 -1.35182e-06 0)
(0.00100208 -1.18262e-06 0)
(0.00100258 -7.7942e-07 0)
(0.00100291 -1.69731e-07 0)
(0.00100289 5.70805e-07 0)
(0.00100245 1.21702e-06 0)
(0.00100168 1.50188e-06 0)
(0.00100087 1.37347e-06 0)
(0.00100032 9.67729e-07 0)
(0.00100014 5.8088e-07 0)
(0.00100022 3.02617e-07 0)
(0.00100038 2.50626e-07 0)
(0.00100044 1.68187e-07 0)
(0.001 -1.06146e-07 0)
(0.00100003 -3.25244e-07 0)
(0.00100009 -5.68979e-07 0)
(0.0010002 -8.47348e-07 0)
(0.00100039 -1.17256e-06 0)
(0.0010007 -1.52936e-06 0)
(0.00100116 -1.8722e-06 0)
(0.0010018 -2.06945e-06 0)
(0.00100255 -1.92109e-06 0)
(0.00100327 -1.19974e-06 0)
(0.00100378 8.42494e-08 0)
(0.00100379 1.53679e-06 0)
(0.00100311 2.4196e-06 0)
(0.00100193 2.29427e-06 0)
(0.00100083 1.42802e-06 0)
(0.0010002 4.94878e-07 0)
(0.00100018 1.23143e-08 0)
(0.00100038 -9.54936e-08 0)
(0.00100065 4.98144e-08 0)
(0.00100055 4.97163e-08 0)
(0.001 -1.05548e-07 0)
(0.00100001 -3.39815e-07 0)
(0.00100003 -6.07971e-07 0)
(0.00100008 -9.64285e-07 0)
(0.00100022 -1.39245e-06 0)
(0.0010005 -1.95095e-06 0)
(0.00100101 -2.50184e-06 0)
(0.00100189 -3.0984e-06 0)
(0.00100322 -3.24199e-06 0)
(0.00100474 -2.87703e-06 0)
(0.00100575 -6.75105e-07 0)
(0.00100536 2.54874e-06 0)
(0.0010035 4.8185e-06 0)
(0.00100113 4.72851e-06 0)
(0.000999619 3.02686e-06 0)
(0.000999382 1.26581e-06 0)
(0.00100002 4.28522e-07 0)
(0.00100057 3.13844e-07 0)
(0.00100093 5.50001e-07 0)
(0.00100067 5.33755e-07 0)
(0.000999996 -9.52799e-08 0)
(0.000999969 -2.9407e-07 0)
(0.000999909 -5.81947e-07 0)
(0.00099988 -9.5891e-07 0)
(0.000999887 -1.57821e-06 0)
(0.00100011 -2.34988e-06 0)
(0.00100052 -3.41417e-06 0)
(0.00100154 -4.13706e-06 0)
(0.00100309 -4.376e-06 0)
(0.00100602 -2.54842e-06 0)
(0.00100911 7.62886e-07 0)
(0.00100917 4.26529e-06 0)
(0.00100552 4.7137e-06 0)
(0.00100074 2.7793e-06 0)
(0.000998159 7.35719e-07 0)
(0.000998284 -2.73141e-07 0)
(0.00099981 -2.88248e-07 0)
(0.00100089 -2.01094e-08 0)
(0.00100134 2.02155e-07 0)
(0.00100086 1.02191e-07 0)
(0.000999996 -5.11826e-08 0)
(0.000999916 -2.07517e-07 0)
(0.000999757 -3.90116e-07 0)
(0.000999535 -7.37073e-07 0)
(0.000999296 -1.3402e-06 0)
(0.000999223 -2.48594e-06 0)
(0.00099972 -4.69595e-06 0)
(0.00100141 -8.07626e-06 0)
(0.00100492 -1.32867e-05 0)
(0.00100959 -1.49118e-05 0)
(0.00101191 3.85023e-06 0)
(0.00100894 1.87282e-05 0)
(0.00100222 1.57784e-05 0)
(0.000997575 5.74067e-06 0)
(0.000996892 -3.15428e-07 0)
(0.000998469 -1.26257e-06 0)
(0.00100028 -9.73233e-08 0)
(0.00100101 6.26869e-07 0)
(0.00100108 6.44156e-07 0)
(0.00100055 2.43423e-07 0)
(0.000999805 -2.05491e-08 0)
(0.00100017 -6.83195e-08 0)
(0.000999217 -1.53478e-07 0)
(0.000999908 -2.50872e-07 0)
(0.00099753 -5.95031e-07 0)
(0.000998856 -1.13527e-06 0)
(0.00099336 -2.88799e-06 0)
(0.000997543 -5.59579e-06 0)
(0.000991677 -1.15445e-05 0)
(0.000915844 -1.27055e-05 0)
(0.000951477 2.69274e-07 0)
(0.00101024 1.46374e-05 0)
(0.000990967 1.30846e-05 0)
(0.000983983 5.13995e-06 0)
(0.000989592 1.93895e-07 0)
(0.000996289 -7.82117e-07 0)
(0.000999247 -1.14477e-07 0)
(0.000999424 2.43505e-07 0)
(0.000998656 1.6938e-07 0)
(0.000998512 -1.84905e-07 0)
(0.000999805 1.3605e-08 0)
(0.00100017 4.63861e-08 0)
(0.000999217 1.16857e-07 0)
(0.000999907 1.9767e-07 0)
(0.000997527 5.25673e-07 0)
(0.000998851 1.04841e-06 0)
(0.000993353 2.78525e-06 0)
(0.000997531 5.47305e-06 0)
(0.000991661 1.13952e-05 0)
(0.000915821 1.25459e-05 0)
(0.00095144 -4.75322e-07 0)
(0.00101022 -1.49051e-05 0)
(0.000990959 -1.34073e-05 0)
(0.000983975 -5.53448e-06 0)
(0.000989575 -6.48714e-07 0)
(0.000996252 2.45622e-07 0)
(0.000999207 -4.74787e-07 0)
(0.000999378 -1.00338e-06 0)
(0.000998641 -9.90169e-07 0)
(0.000998462 -8.88909e-07 0)
(0.000999996 4.41354e-08 0)
(0.000999916 1.86238e-07 0)
(0.000999757 3.54319e-07 0)
(0.000999535 6.8523e-07 0)
(0.000999294 1.27261e-06 0)
(0.000999223 2.39981e-06 0)
(0.000999716 4.59135e-06 0)
(0.0010014 7.94524e-06 0)
(0.00100491 1.31325e-05 0)
(0.00100959 1.47191e-05 0)
(0.00101192 -4.06337e-06 0)
(0.00100891 -1.89975e-05 0)
(0.00100215 -1.60865e-05 0)
(0.000997489 -6.1176e-06 0)
(0.000996824 -8.49462e-08 0)
(0.000998411 7.70381e-07 0)
(0.00100018 -4.31505e-07 0)
(0.00100086 -1.30461e-06 0)
(0.00100088 -1.37848e-06 0)
(0.00100037 -1.25083e-06 0)
(0.000999996 8.83547e-08 0)
(0.000999969 2.73868e-07 0)
(0.000999908 5.47163e-07 0)
(0.000999877 9.0845e-07 0)
(0.000999879 1.50944e-06 0)
(0.00100009 2.26067e-06 0)
(0.00100049 3.2991e-06 0)
(0.0010015 3.9974e-06 0)
(0.00100304 4.21355e-06 0)
(0.00100596 2.36631e-06 0)
(0.00100901 -9.75166e-07 0)
(0.00100908 -4.52906e-06 0)
(0.00100544 -5.0069e-06 0)
(0.00100067 -3.12256e-06 0)
(0.000998065 -1.13217e-06 0)
(0.000998144 -2.58183e-07 0)
(0.000999634 -3.27892e-07 0)
(0.00100065 -7.38581e-07 0)
(0.00100107 -9.63959e-07 0)
(0.00100056 -1.0741e-06 0)
(0.001 9.92182e-08 0)
(0.001 3.20544e-07 0)
(0.00100002 5.75153e-07 0)
(0.00100008 9.1613e-07 0)
(0.00100021 1.32904e-06 0)
(0.00100048 1.87064e-06 0)
(0.00100098 2.40676e-06 0)
(0.00100186 2.98584e-06 0)
(0.00100319 3.11629e-06 0)
(0.0010047 2.72885e-06 0)
(0.0010057 5.05869e-07 0)
(0.00100529 -2.74654e-06 0)
(0.00100339 -5.06519e-06 0)
(0.00100097 -5.06166e-06 0)
(0.000999419 -3.44941e-06 0)
(0.000999133 -1.8007e-06 0)
(0.000999756 -1.02516e-06 0)
(0.00100026 -1.05347e-06 0)
(0.00100062 -1.30167e-06 0)
(0.00100024 -1.5157e-06 0)
(0.001 1.00988e-07 0)
(0.00100003 3.08198e-07 0)
(0.00100009 5.3984e-07 0)
(0.00100019 8.04874e-07 0)
(0.00100037 1.11678e-06 0)
(0.00100067 1.45896e-06 0)
(0.00100113 1.78763e-06 0)
(0.00100175 1.96439e-06 0)
(0.00100249 1.78981e-06 0)
(0.00100319 1.03346e-06 0)
(0.00100367 -2.77676e-07 0)
(0.00100365 -1.77167e-06 0)
(0.00100293 -2.69386e-06 0)
(0.00100172 -2.62068e-06 0)
(0.00100059 -1.77778e-06 0)
(0.000999916 -9.00902e-07 0)
(0.00099987 -4.30529e-07 0)
(0.000999992 -4.41306e-07 0)
(0.00100023 -6.09919e-07 0)
(0.00100001 -8.48685e-07 0)
(0.001 8.95955e-08 0)
(0.00100004 2.70045e-07 0)
(0.00100012 4.58737e-07 0)
(0.00100025 6.61009e-07 0)
(0.00100044 8.73155e-07 0)
(0.00100071 1.08384e-06 0)
(0.00100107 1.2389e-06 0)
(0.00100151 1.26631e-06 0)
(0.00100201 1.08157e-06 0)
(0.0010025 6.5779e-07 0)
(0.00100281 1.95058e-08 0)
(0.00100276 -7.60083e-07 0)
(0.00100228 -1.43391e-06 0)
(0.00100147 -1.7625e-06 0)
(0.00100064 -1.66564e-06 0)
(0.00100002 -1.35287e-06 0)
(0.000999804 -1.03191e-06 0)
(0.000999775 -9.29527e-07 0)
(0.000999894 -9.38826e-07 0)
(0.000999775 -1.10897e-06 0)
(0.001 7.27783e-08 0)
(0.00100005 2.15292e-07 0)
(0.00100013 3.58266e-07 0)
(0.00100026 5.01173e-07 0)
(0.00100044 6.40455e-07 0)
(0.00100068 7.65299e-07 0)
(0.00100097 8.44981e-07 0)
(0.0010013 8.37037e-07 0)
(0.00100164 6.9799e-07 0)
(0.00100192 4.06894e-07 0)
(0.00100207 -4.52706e-08 0)
(0.00100201 -5.66018e-07 0)
(0.00100172 -1.01979e-06 0)
(0.00100121 -1.27017e-06 0)
(0.00100066 -1.22796e-06 0)
(0.00100017 -9.99214e-07 0)
(0.000999923 -7.04558e-07 0)
(0.000999748 -5.50441e-07 0)
(0.000999761 -4.81919e-07 0)
(0.000999569 -5.99068e-07 0)
(0.001 5.33246e-08 0)
(0.00100005 1.54361e-07 0)
(0.00100013 2.50141e-07 0)
(0.00100026 3.38458e-07 0)
(0.00100042 4.18762e-07 0)
(0.00100063 4.83245e-07 0)
(0.00100087 5.14553e-07 0)
(0.00100113 4.8149e-07 0)
(0.00100139 3.65611e-07 0)
(0.00100158 1.55178e-07 0)
(0.00100168 -1.15365e-07 0)
(0.00100162 -4.12569e-07 0)
(0.0010014 -6.69085e-07 0)
(0.00100105 -8.34173e-07 0)
(0.00100065 -8.49621e-07 0)
(0.00100023 -7.7506e-07 0)
(0.000999958 -6.40627e-07 0)
(0.000999696 -5.92696e-07 0)
(0.000999637 -5.57818e-07 0)
(0.000999397 -6.85405e-07 0)
(0.001 3.64473e-08 0)
(0.00100004 1.07577e-07 0)
(0.00100012 1.76916e-07 0)
(0.00100024 2.41806e-07 0)
(0.00100039 3.00581e-07 0)
(0.00100057 3.49931e-07 0)
(0.00100078 3.79106e-07 0)
(0.00100099 3.73817e-07 0)
(0.00100118 3.21985e-07 0)
(0.00100132 2.23187e-07 0)
(0.00100137 8.57069e-08 0)
(0.00100132 -6.67093e-08 0)
(0.00100116 -1.99183e-07 0)
(0.00100088 -2.92359e-07 0)
(0.00100055 -3.12014e-07 0)
(0.00100018 -2.8487e-07 0)
(0.000999907 -2.04933e-07 0)
(0.000999619 -1.66575e-07 0)
(0.000999528 -1.16453e-07 0)
(0.00099926 -1.98856e-07 0)
(0.001 -3.48008e-09 0)
(0.00100005 -8.94988e-09 0)
(0.00100013 -1.19473e-08 0)
(0.00100025 -1.43607e-08 0)
(0.0010004 -1.7361e-08 0)
(0.00100057 -2.27703e-08 0)
(0.00100076 -3.26951e-08 0)
(0.00100096 -5.19582e-08 0)
(0.00100113 -8.0916e-08 0)
(0.00100125 -1.22286e-07 0)
(0.00100129 -1.69776e-07 0)
(0.00100123 -2.29198e-07 0)
(0.00100108 -2.87693e-07 0)
(0.00100082 -3.39654e-07 0)
(0.00100055 -3.59712e-07 0)
(0.00100019 -3.69132e-07 0)
(0.000999952 -3.4325e-07 0)
(0.000999616 -3.5214e-07 0)
(0.000999533 -3.27069e-07 0)
(0.000999142 -4.10648e-07 0)
)
;

boundaryField
{
    sides
    {
        type            slip;
    }
    inlet
    {
        type            fixedValue;
        value           uniform (0.001 0 0);
    }
    outlet
    {
        type            zeroGradient;
    }
    frontAndBack
    {
        type            empty;
    }
}


// ************************************************************************* //
