/*--------------------------------*- C++ -*----------------------------------*\
  =========                 |
  \\      /  F ield         | OpenFOAM: The Open Source CFD Toolbox
   \\    /   O peration     | Website:  https://openfoam.org
    \\  /    A nd           | Version:  9
     \\/     M anipulation  |
\*---------------------------------------------------------------------------*/
FoamFile
{
    format      ascii;
    class       volVectorField;
    location    "50";
    object      hU_0;
}
// * * * * * * * * * * * * * * * * * * * * * * * * * * * * * * * * * * * * * //

dimensions      [0 2 -1 0 0 0 0];

internalField   nonuniform List<vector> 
400
(
(0.001 -2.46633e-08 0)
(0.00100004 -7.15111e-08 0)
(0.00100013 -1.13893e-07 0)
(0.00100025 -1.51935e-07 0)
(0.0010004 -1.86654e-07 0)
(0.00100059 -2.17403e-07 0)
(0.0010008 -2.39321e-07 0)
(0.00100101 -2.47683e-07 0)
(0.0010012 -2.36954e-07 0)
(0.00100134 -2.1022e-07 0)
(0.00100141 -1.68356e-07 0)
(0.00100141 -1.3006e-07 0)
(0.0010013 -1.01235e-07 0)
(0.00100112 -9.44784e-08 0)
(0.00100088 -9.94637e-08 0)
(0.00100065 -1.34766e-07 0)
(0.00100044 -1.56561e-07 0)
(0.00100034 -2.01759e-07 0)
(0.00100027 -1.89057e-07 0)
(0.00100034 -2.68532e-07 0)
(0.001 -2.81398e-08 0)
(0.00100005 -8.15024e-08 0)
(0.00100014 -1.30262e-07 0)
(0.00100027 -1.73669e-07 0)
(0.00100043 -2.12221e-07 0)
(0.00100063 -2.42097e-07 0)
(0.00100086 -2.51962e-07 0)
(0.00100109 -2.26607e-07 0)
(0.00100131 -1.56759e-07 0)
(0.00100149 -4.62607e-08 0)
(0.00100158 9.39219e-08 0)
(0.00100155 2.43052e-07 0)
(0.00100142 3.8294e-07 0)
(0.0010012 4.72666e-07 0)
(0.00100093 5.05276e-07 0)
(0.00100067 4.53742e-07 0)
(0.00100049 3.77206e-07 0)
(0.00100037 2.49895e-07 0)
(0.00100034 1.99615e-07 0)
(0.0010003 8.14781e-08 0)
(0.001 -5.48331e-08 0)
(0.00100005 -1.6301e-07 0)
(0.00100014 -2.7009e-07 0)
(0.00100027 -3.73917e-07 0)
(0.00100044 -4.72429e-07 0)
(0.00100066 -5.58572e-07 0)
(0.00100091 -6.12763e-07 0)
(0.00100118 -6.07165e-07 0)
(0.00100145 -5.21268e-07 0)
(0.00100166 -3.50051e-07 0)
(0.00100178 -1.0981e-07 0)
(0.00100177 1.55836e-07 0)
(0.0010016 3.91539e-07 0)
(0.00100132 5.13847e-07 0)
(0.00100096 4.99405e-07 0)
(0.00100063 3.56401e-07 0)
(0.00100037 2.02133e-07 0)
(0.00100027 3.82237e-08 0)
(0.00100023 -9.57052e-09 0)
(0.00100031 -1.16431e-07 0)
(0.001 -7.59935e-08 0)
(0.00100005 -2.2712e-07 0)
(0.00100013 -3.79208e-07 0)
(0.00100027 -5.31177e-07 0)
(0.00100046 -6.79578e-07 0)
(0.0010007 -8.14301e-07 0)
(0.00100101 -9.00963e-07 0)
(0.00100136 -8.97634e-07 0)
(0.00100172 -7.60158e-07 0)
(0.00100204 -4.72408e-07 0)
(0.00100223 -2.40181e-08 0)
(0.0010022 4.83967e-07 0)
(0.00100194 9.24268e-07 0)
(0.00100147 1.13153e-06 0)
(0.00100098 1.05419e-06 0)
(0.00100059 7.45729e-07 0)
(0.00100042 4.21538e-07 0)
(0.00100036 1.59212e-07 0)
(0.00100041 9.42216e-08 0)
(0.00100035 2.02544e-09 0)
(0.001 -9.33823e-08 0)
(0.00100004 -2.83344e-07 0)
(0.00100012 -4.82081e-07 0)
(0.00100025 -6.9509e-07 0)
(0.00100045 -9.19942e-07 0)
(0.00100073 -1.14431e-06 0)
(0.00100111 -1.31208e-06 0)
(0.00100157 -1.35076e-06 0)
(0.00100208 -1.18082e-06 0)
(0.00100258 -7.77703e-07 0)
(0.00100291 -1.71307e-07 0)
(0.00100289 5.68251e-07 0)
(0.00100245 1.21689e-06 0)
(0.00100168 1.50233e-06 0)
(0.00100087 1.37368e-06 0)
(0.00100032 9.66627e-07 0)
(0.00100014 5.78218e-07 0)
(0.00100022 3.00786e-07 0)
(0.00100038 2.51892e-07 0)
(0.00100044 1.69505e-07 0)
(0.001 -1.05884e-07 0)
(0.00100003 -3.24185e-07 0)
(0.00100009 -5.67312e-07 0)
(0.0010002 -8.45693e-07 0)
(0.00100039 -1.17207e-06 0)
(0.0010007 -1.53026e-06 0)
(0.00100116 -1.87268e-06 0)
(0.0010018 -2.0684e-06 0)
(0.00100255 -1.91794e-06 0)
(0.00100327 -1.20147e-06 0)
(0.00100378 8.48006e-08 0)
(0.00100379 1.53143e-06 0)
(0.00100311 2.4171e-06 0)
(0.00100193 2.29465e-06 0)
(0.00100083 1.428e-06 0)
(0.0010002 4.93458e-07 0)
(0.00100018 9.65293e-09 0)
(0.00100038 -9.73287e-08 0)
(0.00100065 5.05183e-08 0)
(0.00100055 5.07528e-08 0)
(0.001 -1.05363e-07 0)
(0.001 -3.39069e-07 0)
(0.00100002 -6.06718e-07 0)
(0.00100008 -9.62901e-07 0)
(0.00100022 -1.39197e-06 0)
(0.0010005 -1.95145e-06 0)
(0.00100101 -2.50209e-06 0)
(0.00100189 -3.09735e-06 0)
(0.00100322 -3.24047e-06 0)
(0.00100474 -2.87909e-06 0)
(0.00100575 -6.74883e-07 0)
(0.00100536 2.54777e-06 0)
(0.00100351 4.81546e-06 0)
(0.00100114 4.7276e-06 0)
(0.000999619 3.02642e-06 0)
(0.000999383 1.26395e-06 0)
(0.00100002 4.25714e-07 0)
(0.00100057 3.11815e-07 0)
(0.00100093 5.50642e-07 0)
(0.00100067 5.3484e-07 0)
(0.000999996 -9.52219e-08 0)
(0.000999968 -2.93629e-07 0)
(0.000999908 -5.8114e-07 0)
(0.00099988 -9.57909e-07 0)
(0.000999887 -1.57773e-06 0)
(0.00100011 -2.35007e-06 0)
(0.00100052 -3.41434e-06 0)
(0.00100153 -4.13675e-06 0)
(0.00100309 -4.37656e-06 0)
(0.00100602 -2.54482e-06 0)
(0.00100912 7.58989e-07 0)
(0.00100916 4.26513e-06 0)
(0.00100551 4.71451e-06 0)
(0.00100075 2.77851e-06 0)
(0.00099816 7.34367e-07 0)
(0.000998285 -2.75297e-07 0)
(0.000999811 -2.91062e-07 0)
(0.00100089 -2.22058e-08 0)
(0.00100134 2.02313e-07 0)
(0.00100086 1.02972e-07 0)
(0.000999996 -5.12486e-08 0)
(0.000999915 -2.07306e-07 0)
(0.000999757 -3.89676e-07 0)
(0.000999535 -7.36436e-07 0)
(0.000999296 -1.3398e-06 0)
(0.000999223 -2.48618e-06 0)
(0.000999719 -4.69633e-06 0)
(0.00100141 -8.0766e-06 0)
(0.00100492 -1.32872e-05 0)
(0.0010096 -1.49079e-05 0)
(0.0010119 3.84736e-06 0)
(0.00100894 1.87297e-05 0)
(0.00100223 1.57803e-05 0)
(0.000997573 5.74091e-06 0)
(0.000996892 -3.15888e-07 0)
(0.00099847 -1.26362e-06 0)
(0.00100028 -9.92281e-08 0)
(0.00100102 6.25517e-07 0)
(0.00100108 6.44419e-07 0)
(0.00100055 2.43919e-07 0)
(0.000999805 -2.06855e-08 0)
(0.00100017 -6.82779e-08 0)
(0.000999216 -1.53345e-07 0)
(0.000999908 -2.5063e-07 0)
(0.00099753 -5.94852e-07 0)
(0.000998856 -1.13561e-06 0)
(0.000993359 -2.88861e-06 0)
(0.000997542 -5.59572e-06 0)
(0.000991679 -1.15437e-05 0)
(0.000915843 -1.27057e-05 0)
(0.000951479 2.69192e-07 0)
(0.00101025 1.46394e-05 0)
(0.000990961 1.30838e-05 0)
(0.00098398 5.14023e-06 0)
(0.000989593 1.94371e-07 0)
(0.00099629 -7.8201e-07 0)
(0.000999249 -1.14766e-07 0)
(0.000999425 2.43218e-07 0)
(0.000998656 1.69776e-07 0)
(0.000998513 -1.84513e-07 0)
(0.000999805 1.34409e-08 0)
(0.00100017 4.62594e-08 0)
(0.000999216 1.16629e-07 0)
(0.000999906 1.97373e-07 0)
(0.000997527 5.25463e-07 0)
(0.00099885 1.04821e-06 0)
(0.000993352 2.78516e-06 0)
(0.00099753 5.47304e-06 0)
(0.000991662 1.13971e-05 0)
(0.000915819 1.25447e-05 0)
(0.000951442 -4.69597e-07 0)
(0.00101022 -1.49095e-05 0)
(0.000990957 -1.34079e-05 0)
(0.000983975 -5.53428e-06 0)
(0.000989575 -6.4892e-07 0)
(0.000996253 2.45641e-07 0)
(0.000999208 -4.74189e-07 0)
(0.000999379 -1.00303e-06 0)
(0.000998641 -9.89986e-07 0)
(0.000998463 -8.88581e-07 0)
(0.000999996 4.40088e-08 0)
(0.000999916 1.85905e-07 0)
(0.000999756 3.53693e-07 0)
(0.000999534 6.84281e-07 0)
(0.000999294 1.27197e-06 0)
(0.000999222 2.39985e-06 0)
(0.000999715 4.59189e-06 0)
(0.0010014 7.94543e-06 0)
(0.00100491 1.31311e-05 0)
(0.0010096 1.47176e-05 0)
(0.0010119 -4.066e-06 0)
(0.00100891 -1.89971e-05 0)
(0.00100216 -1.60878e-05 0)
(0.000997488 -6.11941e-06 0)
(0.000996823 -8.59726e-08 0)
(0.000998412 7.70595e-07 0)
(0.00100018 -4.30202e-07 0)
(0.00100086 -1.30341e-06 0)
(0.00100089 -1.3782e-06 0)
(0.00100037 -1.25071e-06 0)
(0.000999996 8.82803e-08 0)
(0.000999969 2.73227e-07 0)
(0.000999907 5.46026e-07 0)
(0.000999876 9.06958e-07 0)
(0.000999879 1.50847e-06 0)
(0.00100009 2.26093e-06 0)
(0.00100049 3.29988e-06 0)
(0.0010015 3.99756e-06 0)
(0.00100304 4.21165e-06 0)
(0.00100595 2.36389e-06 0)
(0.00100904 -9.77703e-07 0)
(0.00100908 -4.52788e-06 0)
(0.00100543 -5.00865e-06 0)
(0.00100067 -3.12455e-06 0)
(0.000998067 -1.13303e-06 0)
(0.000998146 -2.5737e-07 0)
(0.000999635 -3.25568e-07 0)
(0.00100065 -7.36632e-07 0)
(0.00100107 -9.63783e-07 0)
(0.00100056 -1.07427e-06 0)
(0.001 9.9094e-08 0)
(0.001 3.19503e-07 0)
(0.00100002 5.73468e-07 0)
(0.00100008 9.14352e-07 0)
(0.00100021 1.32811e-06 0)
(0.00100048 1.871e-06 0)
(0.00100098 2.40736e-06 0)
(0.00100186 2.98552e-06 0)
(0.00100319 3.11573e-06 0)
(0.0010047 2.72887e-06 0)
(0.0010057 5.11017e-07 0)
(0.00100528 -2.74659e-06 0)
(0.00100339 -5.06408e-06 0)
(0.00100097 -5.06188e-06 0)
(0.000999421 -3.44957e-06 0)
(0.000999134 -1.79948e-06 0)
(0.000999757 -1.02239e-06 0)
(0.00100026 -1.05142e-06 0)
(0.00100062 -1.30195e-06 0)
(0.00100024 -1.51622e-06 0)
(0.001 1.00677e-07 0)
(0.00100003 3.06838e-07 0)
(0.00100009 5.37765e-07 0)
(0.00100019 8.03026e-07 0)
(0.00100037 1.11611e-06 0)
(0.00100067 1.45953e-06 0)
(0.00100113 1.78787e-06 0)
(0.00100175 1.96352e-06 0)
(0.00100249 1.78893e-06 0)
(0.00100319 1.03495e-06 0)
(0.00100367 -2.77663e-07 0)
(0.00100365 -1.76777e-06 0)
(0.00100293 -2.69175e-06 0)
(0.00100172 -2.62024e-06 0)
(0.00100059 -1.77745e-06 0)
(0.000999917 -8.99625e-07 0)
(0.00099987 -4.28008e-07 0)
(0.000999992 -4.39484e-07 0)
(0.00100023 -6.10546e-07 0)
(0.00100001 -8.49424e-07 0)
(0.001 8.9048e-08 0)
(0.00100004 2.68572e-07 0)
(0.00100012 4.56559e-07 0)
(0.00100025 6.59074e-07 0)
(0.00100044 8.72749e-07 0)
(0.00100071 1.0847e-06 0)
(0.00100107 1.23924e-06 0)
(0.00100151 1.26494e-06 0)
(0.00100201 1.08004e-06 0)
(0.0010025 6.57786e-07 0)
(0.00100281 2.23535e-08 0)
(0.00100276 -7.56748e-07 0)
(0.00100229 -1.43178e-06 0)
(0.00100148 -1.76186e-06 0)
(0.00100064 -1.66555e-06 0)
(0.00100002 -1.35205e-06 0)
(0.000999803 -1.02972e-06 0)
(0.000999774 -9.27882e-07 0)
(0.000999893 -9.39483e-07 0)
(0.000999775 -1.10966e-06 0)
(0.001 7.21597e-08 0)
(0.00100005 2.13859e-07 0)
(0.00100013 3.56273e-07 0)
(0.00100026 4.99208e-07 0)
(0.00100044 6.40027e-07 0)
(0.00100068 7.66396e-07 0)
(0.00100097 8.45765e-07 0)
(0.0010013 8.36008e-07 0)
(0.00100164 6.96052e-07 0)
(0.00100192 4.0613e-07 0)
(0.00100207 -4.41986e-08 0)
(0.00100201 -5.64064e-07 0)
(0.00100172 -1.01876e-06 0)
(0.00100121 -1.27057e-06 0)
(0.00100066 -1.22868e-06 0)
(0.00100017 -9.98963e-07 0)
(0.000999922 -7.0281e-07 0)
(0.000999747 -5.48913e-07 0)
(0.00099976 -4.82227e-07 0)
(0.000999569 -5.99503e-07 0)
(0.001 5.29042e-08 0)
(0.00100005 1.53058e-07 0)
(0.00100013 2.48327e-07 0)
(0.00100026 3.36718e-07 0)
(0.00100042 4.18233e-07 0)
(0.00100063 4.8433e-07 0)
(0.00100087 5.15632e-07 0)
(0.00100113 4.81188e-07 0)
(0.00100139 3.64216e-07 0)
(0.00100158 1.54364e-07 0)
(0.00100168 -1.15024e-07 0)
(0.00100162 -4.11733e-07 0)
(0.00100141 -6.69042e-07 0)
(0.00100105 -8.35085e-07 0)
(0.00100065 -8.50514e-07 0)
(0.00100023 -7.7506e-07 0)
(0.000999956 -6.39286e-07 0)
(0.000999696 -5.91298e-07 0)
(0.000999637 -5.57817e-07 0)
(0.000999396 -6.85666e-07 0)
(0.001 3.63837e-08 0)
(0.00100004 1.06729e-07 0)
(0.00100012 1.75552e-07 0)
(0.00100024 2.40627e-07 0)
(0.00100039 3.00186e-07 0)
(0.00100057 3.50614e-07 0)
(0.00100078 3.80075e-07 0)
(0.00100099 3.74009e-07 0)
(0.00100118 3.21516e-07 0)
(0.00100132 2.22907e-07 0)
(0.00100137 8.6001e-08 0)
(0.00100132 -6.61554e-08 0)
(0.00100116 -1.99122e-07 0)
(0.00100088 -2.92888e-07 0)
(0.00100055 -3.12617e-07 0)
(0.00100017 -2.84868e-07 0)
(0.000999906 -2.03876e-07 0)
(0.000999619 -1.65457e-07 0)
(0.000999527 -1.16427e-07 0)
(0.000999259 -1.99076e-07 0)
(0.001 -3.41445e-09 0)
(0.00100005 -9.19033e-09 0)
(0.00100013 -1.24225e-08 0)
(0.00100025 -1.47579e-08 0)
(0.00100039 -1.75028e-08 0)
(0.00100057 -2.25732e-08 0)
(0.00100076 -3.23104e-08 0)
(0.00100096 -5.17478e-08 0)
(0.00100113 -8.08983e-08 0)
(0.00100125 -1.22276e-07 0)
(0.00100129 -1.6945e-07 0)
(0.00100123 -2.28927e-07 0)
(0.00100108 -2.87748e-07 0)
(0.00100082 -3.39885e-07 0)
(0.00100055 -3.59929e-07 0)
(0.00100019 -3.69101e-07 0)
(0.000999951 -3.42812e-07 0)
(0.000999616 -3.51687e-07 0)
(0.000999532 -3.2706e-07 0)
(0.00099914 -4.10749e-07 0)
)
;

boundaryField
{
    sides
    {
        type            slip;
    }
    inlet
    {
        type            fixedValue;
        value           uniform (0.001 0 0);
    }
    outlet
    {
        type            zeroGradient;
    }
    frontAndBack
    {
        type            empty;
    }
}


// ************************************************************************* //
