/*--------------------------------*- C++ -*----------------------------------*\
  =========                 |
  \\      /  F ield         | OpenFOAM: The Open Source CFD Toolbox
   \\    /   O peration     | Website:  https://openfoam.org
    \\  /    A nd           | Version:  9
     \\/     M anipulation  |
\*---------------------------------------------------------------------------*/
FoamFile
{
    format      ascii;
    class       volScalarField;
    location    "0.1";
    object      delta;
}
// * * * * * * * * * * * * * * * * * * * * * * * * * * * * * * * * * * * * * //

dimensions      [0 0 0 0 0 0 0];

internalField   nonuniform List<scalar> 
500
(
2.05682e-91
4.37612e-88
4.88655e-85
3.35627e-82
1.55904e-79
5.21846e-77
1.31721e-74
2.59465e-72
4.09667e-70
5.29725e-68
5.70964e-66
5.20619e-64
4.06662e-62
2.75066e-60
1.62631e-58
8.47446e-57
3.92038e-55
1.62059e-53
6.02121e-52
2.02135e-50
6.1606e-49
1.71205e-47
4.35562e-46
1.01816e-44
2.19418e-43
4.37298e-42
8.08328e-41
1.38953e-39
2.22694e-38
3.33522e-37
4.67807e-36
6.15782e-35
7.62155e-34
8.88593e-33
9.7757e-32
1.01643e-30
1.00035e-29
9.3325e-29
8.26424e-28
6.95547e-27
5.57055e-26
4.2503e-25
3.0929e-24
2.14877e-23
1.42665e-22
9.06061e-22
5.50927e-21
3.20991e-20
1.7935e-19
9.61725e-19
4.95282e-18
2.45133e-17
1.16676e-16
5.34388e-16
2.35657e-15
1.00112e-14
4.09927e-14
1.61863e-13
6.16612e-13
2.26719e-12
8.04918e-12
2.76039e-11
9.14748e-11
2.93014e-10
9.07548e-10
2.71876e-09
7.87976e-09
2.21006e-08
5.99999e-08
1.57705e-07
4.01402e-07
9.89545e-07
2.36316e-06
5.46797e-06
1.22604e-05
2.6644e-05
5.61273e-05
0.00011463
0.000227005
0.000435974
0.000812171
0.00146783
0.00257417
0.00438156
0.00724043
0.011619
0.018113
0.0274406
0.0404173
0.0579063
0.0807446
0.109649
0.145115
0.187316
0.236037
0.290631
0.350041
0.412863
0.47745
0.542056
0.604978
0.664691
0.71995
0.76986
0.813893
0.851872
0.883926
0.910421
0.931889
0.948954
0.962273
0.972491
0.9802
0.985925
0.990113
0.993134
0.995284
0.996794
0.997842
0.998561
0.999049
0.999377
0.999595
0.999739
0.999833
0.999894
0.999933
0.999958
0.999974
0.999984
0.99999
0.999994
0.999996
0.999998
0.999999
0.999999
0.999999
1
1
1
1
1
1
1
1
1
1
1
1
1
1
1
1
1
1
1
1
1
1
1
1
1
1
1
1
1
1
1
1
1
1
1
1
1
1
1
1
1
1
1
1
1
1
1
1
1
1
1
1
1
1
1
1
1
1
1
1
1
1
1
1
1
1
1
1
1
1
1
1
1
1
1
1
1
1
1
1
1
1
1
1
1
1
1
1
1
1
1
1
1
1
1
1
1
1
1
1
1
1
1
1
1
1
1
1
1
1
1
1
1
1
1
1
1
1
1
1
1
1
1
1
1
1
1
1
1
1
1
1
1
1
1
1
1
1
1
1
1
1
1
1
1
1
1
1
1
1
1
1
1
1
1
1
1
1
1
1
1
1
1
1
1
1
1
1
1
1
1
1
1
1
1
1
1
1
1
1
1
1
1
1
1
1
1
1
1
1
1
1
1
1
1
1
1
1
1
1
1
1
1
1
1
1
1
1
1.00001
1.00001
1.00001
1.00001
1.00001
1.00001
1.00002
1.00002
1.00003
1.00003
1.00004
1.00005
1.00006
1.00007
1.00009
1.0001
1.00013
1.00015
1.00018
1.00022
1.00026
1.00032
1.00038
1.00045
1.00054
1.00064
1.00076
1.0009
1.00107
1.00126
1.00149
1.00176
1.00207
1.00244
1.00286
1.00335
1.00393
1.00459
1.00536
1.00625
1.00727
1.00845
1.00981
1.01137
1.01316
1.0152
1.01754
1.02022
1.02326
1.02673
1.03067
1.03515
1.04022
1.04595
1.05243
1.05974
1.06798
1.07725
1.08765
1.09933
1.1124
1.12702
1.14335
1.16155
1.18182
1.20436
1.22938
1.25712
1.28783
1.32178
1.35926
1.40057
1.44604
1.49602
1.55087
1.611
1.6768
1.74872
1.82721
1.91276
2.00586
2.10703
2.21684
2.33584
2.46463
2.60381
2.75402
2.91591
3.09014
3.2774
3.47837
3.69378
3.92433
4.17076
4.4338
4.71419
5.01266
5.32995
5.66679
6.0239
6.40199
6.80175
7.22386
7.66898
8.13773
8.6307
9.14846
9.69153
10.2604
10.8555
11.4772
12.1259
12.8019
13.5053
14.2363
14.9951
15.7817
16.5959
17.4377
18.307
19.2034
20.1267
21.0763
22.0518
23.0527
24.0783
25.1278
26.2005
27.2954
28.4117
29.5483
30.7041
31.878
33.0688
34.2752
35.4958
36.7293
37.9743
39.2293
40.4928
41.7633
43.0393
44.3191
45.6012
46.8839
48.1658
49.4451
50.7203
51.9898
53.2521
54.5056
55.7488
56.9802
58.1984
59.402
)
;

boundaryField
{
    lowValue
    {
        type            calculated;
        value           uniform 1.45901e-94;
    }
    highValue
    {
        type            calculated;
        value           uniform 60;
    }
    defaultFaces
    {
        type            empty;
    }
}


// ************************************************************************* //
