/*--------------------------------*- C++ -*----------------------------------*\
  =========                 |
  \\      /  F ield         | OpenFOAM: The Open Source CFD Toolbox
   \\    /   O peration     | Website:  https://openfoam.org
    \\  /    A nd           | Version:  9
     \\/     M anipulation  |
\*---------------------------------------------------------------------------*/
FoamFile
{
    format      ascii;
    class       volScalarField;
    location    "0.1";
    object      V;
}
// * * * * * * * * * * * * * * * * * * * * * * * * * * * * * * * * * * * * * //

dimensions      [0 1 0 0 0 0 0];

internalField   nonuniform List<scalar> 
500
(
7.57289e-95
4.23384e-91
8.93347e-88
9.89041e-85
6.73463e-82
3.10117e-79
1.02893e-76
2.5742e-74
5.02543e-72
7.86324e-70
1.00755e-67
1.07606e-65
9.72141e-64
7.52309e-62
5.04107e-60
2.95248e-58
1.52393e-56
6.98275e-55
2.85887e-53
1.05197e-51
3.49736e-50
1.05555e-48
2.90478e-47
7.31765e-46
1.69374e-44
3.61411e-43
7.13171e-42
1.30521e-40
2.22144e-39
3.52485e-38
5.22662e-37
7.25818e-36
9.45922e-35
1.15916e-33
1.33808e-32
1.45752e-31
1.50054e-30
1.46231e-29
1.35089e-28
1.18463e-27
9.87388e-27
7.83194e-26
5.91879e-25
4.26635e-24
2.93627e-23
1.93145e-22
1.21543e-21
7.32364e-21
4.22904e-20
2.34223e-19
1.24515e-18
6.35831e-18
3.12096e-17
1.4735e-16
6.69574e-16
2.93018e-15
1.23561e-14
5.0234e-14
1.96997e-13
7.45556e-13
2.72431e-12
9.61564e-12
3.27961e-11
1.08133e-10
3.44786e-10
1.06352e-09
3.1746e-09
9.17315e-09
2.56663e-08
6.95583e-08
1.82639e-07
4.64741e-07
1.14634e-06
2.7416e-06
6.35907e-06
1.43082e-05
3.12378e-05
6.61893e-05
0.00013615
0.000271943
0.000527582
0.000994441
0.00182171
0.0032444
0.00561958
0.00947018
0.0155341
0.0248138
0.0386193
0.0585963
0.0867278
0.125303
0.176848
0.244014
0.329434
0.435563
0.564508
0.71788
0.89668
1.10124
1.33119
1.58556
1.8628
2.16096
2.4778
2.81095
3.15805
3.51681
3.88513
4.26115
4.64324
5.03005
5.42046
5.81358
6.20869
6.60526
7.00289
7.40125
7.80015
8.1994
8.5989
8.99857
9.39836
9.79822
10.1981
10.5981
10.998
11.398
11.798
12.198
12.598
12.998
13.398
13.798
14.198
14.598
14.998
15.398
15.798
16.198
16.598
16.998
17.398
17.798
18.198
18.598
18.998
19.398
19.798
20.198
20.598
20.998
21.398
21.798
22.198
22.598
22.998
23.398
23.798
24.198
24.598
24.998
25.398
25.798
26.198
26.598
26.998
27.398
27.798
28.198
28.598
28.998
29.398
29.798
30.198
30.598
30.998
31.398
31.798
32.198
32.598
32.998
33.398
33.798
34.198
34.598
34.998
35.398
35.798
36.198
36.598
36.998
37.398
37.798
38.198
38.598
38.998
39.398
39.798
40.198
40.598
40.998
41.398
41.798
42.198
42.598
42.998
43.398
43.798
44.198
44.598
44.998
45.398
45.798
46.198
46.598
46.998
47.398
47.798
48.198
48.598
48.998
49.398
49.798
50.198
50.598
50.998
51.398
51.798
52.198
52.598
52.998
53.398
53.798
54.198
54.598
54.998
55.398
55.798
56.198
56.598
56.998
57.398
57.798
58.198
58.598
58.998
59.398
59.798
60.198
60.598
60.998
61.398
61.798
62.198
62.598
62.998
63.398
63.798
64.198
64.598
64.998
65.398
65.798
66.198
66.598
66.998
67.398
67.798
68.198
68.598
68.998
69.398
69.798
70.198
70.598
70.998
71.398
71.798
72.198
72.598
72.998
73.398
73.798
74.198
74.598
74.998
75.398
75.798
76.198
76.598
76.998
77.398
77.798
78.198
78.598
78.998
79.398
79.798
80.198
80.598
80.998
81.398
81.798
82.198
82.598
82.998
83.398
83.798
84.198
84.598
84.998
85.398
85.798
86.198
86.598
86.998
87.398
87.798
88.198
88.598
88.998
89.398
89.798
90.198
90.598
90.998
91.398
91.798
92.198
92.598
92.998
93.398
93.798
94.198
94.598
94.998
95.398
95.798
96.198
96.598
96.998
97.398
97.798
98.198
98.598
98.998
99.398
99.798
100.198
100.598
100.998
101.398
101.798
102.198
102.598
102.998
103.398
103.798
104.198
104.598
104.998
105.398
105.798
106.199
106.599
106.999
107.399
107.799
108.199
108.6
109
109.4
109.801
110.201
110.602
111.003
111.404
111.805
112.206
112.608
113.009
113.411
113.814
114.216
114.619
115.023
115.427
115.832
116.238
116.644
117.052
117.46
117.87
118.281
118.694
119.109
119.526
119.946
120.368
120.793
121.222
121.654
122.091
122.532
122.979
123.432
123.892
124.359
124.835
125.32
125.815
126.322
126.841
127.374
127.922
128.488
129.071
129.676
130.302
130.953
131.631
132.337
133.076
133.849
134.66
135.512
136.408
137.352
138.348
139.4
140.513
141.691
142.938
144.261
145.664
147.153
148.735
150.415
152.201
154.098
156.114
158.257
160.534
162.954
165.524
168.253
171.149
174.223
177.483
180.938
184.599
188.475
192.576
196.914
201.497
206.337
211.445
216.831
222.506
228.481
234.767
241.374
248.314
255.598
263.235
271.236
279.613
288.374
297.53
307.091
317.066
327.464
338.294
349.565
361.284
373.458
386.096
399.204
412.788
426.853
441.406
456.45
471.989
488.028
504.568
521.613
539.163
557.22
575.785
594.857
614.435
634.519
655.105
676.191
697.775
719.852
742.417
765.467
788.995
)
;

boundaryField
{
    lowValue
    {
        type            fixedValue;
        value           uniform 0;
    }
    highValue
    {
        type            fixedGradient;
        gradient        uniform 60;
    }
    defaultFaces
    {
        type            empty;
    }
}


// ************************************************************************* //
