# vtk DataFile Version 2.0
sampleSurface
ASCII
DATASET POLYDATA
POINTS 189 float
-4 0 0 -5 0 0 -5 0 1 -4 0
1 -3 0 0 -3 0 1 -2 0 0
-2 0 1 -1 0 0 -1 0 1 0
0 0 0 0 1 1 0 0 1 0
1 2 0 0 2 0 1 3 0 0
3 0 1 4 0 0 4 0 1 5
0 0 5 0 1 6 0 0 6 0
1 7 0 0 7 0 1 8 0 0
8 0 1 9 0 0 9 0 1 10
0 0 10 0 1 11 0 0 11 0
1 12 0 0 12 0 1 13 0 0
13 0 1 14 0 0 14 0 1 15
0 1 15 0 0 -5 0 2 -4 0
2 -3 0 2 -2 0 2 -1 0 2
0 0 2 1 0 2 2 0 2 3
0 2 4 0 2 5 0 2 6 0
2 7 0 2 8 0 2 9 0 2
10 0 2 11 0 2 12 0 2 13
0 2 14 0 2 15 0 2 -5 0
3 -4 0 3 -3 0 3 -2 0 3
-1 0 3 0 0 3 1 0 3 2
0 3 3 0 3 4 0 3 5 0
3 6 0 3 7 0 3 8 0 3
9 0 3 10 0 3 11 0 3 12
0 3 13 0 3 14 0 3 15 0
3 -5 0 4 -4 0 4 -3 0 4
-2 0 4 -1 0 4 0 0 4 1
0 4 2 0 4 3 0 4 4 0
4 5 0 4 6 0 4 7 0 4
8 0 4 9 0 4 10 0 4 11
0 4 12 0 4 13 0 4 14 0
4 15 0 4 -5 0 5 -4 0 5
-3 0 5 -2 0 5 -1 0 5 0
0 5 1 0 5 2 0 5 3 0
5 4 0 5 5 0 5 6 0 5
7 0 5 8 0 5 9 0 5 10
0 5 11 0 5 12 0 5 13 0
5 14 0 5 15 0 5 -5 0 6
-4 0 6 -3 0 6 -2 0 6 -1
0 6 0 0 6 1 0 6 2 0
6 3 0 6 4 0 6 5 0 6
6 0 6 7 0 6 8 0 6 9
0 6 10 0 6 11 0 6 12 0
6 13 0 6 14 0 6 15 0 6
-5 0 7 -4 0 7 -3 0 7 -2
0 7 -1 0 7 0 0 7 1 0
7 2 0 7 3 0 7 4 0 7
5 0 7 6 0 7 7 0 7 8
0 7 9 0 7 10 0 7 11 0
7 12 0 7 13 0 7 14 0 7
15 0 7 -5 0 8 -4 0 8 -3
0 8 -2 0 8 -1 0 8 0 0
8 1 0 8 2 0 8 3 0 8
4 0 8 5 0 8 6 0 8 7
0 8 8 0 8 9 0 8 10 0
8 11 0 8 12 0 8 13 0 8
14 0 8 15 0 8 
POLYGONS 160 800
4 0 1 2 3 4 4 0 3 5 4
6 4 5 7 4 8 6 7 9 4
10 8 9 11 4 12 10 11 13 4
14 12 13 15 4 16 14 15 17 4
18 16 17 19 4 20 18 19 21 4
22 20 21 23 4 24 22 23 25 4
26 24 25 27 4 28 26 27 29 4
30 28 29 31 4 32 30 31 33 4
34 32 33 35 4 36 34 35 37 4
38 36 37 39 4 40 41 38 39 4
3 2 42 43 4 5 3 43 44 4
7 5 44 45 4 9 7 45 46 4
11 9 46 47 4 13 11 47 48 4
15 13 48 49 4 17 15 49 50 4
19 17 50 51 4 21 19 51 52 4
23 21 52 53 4 25 23 53 54 4
27 25 54 55 4 29 27 55 56 4
31 29 56 57 4 33 31 57 58 4
35 33 58 59 4 37 35 59 60 4
39 37 60 61 4 62 40 39 61 4
43 42 63 64 4 44 43 64 65 4
45 44 65 66 4 46 45 66 67 4
47 46 67 68 4 48 47 68 69 4
49 48 69 70 4 50 49 70 71 4
51 50 71 72 4 52 51 72 73 4
53 52 73 74 4 54 53 74 75 4
55 54 75 76 4 56 55 76 77 4
57 56 77 78 4 58 57 78 79 4
59 58 79 80 4 60 59 80 81 4
61 60 81 82 4 83 62 61 82 4
64 63 84 85 4 65 64 85 86 4
66 65 86 87 4 67 66 87 88 4
68 67 88 89 4 69 68 89 90 4
70 69 90 91 4 71 70 91 92 4
72 71 92 93 4 73 72 93 94 4
74 73 94 95 4 75 74 95 96 4
76 75 96 97 4 77 76 97 98 4
78 77 98 99 4 79 78 99 100 4
80 79 100 101 4 81 80 101 102 4
82 81 102 103 4 104 83 82 103 4
85 84 105 106 4 86 85 106 107 4
87 86 107 108 4 88 87 108 109 4
89 88 109 110 4 90 89 110 111 4
91 90 111 112 4 92 91 112 113 4
93 92 113 114 4 94 93 114 115 4
95 94 115 116 4 96 95 116 117 4
97 96 117 118 4 98 97 118 119 4
99 98 119 120 4 100 99 120 121 4
101 100 121 122 4 102 101 122 123 4
103 102 123 124 4 125 104 103 124 4
106 105 126 127 4 107 106 127 128 4
108 107 128 129 4 109 108 129 130 4
110 109 130 131 4 111 110 131 132 4
112 111 132 133 4 113 112 133 134 4
114 113 134 135 4 115 114 135 136 4
116 115 136 137 4 117 116 137 138 4
118 117 138 139 4 119 118 139 140 4
120 119 140 141 4 121 120 141 142 4
122 121 142 143 4 123 122 143 144 4
124 123 144 145 4 146 125 124 145 4
127 126 147 148 4 128 127 148 149 4
129 128 149 150 4 130 129 150 151 4
131 130 151 152 4 132 131 152 153 4
133 132 153 154 4 134 133 154 155 4
135 134 155 156 4 136 135 156 157 4
137 136 157 158 4 138 137 158 159 4
139 138 159 160 4 140 139 160 161 4
141 140 161 162 4 142 141 162 163 4
143 142 163 164 4 144 143 164 165 4
145 144 165 166 4 167 146 145 166 4
148 147 168 169 4 149 148 169 170 4
150 149 170 171 4 151 150 171 172 4
152 151 172 173 4 153 152 173 174 4
154 153 174 175 4 155 154 175 176 4
156 155 176 177 4 157 156 177 178 4
158 157 178 179 4 159 158 179 180 4
160 159 180 181 4 161 160 181 182 4
162 161 182 183 4 163 162 183 184 4
164 163 184 185 4 165 164 185 186 4
166 165 186 187 4 167 166 187 188 
POINT_DATA 189
FIELD attributes 1
p 1 189 float
-1.65363e-13 -1.30536e-13 -1.27866e-13 -1.48701e-13 -1.79076e-13 -1.62309e-13 -1.59812e-13 -1.64181e-13 -1.50131e-13 -1.59753e-13 -1.36582e-13
-1.38045e-13 -1.40184e-13 -1.30456e-13 -1.3188e-13 -1.236e-13 -1.04484e-13 -1.05683e-13 -8.19565e-14 -8.64197e-14 -7.07496e-14
-7.78546e-14 -6.14739e-14 -6.93622e-14 -4.57841e-14 -5.37628e-14 -5.22336e-14 -5.78653e-14 -6.98413e-14 -6.86674e-14 -5.88397e-14
-5.92686e-14 -4.51706e-14 -4.75946e-14 -3.34697e-14 -3.18321e-14 -9.56725e-15 -9.81936e-15 5.85587e-16 -1.05175e-15 0
-7.70448e-16 -1.3205e-13 -1.35003e-13 -1.46526e-13 -1.67635e-13 -1.67678e-13 -1.41562e-13 -1.24361e-13 -1.17156e-13 -1.05188e-13
-8.79051e-14 -8.10744e-14 -7.62235e-14 -6.51144e-14 -6.51629e-14 -6.48588e-14 -5.57657e-14 -4.76377e-14 -3.3089e-14 -1.38823e-14
-3.09814e-15 0 -1.34066e-13 -1.38614e-13 -1.51537e-13 -1.63937e-13 -1.62412e-13 -1.43686e-13 -1.2355e-13 -1.1411e-13
-1.05249e-13 -9.23693e-14 -8.52918e-14 -7.87309e-14 -7.05537e-14 -7.12676e-14 -6.7073e-14 -5.35684e-14 -4.2182e-14 -3.09169e-14
-1.73251e-14 -4.84932e-15 0 -1.34577e-13 -1.46633e-13 -1.62859e-13 -1.62084e-13 -1.50756e-13 -1.34554e-13 -1.14502e-13
-1.04226e-13 -1.0795e-13 -1.09042e-13 -1.0113e-13 -8.90466e-14 -7.94625e-14 -7.57151e-14 -6.73123e-14 -5.35136e-14 -3.9251e-14
-2.72475e-14 -1.74855e-14 -4.25274e-15 0 -1.52954e-13 -1.64826e-13 -1.72794e-13 -1.57418e-13 -1.31138e-13 -1.11406e-13
-1.04893e-13 -1.04751e-13 -1.16389e-13 -1.24979e-13 -1.1418e-13 -9.78921e-14 -8.70817e-14 -7.74813e-14 -6.35494e-14 -4.95126e-14
-3.7563e-14 -2.88516e-14 -1.82461e-14 -3.15249e-15 0 -1.45397e-13 -1.6307e-13 -1.74887e-13 -1.59321e-13 -1.25855e-13
-9.12686e-14 -9.37286e-14 -1.18673e-13 -1.34318e-13 -1.29925e-13 -1.15916e-13 -1.06164e-13 -9.39209e-14 -7.7612e-14 -6.06651e-14
-4.39623e-14 -3.06665e-14 -2.47903e-14 -1.80972e-14 -4.65087e-15 0 -1.32223e-13 -1.51276e-13 -1.69203e-13 -1.64227e-13
-1.34159e-13 -8.39446e-14 -7.95892e-14 -1.25499e-13 -1.46776e-13 -1.25295e-13 -1.13206e-13 -1.1441e-13 -9.90722e-14 -8.10924e-14
-6.18372e-14 -3.74648e-14 -2.23468e-14 -1.85576e-14 -1.52264e-14 -7.27403e-15 0 -1.39631e-13 -1.52059e-13 -1.64065e-13
-1.61633e-13 -1.36217e-13 -8.28125e-14 -7.16089e-14 -1.23931e-13 -1.48799e-13 -1.22425e-13 -1.14075e-13 -1.16449e-13 -9.81611e-14
-8.61998e-14 -6.67404e-14 -3.43059e-14 -1.90919e-14 -1.6593e-14 -1.27366e-14 -9.23725e-15 -4.3365e-15 
