# vtk DataFile Version 2.0
sampleSurface
ASCII
DATASET POLYDATA
POINTS 189 float
-4 0 0 -5 0 0 -5 0 1 -4 0
1 -3 0 0 -3 0 1 -2 0 0
-2 0 1 -1 0 0 -1 0 1 0
0 0 0 0 1 1 0 0 1 0
1 2 0 0 2 0 1 3 0 0
3 0 1 4 0 0 4 0 1 5
0 0 5 0 1 6 0 0 6 0
1 7 0 0 7 0 1 8 0 0
8 0 1 9 0 0 9 0 1 10
0 0 10 0 1 11 0 0 11 0
1 12 0 0 12 0 1 13 0 0
13 0 1 14 0 0 14 0 1 15
0 1 15 0 0 -5 0 2 -4 0
2 -3 0 2 -2 0 2 -1 0 2
0 0 2 1 0 2 2 0 2 3
0 2 4 0 2 5 0 2 6 0
2 7 0 2 8 0 2 9 0 2
10 0 2 11 0 2 12 0 2 13
0 2 14 0 2 15 0 2 -5 0
3 -4 0 3 -3 0 3 -2 0 3
-1 0 3 0 0 3 1 0 3 2
0 3 3 0 3 4 0 3 5 0
3 6 0 3 7 0 3 8 0 3
9 0 3 10 0 3 11 0 3 12
0 3 13 0 3 14 0 3 15 0
3 -5 0 4 -4 0 4 -3 0 4
-2 0 4 -1 0 4 0 0 4 1
0 4 2 0 4 3 0 4 4 0
4 5 0 4 6 0 4 7 0 4
8 0 4 9 0 4 10 0 4 11
0 4 12 0 4 13 0 4 14 0
4 15 0 4 -5 0 5 -4 0 5
-3 0 5 -2 0 5 -1 0 5 0
0 5 1 0 5 2 0 5 3 0
5 4 0 5 5 0 5 6 0 5
7 0 5 8 0 5 9 0 5 10
0 5 11 0 5 12 0 5 13 0
5 14 0 5 15 0 5 -5 0 6
-4 0 6 -3 0 6 -2 0 6 -1
0 6 0 0 6 1 0 6 2 0
6 3 0 6 4 0 6 5 0 6
6 0 6 7 0 6 8 0 6 9
0 6 10 0 6 11 0 6 12 0
6 13 0 6 14 0 6 15 0 6
-5 0 7 -4 0 7 -3 0 7 -2
0 7 -1 0 7 0 0 7 1 0
7 2 0 7 3 0 7 4 0 7
5 0 7 6 0 7 7 0 7 8
0 7 9 0 7 10 0 7 11 0
7 12 0 7 13 0 7 14 0 7
15 0 7 -5 0 8 -4 0 8 -3
0 8 -2 0 8 -1 0 8 0 0
8 1 0 8 2 0 8 3 0 8
4 0 8 5 0 8 6 0 8 7
0 8 8 0 8 9 0 8 10 0
8 11 0 8 12 0 8 13 0 8
14 0 8 15 0 8 
POLYGONS 160 800
4 0 1 2 3 4 4 0 3 5 4
6 4 5 7 4 8 6 7 9 4
10 8 9 11 4 12 10 11 13 4
14 12 13 15 4 16 14 15 17 4
18 16 17 19 4 20 18 19 21 4
22 20 21 23 4 24 22 23 25 4
26 24 25 27 4 28 26 27 29 4
30 28 29 31 4 32 30 31 33 4
34 32 33 35 4 36 34 35 37 4
38 36 37 39 4 40 41 38 39 4
3 2 42 43 4 5 3 43 44 4
7 5 44 45 4 9 7 45 46 4
11 9 46 47 4 13 11 47 48 4
15 13 48 49 4 17 15 49 50 4
19 17 50 51 4 21 19 51 52 4
23 21 52 53 4 25 23 53 54 4
27 25 54 55 4 29 27 55 56 4
31 29 56 57 4 33 31 57 58 4
35 33 58 59 4 37 35 59 60 4
39 37 60 61 4 62 40 39 61 4
43 42 63 64 4 44 43 64 65 4
45 44 65 66 4 46 45 66 67 4
47 46 67 68 4 48 47 68 69 4
49 48 69 70 4 50 49 70 71 4
51 50 71 72 4 52 51 72 73 4
53 52 73 74 4 54 53 74 75 4
55 54 75 76 4 56 55 76 77 4
57 56 77 78 4 58 57 78 79 4
59 58 79 80 4 60 59 80 81 4
61 60 81 82 4 83 62 61 82 4
64 63 84 85 4 65 64 85 86 4
66 65 86 87 4 67 66 87 88 4
68 67 88 89 4 69 68 89 90 4
70 69 90 91 4 71 70 91 92 4
72 71 92 93 4 73 72 93 94 4
74 73 94 95 4 75 74 95 96 4
76 75 96 97 4 77 76 97 98 4
78 77 98 99 4 79 78 99 100 4
80 79 100 101 4 81 80 101 102 4
82 81 102 103 4 104 83 82 103 4
85 84 105 106 4 86 85 106 107 4
87 86 107 108 4 88 87 108 109 4
89 88 109 110 4 90 89 110 111 4
91 90 111 112 4 92 91 112 113 4
93 92 113 114 4 94 93 114 115 4
95 94 115 116 4 96 95 116 117 4
97 96 117 118 4 98 97 118 119 4
99 98 119 120 4 100 99 120 121 4
101 100 121 122 4 102 101 122 123 4
103 102 123 124 4 125 104 103 124 4
106 105 126 127 4 107 106 127 128 4
108 107 128 129 4 109 108 129 130 4
110 109 130 131 4 111 110 131 132 4
112 111 132 133 4 113 112 133 134 4
114 113 134 135 4 115 114 135 136 4
116 115 136 137 4 117 116 137 138 4
118 117 138 139 4 119 118 139 140 4
120 119 140 141 4 121 120 141 142 4
122 121 142 143 4 123 122 143 144 4
124 123 144 145 4 146 125 124 145 4
127 126 147 148 4 128 127 148 149 4
129 128 149 150 4 130 129 150 151 4
131 130 151 152 4 132 131 152 153 4
133 132 153 154 4 134 133 154 155 4
135 134 155 156 4 136 135 156 157 4
137 136 157 158 4 138 137 158 159 4
139 138 159 160 4 140 139 160 161 4
141 140 161 162 4 142 141 162 163 4
143 142 163 164 4 144 143 164 165 4
145 144 165 166 4 167 146 145 166 4
148 147 168 169 4 149 148 169 170 4
150 149 170 171 4 151 150 171 172 4
152 151 172 173 4 153 152 173 174 4
154 153 174 175 4 155 154 175 176 4
156 155 176 177 4 157 156 177 178 4
158 157 178 179 4 159 158 179 180 4
160 159 180 181 4 161 160 181 182 4
162 161 182 183 4 163 162 183 184 4
164 163 184 185 4 165 164 185 186 4
166 165 186 187 4 167 166 187 188 
POINT_DATA 189
FIELD attributes 1
U 3 189 float
20 0 0 20 0 0 20 0 0 20 -1.88577e-16
-3.41731e-16 20 0 0 20 -7.66889e-16 -1.35905e-15 20 0 0
20 -6.63526e-16 -2.01921e-15 20 0 0 20 -3.33356e-16 -1.92434e-15 20
0 0 20 -7.92202e-17 -1.29536e-15 20 0 0 20 4.86617e-16
-1.00691e-15 20 0 0 20 3.03007e-16 -9.26667e-16 20 0 0
20 -1.93353e-16 -8.92362e-16 20 0 0 20 -2.03633e-16 -9.55049e-16 20
0 0 20 -2.01913e-16 -6.97396e-16 20 0 0 20 -6.09325e-16
-1.09276e-16 20 0 0 20 -7.93414e-16 5.31816e-16 20 0 0
20 -4.58075e-16 6.72965e-16 20 0 0 20 -4.92963e-17 1.37208e-16 20
0 0 20 3.00431e-17 -1.52242e-16 20 0 0 20 -1.81709e-16
-1.70049e-16 20 0 0 20 5.00001e-18 -2.71078e-16 20 0 0
20 5.64593e-16 -1.74045e-16 20 0 0 20 7.18984e-16 -8.01416e-18 20
5.98288e-16 2.43557e-17 20 5.6909e-16 -3.62273e-17 20 0 0 20 -8.62637e-17
1.00383e-16 20 -4.01126e-16 -9.72066e-17 20 -7.21799e-16 -7.31244e-16 20 -2.90408e-16 -1.23119e-15
20 2.53958e-16 -9.76546e-16 20 4.06568e-16 -5.2222e-16 20 2.29542e-16 -2.79388e-16 20
1.65562e-16 -2.12765e-16 20 9.95094e-17 9.32356e-17 20 3.15717e-17 2.96996e-16 20 1.56937e-17
1.9111e-16 20 -1.78586e-17 1.01708e-16 20 -2.78113e-16 4.36205e-16 20 -3.82536e-16 3.78157e-16
20 -1.68659e-16 -3.59224e-16 20 -8.41208e-17 -7.22714e-16 20 -1.64026e-17 -6.64042e-16 20
2.64825e-16 -4.40804e-16 20 2.9813e-16 -3.91074e-17 20 8.86356e-17 1.90397e-16 20 0
0 20 1.23053e-17 4.50885e-16 20 2.89613e-17 1.10588e-15 20 -2.68419e-16 7.37868e-16
20 -3.93468e-17 -1.99687e-16 20 3.71592e-16 -4.80448e-16 20 5.2407e-16 -4.94481e-16 20
5.25581e-16 -6.42747e-16 20 3.93632e-16 -2.99828e-16 20 2.17451e-16 5.34676e-16 20 1.94245e-16
1.08011e-15 20 4.02645e-16 7.46796e-16 20 4.2758e-16 3.31496e-16 20 -1.48101e-16 7.14807e-16
20 -3.90573e-16 6.46489e-16 20 -2.13951e-16 4.45614e-18 20 2.13714e-16 -3.51994e-16 20
3.97654e-16 -5.85678e-16 20 1.62543e-16 -4.33825e-16 20 2.57091e-16 2.04671e-17 20 3.90551e-16
2.09503e-16 20 0 0 20 2.28392e-16 7.49906e-16 20 2.24755e-16 1.25214e-15
20 1.26038e-16 9.36582e-16 20 1.79834e-16 1.47726e-16 20 2.53329e-16 -3.3266e-16 20
7.13776e-16 -5.87177e-16 20 9.92874e-16 -7.54937e-16 20 4.33588e-16 -2.86886e-16 20 -1.2805e-16
4.50019e-16 20 -2.95644e-17 8.5513e-16 20 3.50338e-16 9.00533e-16 20 3.05111e-16 1.08114e-15
20 -5.83266e-17 1.04984e-15 20 -2.0689e-16 5.16215e-16 20 -3.6847e-16 3.42663e-16 20
7.20501e-17 1.5686e-16 20 3.74608e-16 -1.46187e-16 20 5.6234e-17 -1.26145e-16 20 9.56737e-17
1.18248e-16 20 2.4516e-16 3.2895e-16 20 0 0 20 4.05904e-16 4.0122e-16
20 3.61246e-16 6.06145e-16 20 3.00414e-16 4.24043e-16 20 5.98428e-16 2.329e-16 20
7.17614e-16 -3.95456e-16 20 8.96697e-16 -8.5658e-16 20 1.022e-15 -4.74801e-16 20 6.09203e-16
3.24453e-16 20 -1.48651e-16 8.25487e-16 20 -1.92649e-16 6.60991e-16 20 1.32691e-16 8.14256e-16
20 -1.67849e-16 9.97077e-16 20 -2.8562e-16 4.12823e-16 20 -5.97406e-16 1.5144e-16 20
-8.14528e-16 1.76693e-16 20 -3.02039e-17 -1.51402e-16 20 4.08636e-16 -2.42919e-16 20 1.28749e-16
-1.39701e-16 20 6.10264e-17 5.68741e-17 20 1.40718e-16 2.37329e-16 20 0 0
20 6.20432e-16 -5.10914e-16 20 7.66604e-16 -6.20862e-16 20 7.62802e-16 -6.02392e-16 20
7.72673e-16 -3.86755e-16 20 7.83007e-16 -8.06102e-16 20 8.73619e-16 -1.36518e-15 20 6.97569e-16
-8.89123e-16 20 5.12912e-16 1.57629e-16 20 5.19302e-17 6.91695e-16 20 -1.52154e-16 4.87236e-16
20 -1.20021e-16 3.20924e-16 20 -6.47209e-16 1.32128e-16 20 -8.40149e-16 -1.14993e-16 20
-8.80313e-16 1.19052e-16 20 -6.31347e-16 6.19977e-17 20 1.79207e-16 -4.81418e-16 20 5.11943e-16
-6.22751e-16 20 1.1466e-16 -5.06315e-16 20 -3.02198e-17 -3.13197e-16 20 1.56459e-16 -1.94589e-16
20 0 0 20 8.31219e-16 -4.28674e-16 20 1.06568e-15 -7.43815e-16 20
1.0706e-15 -8.03509e-16 20 7.53046e-16 -7.87475e-16 20 3.5154e-16 -7.00716e-16 20 2.55238e-16
-7.78961e-16 20 5.50888e-17 -6.25347e-16 20 1.10404e-16 -1.276e-16 20 1.49444e-16 1.61332e-16
20 -1.0509e-16 2.99298e-17 20 -1.59361e-16 -4.87535e-16 20 -3.27854e-16 -5.71424e-16 20
-5.12508e-16 -8.92741e-17 20 -3.75389e-16 2.93581e-16 20 -3.21429e-17 1.48106e-16 20 4.22789e-16
-2.13393e-16 20 6.86336e-16 -2.87285e-16 20 6.49491e-17 -4.75555e-16 20 -4.25842e-16 -3.92146e-16
20 -2.60297e-16 -1.53616e-16 20 3.19356e-16 0 20 8.28931e-16 0 20
1.0953e-15 0 20 1.17197e-15 0 20 9.15316e-16 0 20 2.79994e-16
0 20 -2.19012e-16 0 20 -4.24889e-16 0 20 -1.99959e-16 0
20 1.03992e-16 0 20 -1.16777e-16 0 20 -1.26968e-16 0 20
4.85222e-17 0 20 3.28685e-17 0 20 2.21149e-17 0 20 2.29576e-16
0 20 6.53067e-16 0 20 9.32718e-16 0 20 1.65182e-16 0
20 -5.35167e-16 0 20 -3.8017e-16 2.90416e-17 
