/*--------------------------------*- C++ -*----------------------------------*\
  =========                 |
  \\      /  F ield         | OpenFOAM: The Open Source CFD Toolbox
   \\    /   O peration     | Website:  https://openfoam.org
    \\  /    A nd           | Version:  9
     \\/     M anipulation  |
\*---------------------------------------------------------------------------*/
FoamFile
{
    format      ascii;
    class       volScalarField;
    location    "700";
    object      sigmaxy;
}
// * * * * * * * * * * * * * * * * * * * * * * * * * * * * * * * * * * * * * //

dimensions      [1 -1 -2 0 0 0 0];

internalField   nonuniform List<scalar> 
1000
(
-5590.08
-4256.42
-3363.09
-2728.69
-2261.93
-1908.65
-1634.94
-1418.49
-1240.28
-1012.6
-6883.23
-4614.96
-3208.01
-2293.22
-1676.71
-1248.99
-944.494
-721.612
-549.767
-356.706
-7848.19
-4808.47
-2982.08
-1842.31
-1109
-626.355
-302.812
-82.2133
73.0012
230.473
-8373.95
-4803.51
-2694.95
-1409.46
-605.436
-94.4937
232.831
442.743
578.687
704.158
-8384.09
-4579.66
-2356.99
-1021.85
-202.097
306.273
621.076
813.26
929.023
1025.39
-7844.95
-4132.21
-1978.91
-698.052
78.6646
552.191
838.206
1006.27
1101.37
1172.29
-6769.95
-3473.87
-1571.62
-447.06
229.376
636.948
878.778
1016.9
1091.2
1140.92
-5219.81
-2635.74
-1147.44
-270.119
255.056
569.036
753.148
856.382
910.125
943.103
-3298.61
-1671.14
-728.653
-171.924
161.059
359.731
476.013
541.221
575.407
596.171
-1148.27
-684.987
-388.147
-204.076
-89.4926
-17.4276
28.1447
56.9932
75.5423
89.1613
431.206
162.982
-43.041
-166.641
-233.478
-266.312
-279.305
-280.838
-276.088
-269.842
1056.23
-186.2
-843.938
-1179.56
-1336.31
-1391.58
-1389.51
-1355.8
-1305.73
-1255.87
1526.86
-449.04
-1471.57
-1980.34
-2210.63
-2285.12
-2271.98
-2210.51
-2123.97
-2039.12
1720.22
-742.788
-2010.67
-2631.83
-2904.45
-2983.9
-2955.59
-2868.24
-2750.67
-2639.13
1560.22
-1106.5
-2470.43
-3126.44
-3401.78
-3467.7
-3418.06
-3306.03
-3162.96
-3033.75
1015.92
-1551.04
-2846.33
-3450.13
-3683.83
-3715.84
-3638.34
-3503.16
-3340.84
-3203.59
101.754
-2068.56
-3133.08
-3598.07
-3745.78
-3723.64
-3612.01
-3455.67
-3280.83
-3145.33
-1124.59
-2636.28
-3327.33
-3577.29
-3600
-3506.01
-3354.89
-3179.38
-2998.66
-2874.2
-2567.67
-3219.61
-3428.51
-3406.06
-3275.01
-3096.61
-2902.48
-2709.19
-2527.2
-2422.14
-4103.27
-3775.49
-3438.85
-3111.92
-2812.35
-2544.63
-2307.96
-2099.26
-1915.59
-1824.87
-251.069
-222.8
-199.907
-179.507
-161.096
-144.375
-129.109
-115.078
-102.058
-89.8221
-78.1403
-66.7757
-55.4798
-43.9846
-31.9951
-19.2118
-5.52886
8.05993
16.6168
6.65481
-1163.4
-1039.41
-938.035
-847.904
-767.551
-695.805
-631.554
-573.722
-521.269
-473.194
-428.529
-386.321
-345.616
-305.439
-264.784
-222.648
-178.131
-130.463
-78.0663
-15.0002
-1891.79
-1700.24
-1542.15
-1399.98
-1272.03
-1156.94
-1053.28
-959.574
-874.309
-795.98
-723.095
-654.169
-587.701
-522.156
-455.946
-387.407
-314.691
-235.269
-144.156
-28.6122
-2454.61
-2222.15
-2029.02
-1852.91
-1692.24
-1545.96
-1412.86
-1291.49
-1180.24
-1077.4
-981.197
-889.811
-801.349
-713.827
-625.127
-532.904
-434.355
-325.546
-199.438
-39.5332
-2831.25
-2588.34
-2384.5
-2194.94
-2018.59
-1855.25
-1704.37
-1565.01
-1435.84
-1315.29
-1201.58
-1092.77
-986.738
-881.183
-773.544
-660.878
-539.586
-404.709
-247.769
-49.1855
-3003.04
-2782.72
-2593.99
-2413.04
-2239.55
-2074.65
-1918.98
-1772.48
-1634.52
-1503.98
-1379.37
-1258.86
-1140.3
-1021.24
-898.797
-769.6
-629.457
-472.645
-289.527
-57.7249
-2964.98
-2799.34
-2650.49
-2499.87
-2347.88
-2197.34
-2050.36
-1908.16
-1771.1
-1638.84
-1510.43
-1384.39
-1258.78
-1131.13
-998.478
-857.157
-702.575
-528.431
-324.138
-64.9864
-2727.37
-2643.13
-2554.97
-2454.02
-2340.9
-2220.05
-2095.11
-1968.72
-1842.46
-1716.98
-1592.13
-1467.01
-1340.04
-1208.99
-1070.94
-922.162
-757.821
-571.205
-350.996
-70.7822
-2308.93
-2321.97
-2309.71
-2274.41
-2215.78
-2139.2
-2049.52
-1950.67
-1845.5
-1735.79
-1622.32
-1504.94
-1382.65
-1253.64
-1115.24
-963.83
-794.57
-600.523
-369.862
-75.0499
-1724.86
-1839.6
-1919.89
-1966.37
-1978.36
-1961.12
-1920.26
-1860.87
-1787.09
-1701.97
-1607.4
-1504.2
-1392.16
-1270.07
-1135.73
-985.873
-815.876
-618.876
-382.666
-78.3406
-1221
-1394.32
-1549.05
-1652.39
-1714.17
-1741.32
-1739.71
-1714.49
-1669.97
-1609.5
-1535.38
-1448.86
-1350.2
-1238.63
-1112.41
-968.751
-803.518
-610.416
-377.903
-77.9668
-862.506
-1056.41
-1238.07
-1373.93
-1466.96
-1523.54
-1549.45
-1549.57
-1527.94
-1487.74
-1431.25
-1359.87
-1274.08
-1173.44
-1056.65
-921.422
-764.278
-579.795
-357.866
-73.5142
-516.054
-719.029
-916.79
-1077.1
-1197.68
-1282.17
-1335.12
-1360.72
-1362.59
-1343.63
-1306.06
-1251.31
-1180.06
-1092.19
-986.805
-862.167
-715.505
-542.367
-334.142
-68.4717
-227.131
-425.142
-625.559
-798.04
-936.69
-1042.13
-1117.02
-1164.38
-1187.09
-1187.63
-1167.94
-1129.41
-1072.8
-998.248
-905.233
-792.538
-658.115
-498.511
-306.612
-62.7252
8.4917
-179.869
-374.704
-549.754
-697.503
-816.33
-907.012
-971.258
-1011.02
-1028.17
-1024.29
-1000.6
-957.875
-896.407
-815.999
-715.925
-594.822
-450.2
-276.399
-56.4486
196.477
20.5942
-163.937
-335.109
-485.025
-610.694
-711.428
-787.699
-840.522
-871.092
-880.563
-869.907
-839.835
-790.747
-722.707
-635.424
-528.164
-399.327
-244.642
-49.8618
342.733
181.253
9.80078
-153.358
-300.506
-427.908
-533.845
-617.79
-679.914
-720.764
-741.035
-741.424
-722.535
-684.82
-628.555
-553.823
-460.448
-347.639
-212.416
-43.1867
453.114
307.023
150.141
-2.46933
-143.506
-268.871
-376.172
-464.135
-532.243
-580.469
-609.081
-618.501
-609.202
-581.658
-536.311
-473.56
-393.711
-296.688
-180.686
-36.6233
533.029
402.451
260.661
119.987
-12.8
-133.473
-239.23
-328.274
-399.56
-452.596
-487.283
-503.788
-502.46
-483.772
-448.297
-396.694
-329.683
-247.799
-150.278
-30.3428
587.138
471.534
344.638
216.449
93.1539
-21.051
-123.143
-210.983
-283.149
-338.795
-377.526
-399.3
-404.354
-393.156
-366.379
-324.899
-269.773
-202.051
-121.861
-24.4822
619.201
517.586
404.897
289.154
175.943
69.3206
-27.6067
-112.505
-183.704
-240.105
-281.097
-306.478
-316.395
-311.311
-291.983
-259.459
-215.066
-160.273
-95.9422
-19.146
632.018
543.172
443.718
340.01
237.037
138.648
47.9238
-32.7183
-101.469
-157.073
-198.771
-226.249
-239.596
-239.275
-226.108
-201.28
-166.329
-123.043
-72.875
-14.4042
627.441
550.078
462.785
370.518
277.694
187.902
104.117
28.7482
-36.3469
-89.8339
-130.872
-159.081
-174.516
-177.647
-169.352
-150.915
-124.028
-90.7103
-52.8638
-10.2976
606.395
539.319
463.168
381.74
298.905
217.955
141.697
72.4511
12.0502
-38.1623
-77.3188
-105.013
-121.287
-126.622
-121.936
-108.582
-88.3504
-63.4119
-35.9816
-6.83728
568.905
511.139
445.319
374.281
301.375
229.561
161.415
99.1066
44.3736
-1.49046
-37.6385
-63.6692
-79.6266
-85.9997
-83.7259
-74.1941
-59.2397
-41.1037
-22.1979
-4.01791
514.073
464.999
409.054
348.284
285.521
223.35
164.061
109.603
61.5573
21.1135
-10.9431
-34.2398
-48.8276
-55.1889
-54.2513
-47.3913
-36.4332
-23.6156
-11.4176
-1.81713
439.963
399.472
353.488
303.381
251.448
199.836
150.477
105.033
64.8626
30.9991
4.12813
-15.4259
-27.715
-33.1877
-32.7093
-27.5781
-19.5289
-10.7031
-3.5237
-0.232756
343.122
311.859
276.722
238.467
198.782
159.297
121.498
86.6792
55.908
29.9988
9.49646
-5.33963
-14.5526
-18.5126
-17.9441
-13.9569
-8.06681
-2.18676
1.47652
0.729779
216.897
196.788
174.659
150.684
125.839
101.125
77.4748
55.7088
36.5059
20.3868
7.70175
-1.37908
-6.88025
-9.0395
-8.33484
-5.52001
-1.66697
1.82077
3.29762
1.04075
45.3132
40.9423
36.283
31.2888
26.1232
20.9866
16.0741
11.5583
7.58164
4.25378
1.64866
-0.197041
-1.28742
-1.6713
-1.44959
-0.785616
0.0763794
0.793315
1.00444
0.553282
90.6848
576.822
916.33
1119.43
1169.42
1054.04
774.647
347.998
-196.314
-823.754
83.6034
529.697
850.913
1057.25
1134.81
1072.38
868.91
534.331
84.5666
-474.216
78.7152
492.527
798.367
1006.6
1105.18
1083.37
938.094
674.502
301.82
-174.093
73.7706
457.553
747.29
954.066
1067.67
1078.14
981.289
779.144
476.313
77.6132
68.5289
424.133
697.098
899.314
1022.3
1057.01
998.785
847.796
605.811
277.674
63.0952
392.479
648.587
844.054
972.006
1024.37
996.463
887.384
697.246
431.207
57.6007
362.766
602.382
789.704
919.306
984.089
979.579
904.325
757.575
544.79
52.126
334.992
558.724
737.078
865.892
938.992
952.227
903.92
792.966
625
46.695
308.999
517.534
686.457
812.694
890.913
917.335
890.243
808.484
677.713
41.2851
284.512
478.494
637.717
760.04
840.873
876.815
866.213
808.029
707.785
35.8367
261.17
441.113
590.432
707.783
789.229
831.721
833.723
794.379
718.957
30.2594
238.54
404.759
543.935
655.404
735.792
782.383
793.772
769.294
713.868
24.4337
216.121
368.682
497.358
602.057
679.906
728.498
746.559
733.599
694.117
18.2089
193.346
332.02
449.639
546.594
620.473
669.171
691.552
687.257
660.314
11.4009
169.584
293.798
399.513
487.541
555.937
602.921
627.495
629.388
612.121
3.8123
144.172
252.929
345.46
423.026
484.216
527.609
552.353
558.233
548.234
-4.60236
116.516
208.144
285.54
350.587
402.51
440.267
463.152
470.986
466.228
-12.9901
86.1295
157.628
216.917
266.686
306.815
336.599
355.468
363.285
362.044
-17.2518
51.9709
97.7511
134.49
165.271
190.374
209.347
221.759
227.532
228.193
-6.16475
9.94528
19.4343
26.6898
32.8553
38.0478
42.1341
44.9727
46.5309
47.2382
)
;

boundaryField
{
    left
    {
        type            symmetryPlane;
    }
    right
    {
        type            calculated;
        value           nonuniform List<scalar> 
30
(
-7.95366e-14
-2.54517e-13
-2.54517e-13
-1.39984e-12
-1.01807e-12
-2.54517e-13
-5.09034e-13
0
-5.09034e-13
-5.09034e-13
-1.27259e-12
-7.63551e-13
-5.09034e-13
-2.54517e-13
-5.09034e-13
-2.54517e-13
-2.54517e-13
-2.54517e-13
-7.63551e-13
-5.09034e-13
-3.56324e-12
-7.63551e-13
-5.09034e-13
-1.5271e-12
-3.81776e-12
2.54517e-13
-4.07227e-12
-3.05421e-12
-4.07227e-12
-2.79969e-12
)
;
    }
    down
    {
        type            symmetryPlane;
    }
    up
    {
        type            calculated;
        value           nonuniform List<scalar> 
30
(
2.22702e-13
2.09977e-12
1.78162e-12
2.1634e-12
5.47212e-12
3.81776e-12
2.03614e-12
7.63551e-13
2.79969e-12
5.09034e-12
4.32679e-12
1.14533e-11
2.29065e-12
1.27259e-11
7.381e-12
3.56324e-12
5.34486e-12
1.27259e-11
1.4762e-11
1.29804e-11
6.61744e-12
8.65358e-12
1.65436e-11
8.39906e-12
3.33417e-11
1.01807e-11
1.80707e-11
2.79969e-11
1.70526e-11
2.06159e-11
)
;
    }
    hole
    {
        type            calculated;
        value           nonuniform List<scalar> 
20
(
-5844.48
-7352.26
-8495.83
-9146.44
-9214.81
-8660.47
-7496.46
-5789.18
-3653.62
-1248.46
464.76
1342.05
1997.63
2311.28
2203.79
1641.6
640.95
-732.585
-2369.79
-4127.97
)
;
    }
    frontAndBack
    {
        type            empty;
    }
}


// ************************************************************************* //
