/*--------------------------------*- C++ -*----------------------------------*\
  =========                 |
  \\      /  F ield         | OpenFOAM: The Open Source CFD Toolbox
   \\    /   O peration     | Website:  https://openfoam.org
    \\  /    A nd           | Version:  9
     \\/     M anipulation  |
\*---------------------------------------------------------------------------*/
FoamFile
{
    format      ascii;
    class       volScalarField;
    location    "85";
    object      ddt0(h);
}
// * * * * * * * * * * * * * * * * * * * * * * * * * * * * * * * * * * * * * //

dimensions      [0 1 -1 0 0 0 0];

internalField   nonuniform List<scalar> 
400
(
-5.28826e-09
9.086e-09
-3.77301e-09
-2.6763e-09
1.5481e-10
3.54415e-09
1.43339e-09
-3.23157e-09
-7.32384e-09
-2.30746e-08
-1.37694e-08
-3.41628e-09
-5.62516e-09
-1.89356e-08
-2.88992e-08
-2.48445e-08
-2.07391e-08
-2.14654e-08
-1.9518e-08
-7.0725e-09
-1.0245e-09
-4.04603e-09
-2.49219e-09
8.50104e-09
1.04119e-08
-6.22289e-09
-1.02813e-08
-3.73716e-09
2.15919e-09
5.07814e-09
-6.29118e-09
2.36392e-08
-3.2741e-09
3.49059e-09
8.59775e-09
8.22851e-09
-1.06365e-09
-1.59066e-08
-1.82861e-08
-1.08103e-08
-3.38651e-09
-1.50444e-08
5.75895e-09
2.45367e-08
4.9405e-09
-1.98034e-08
-1.80264e-08
3.36574e-08
-9.96135e-10
4.25469e-08
-5.69834e-09
1.08593e-08
2.26594e-08
-2.85338e-09
2.83461e-08
4.5712e-08
2.75705e-08
-3.07845e-09
-2.11883e-08
-1.06744e-08
-7.94897e-09
-9.19275e-09
1.87664e-08
2.0285e-08
-1.51903e-08
-2.8272e-08
3.14027e-08
2.13075e-08
2.20111e-08
-1.61679e-08
7.31231e-08
-6.05357e-08
1.4758e-08
5.44786e-09
-1.18842e-08
2.3307e-08
3.81993e-08
2.66307e-08
1.17708e-08
2.66865e-09
-7.98319e-09
8.88423e-09
2.12301e-08
-4.42911e-09
-3.80694e-08
9.61688e-09
5.14431e-08
-3.92815e-08
3.93252e-08
-2.07464e-08
-7.2421e-08
5.78515e-08
-6.03312e-08
7.92355e-09
6.42046e-09
-1.59346e-08
1.04828e-08
4.21956e-08
4.73433e-08
2.10784e-08
4.91424e-09
1.92959e-08
9.74642e-09
-3.23668e-08
-2.77583e-08
4.63767e-08
-1.02255e-08
1.52104e-08
-7.3997e-08
1.28915e-07
-1.08281e-07
-8.64864e-09
6.83988e-08
-2.8845e-08
-1.75593e-08
-2.29846e-08
-1.39333e-08
2.86652e-08
5.19738e-08
2.62536e-08
1.97055e-08
1.8586e-08
-8.65683e-09
-3.46531e-08
-9.09751e-10
2.56448e-08
5.98725e-09
-6.07267e-08
1.12479e-07
-2.66942e-07
4.70189e-07
-2.3685e-07
-3.37712e-08
4.58924e-08
-6.11167e-09
-2.98753e-08
-2.49008e-08
8.60909e-09
2.67055e-08
1.48052e-08
2.22425e-08
5.76883e-09
-1.46706e-08
-1.55138e-08
9.94673e-09
2.12214e-08
-1.81257e-08
2.34553e-08
-3.90215e-08
-1.60804e-07
-2.06534e-06
2.27269e-07
-1.0746e-07
-4.13973e-08
-3.17362e-09
-2.46132e-08
-2.51542e-08
-9.80304e-09
6.79529e-11
1.79531e-09
1.00738e-08
-8.80693e-09
-1.31326e-08
1.35106e-08
1.14059e-08
-3.58936e-09
2.6629e-08
-3.81344e-08
9.08498e-09
1.3464e-07
2.04956e-06
-2.21464e-07
1.24287e-07
1.15526e-08
-2.52242e-08
-2.06476e-08
1.25642e-09
-1.4539e-08
-1.32593e-08
-3.0124e-08
-3.14413e-09
-1.83805e-08
-4.39142e-09
3.08875e-08
1.87466e-08
-2.2053e-08
-1.13274e-09
4.27533e-08
-9.24897e-08
2.41525e-07
-3.72083e-07
2.60353e-07
5.96002e-08
-2.72444e-09
7.97999e-10
8.21214e-09
-1.20135e-08
-1.46339e-08
-3.17294e-08
5.3134e-09
-7.79584e-09
-1.45763e-08
-4.08323e-09
3.54506e-08
2.49538e-08
-2.92443e-08
-1.76654e-08
-1.2854e-09
1.22485e-07
-7.55727e-08
-7.54613e-08
1.19408e-07
-7.29411e-08
4.98736e-08
5.00121e-08
4.13419e-08
1.73982e-08
-1.52127e-08
-2.95503e-08
-1.67665e-08
-4.0791e-09
-2.4687e-09
-5.55689e-09
1.36545e-08
3.40974e-08
-1.20382e-08
-4.03593e-08
6.77962e-09
-2.7981e-08
5.89664e-07
-5.65486e-06
-1.32775e-07
1.52929e-07
4.08802e-08
3.41032e-08
3.58835e-08
-2.87437e-09
-2.37911e-08
-2.00759e-08
-8.11014e-09
1.6746e-09
1.14111e-08
-5.61484e-09
-1.01267e-08
1.76156e-08
2.72213e-08
-2.63562e-08
-1.26038e-08
-3.87808e-09
-5.69887e-07
5.99794e-06
1.1629e-07
-1.00062e-07
-1.25058e-08
4.16454e-09
-1.89307e-08
-2.95332e-08
-2.05961e-08
-2.78157e-09
3.00913e-09
3.10186e-09
1.89209e-08
-1.52968e-09
-2.72217e-08
5.46746e-10
3.29998e-08
2.78446e-08
-2.09368e-08
-8.16949e-08
7.22513e-09
-1.50048e-07
-1.24754e-07
-1.1778e-08
-3.50953e-08
-3.49444e-08
-3.59314e-08
-2.31862e-08
-4.81681e-09
1.47784e-08
1.24007e-08
-6.17451e-10
1.69061e-08
5.88635e-09
-2.92472e-08
-9.41631e-09
2.25619e-08
3.75552e-08
1.12507e-08
-1.88956e-08
-4.64131e-08
-8.79229e-08
-3.58216e-08
-6.15871e-08
-3.92191e-08
-3.78532e-08
-2.085e-08
-2.94419e-09
9.74968e-09
2.48208e-08
1.68162e-08
-9.45525e-09
8.78802e-09
1.83327e-08
-1.46541e-08
-1.81645e-08
1.16212e-08
1.01379e-08
3.21667e-08
1.07434e-08
6.81923e-09
2.63471e-08
-2.72173e-08
-2.63895e-08
-1.7831e-08
5.46975e-09
1.16162e-08
1.35521e-08
2.00209e-08
3.00414e-08
1.77301e-08
-1.74938e-08
5.12723e-10
2.84302e-08
1.05109e-08
-2.19706e-08
-1.26361e-08
-1.24743e-09
5.94424e-09
3.27201e-08
2.75462e-08
2.67565e-08
1.4076e-08
4.0306e-09
2.61775e-08
3.20604e-08
2.29645e-08
2.14542e-08
2.45707e-08
2.50195e-08
1.20533e-08
-1.4329e-08
-4.94762e-09
2.10928e-08
2.66793e-08
-1.30129e-08
-2.9749e-08
-1.65121e-08
-5.52499e-10
1.50204e-08
1.44247e-08
1.49957e-08
1.62189e-08
2.36796e-08
2.58191e-08
2.55428e-08
2.42576e-08
2.29069e-08
1.74752e-08
4.76521e-09
-1.72901e-09
6.23458e-09
-9.06223e-09
-4.20418e-09
1.38909e-08
5.73633e-09
-1.41466e-08
-1.45134e-08
-1.92916e-09
-1.60133e-09
-7.43105e-09
-2.11302e-09
8.39896e-09
1.24496e-08
-3.52682e-10
-2.94395e-09
4.47421e-09
6.66507e-09
-9.22604e-09
-3.06871e-08
-1.95609e-08
3.01787e-08
-9.07787e-09
-2.62022e-08
-9.47092e-09
1.53992e-08
8.80465e-09
2.21175e-09
5.22798e-10
-4.50661e-09
-1.99192e-08
-2.18518e-08
-4.06825e-09
-4.57773e-09
-2.384e-08
-3.44806e-08
-2.01679e-08
-9.07842e-09
-2.61877e-08
-4.93312e-08
-2.85374e-08
)
;

boundaryField
{
    sides
    {
        type            calculated;
        value           nonuniform List<scalar> 
40
(
3.01787e-08
-9.07787e-09
-2.62022e-08
-9.47092e-09
1.53992e-08
8.80465e-09
2.21175e-09
5.22798e-10
-4.50661e-09
-1.99192e-08
-2.18518e-08
-4.06825e-09
-4.57773e-09
-2.384e-08
-3.44806e-08
-2.01679e-08
-9.07842e-09
-2.61877e-08
-4.93312e-08
-2.85374e-08
-5.28826e-09
9.086e-09
-3.77301e-09
-2.6763e-09
1.5481e-10
3.54415e-09
1.43339e-09
-3.23157e-09
-7.32384e-09
-2.30746e-08
-1.37694e-08
-3.41628e-09
-5.62516e-09
-1.89356e-08
-2.88992e-08
-2.48445e-08
-2.07391e-08
-2.14654e-08
-1.9518e-08
-7.0725e-09
)
;
    }
    inlet
    {
        type            calculated;
        value           nonuniform List<scalar> 
20
(
-5.28826e-09
-1.0245e-09
-3.38651e-09
-7.94897e-09
-7.98319e-09
4.91424e-09
1.97055e-08
2.22425e-08
1.00738e-08
-3.14413e-09
-7.79584e-09
-4.0791e-09
1.6746e-09
3.10186e-09
-6.17451e-10
-9.45525e-09
-1.74938e-08
-1.4329e-08
6.23458e-09
3.01787e-08
)
;
    }
    outlet
    {
        type            calculated;
        value           uniform 0;
    }
    frontAndBack
    {
        type            empty;
    }
}


// ************************************************************************* //
