/*--------------------------------*- C++ -*----------------------------------*\
  =========                 |
  \\      /  F ield         | OpenFOAM: The Open Source CFD Toolbox
   \\    /   O peration     | Website:  https://openfoam.org
    \\  /    A nd           | Version:  9
     \\/     M anipulation  |
\*---------------------------------------------------------------------------*/
FoamFile
{
    format      ascii;
    class       volVectorField;
    location    "85";
    object      hU;
}
// * * * * * * * * * * * * * * * * * * * * * * * * * * * * * * * * * * * * * //

dimensions      [0 2 -1 0 0 0 0];

internalField   nonuniform List<vector> 
400
(
(0.001 -2.43357e-08 0)
(0.00100004 -7.05743e-08 0)
(0.00100012 -1.13114e-07 0)
(0.00100024 -1.52301e-07 0)
(0.00100039 -1.87329e-07 0)
(0.00100058 -2.16827e-07 0)
(0.00100078 -2.36798e-07 0)
(0.00100099 -2.44941e-07 0)
(0.00100118 -2.35823e-07 0)
(0.00100133 -2.10655e-07 0)
(0.0010014 -1.68031e-07 0)
(0.0010014 -1.2842e-07 0)
(0.00100129 -9.8841e-08 0)
(0.00100111 -9.28106e-08 0)
(0.00100087 -9.93662e-08 0)
(0.00100064 -1.35276e-07 0)
(0.00100044 -1.56155e-07 0)
(0.00100034 -2.00699e-07 0)
(0.00100026 -1.88199e-07 0)
(0.00100033 -2.68254e-07 0)
(0.001 -2.68883e-08 0)
(0.00100005 -7.88261e-08 0)
(0.00100013 -1.2802e-07 0)
(0.00100026 -1.74023e-07 0)
(0.00100042 -2.13519e-07 0)
(0.00100062 -2.40404e-07 0)
(0.00100084 -2.45346e-07 0)
(0.00100108 -2.19445e-07 0)
(0.0010013 -1.53485e-07 0)
(0.00100147 -4.68642e-08 0)
(0.00100156 9.41577e-08 0)
(0.00100154 2.47369e-07 0)
(0.00100141 3.89797e-07 0)
(0.00100119 4.77198e-07 0)
(0.00100092 5.05531e-07 0)
(0.00100067 4.52454e-07 0)
(0.00100048 3.79234e-07 0)
(0.00100036 2.58172e-07 0)
(0.00100033 2.06469e-07 0)
(0.00100029 8.15908e-08 0)
(0.001 -5.25724e-08 0)
(0.00100004 -1.58946e-07 0)
(0.00100013 -2.66801e-07 0)
(0.00100026 -3.74011e-07 0)
(0.00100043 -4.73888e-07 0)
(0.00100064 -5.55321e-07 0)
(0.0010009 -6.02866e-07 0)
(0.00100117 -5.97097e-07 0)
(0.00100143 -5.17089e-07 0)
(0.00100164 -3.51573e-07 0)
(0.00100176 -1.10015e-07 0)
(0.00100176 1.62128e-07 0)
(0.00100159 4.01619e-07 0)
(0.0010013 5.20562e-07 0)
(0.00100095 4.99837e-07 0)
(0.00100062 3.54021e-07 0)
(0.00100037 2.0362e-07 0)
(0.00100026 4.71178e-08 0)
(0.00100022 -1.93165e-09 0)
(0.00100029 -1.16464e-07 0)
(0.001 -7.31615e-08 0)
(0.00100004 -2.22158e-07 0)
(0.00100013 -3.75235e-07 0)
(0.00100026 -5.31076e-07 0)
(0.00100045 -6.80801e-07 0)
(0.00100069 -8.09557e-07 0)
(0.001001 -8.89195e-07 0)
(0.00100134 -8.85761e-07 0)
(0.00100171 -7.55595e-07 0)
(0.00100203 -4.74923e-07 0)
(0.00100222 -2.36296e-08 0)
(0.00100219 4.92711e-07 0)
(0.00100192 9.36677e-07 0)
(0.00100146 1.13982e-06 0)
(0.00100097 1.05498e-06 0)
(0.00100058 7.42873e-07 0)
(0.00100041 4.23561e-07 0)
(0.00100035 1.70481e-07 0)
(0.0010004 1.03085e-07 0)
(0.00100034 1.03729e-09 0)
(0.001 -9.03344e-08 0)
(0.00100004 -2.77876e-07 0)
(0.00100012 -4.77577e-07 0)
(0.00100025 -6.94454e-07 0)
(0.00100044 -9.20574e-07 0)
(0.00100072 -1.13925e-06 0)
(0.00100109 -1.29977e-06 0)
(0.00100155 -1.33768e-06 0)
(0.00100207 -1.17571e-06 0)
(0.00100257 -7.78753e-07 0)
(0.0010029 -1.70423e-07 0)
(0.00100288 5.7839e-07 0)
(0.00100244 1.23113e-06 0)
(0.00100167 1.51184e-06 0)
(0.00100086 1.37534e-06 0)
(0.00100031 9.64393e-07 0)
(0.00100013 5.8069e-07 0)
(0.00100022 3.13863e-07 0)
(0.00100036 2.62256e-07 0)
(0.00100043 1.68117e-07 0)
(0.001 -1.02817e-07 0)
(0.00100003 -3.1854e-07 0)
(0.00100009 -5.62495e-07 0)
(0.00100019 -8.44628e-07 0)
(0.00100038 -1.1726e-06 0)
(0.00100068 -1.52574e-06 0)
(0.00100115 -1.86016e-06 0)
(0.00100178 -2.05467e-06 0)
(0.00100254 -1.91202e-06 0)
(0.00100326 -1.20096e-06 0)
(0.00100377 8.51691e-08 0)
(0.00100378 1.5436e-06 0)
(0.0010031 2.43379e-06 0)
(0.00100192 2.30512e-06 0)
(0.00100082 1.43016e-06 0)
(0.00100019 4.92117e-07 0)
(0.00100017 1.2306e-08 0)
(0.00100037 -8.67008e-08 0)
(0.00100064 5.91369e-08 0)
(0.00100054 4.96364e-08 0)
(0.001 -1.02573e-07 0)
(0.001 -3.33687e-07 0)
(0.00100002 -6.01813e-07 0)
(0.00100008 -9.61514e-07 0)
(0.00100021 -1.39254e-06 0)
(0.00100048 -1.94726e-06 0)
(0.001001 -2.49e-06 0)
(0.00100188 -3.08446e-06 0)
(0.00100321 -3.23427e-06 0)
(0.00100473 -2.87867e-06 0)
(0.00100574 -6.73924e-07 0)
(0.00100535 2.55608e-06 0)
(0.00100349 4.82818e-06 0)
(0.00100112 4.73654e-06 0)
(0.000999607 3.02839e-06 0)
(0.000999371 1.26363e-06 0)
(0.00100001 4.30207e-07 0)
(0.00100056 3.25266e-07 0)
(0.00100093 5.60832e-07 0)
(0.00100066 5.3349e-07 0)
(0.000999995 -9.30721e-08 0)
(0.000999968 -2.89051e-07 0)
(0.000999907 -5.76547e-07 0)
(0.000999876 -9.56202e-07 0)
(0.000999878 -1.57791e-06 0)
(0.00100009 -2.34577e-06 0)
(0.0010005 -3.40282e-06 0)
(0.00100152 -4.12451e-06 0)
(0.00100308 -4.37165e-06 0)
(0.00100601 -2.54976e-06 0)
(0.00100911 7.56478e-07 0)
(0.00100915 4.26573e-06 0)
(0.0010055 4.71954e-06 0)
(0.00100073 2.78298e-06 0)
(0.00099815 7.35561e-07 0)
(0.000998273 -2.74755e-07 0)
(0.000999797 -2.86407e-07 0)
(0.00100087 -1.06709e-08 0)
(0.00100133 2.11235e-07 0)
(0.00100085 1.025e-07 0)
(0.000999995 -4.98978e-08 0)
(0.000999915 -2.04042e-07 0)
(0.000999756 -3.86011e-07 0)
(0.000999531 -7.34495e-07 0)
(0.000999287 -1.33904e-06 0)
(0.00099921 -2.48228e-06 0)
(0.000999706 -4.68761e-06 0)
(0.00100139 -8.06774e-06 0)
(0.00100491 -1.32838e-05 0)
(0.00100958 -1.49128e-05 0)
(0.00101188 3.84409e-06 0)
(0.00100893 1.87279e-05 0)
(0.00100221 1.57821e-05 0)
(0.000997565 5.74262e-06 0)
(0.000996884 -3.15772e-07 0)
(0.00099846 -1.26307e-06 0)
(0.00100027 -9.41399e-08 0)
(0.001001 6.34438e-07 0)
(0.00100107 6.51514e-07 0)
(0.00100054 2.43769e-07 0)
(0.000999804 -2.01423e-08 0)
(0.00100017 -6.67002e-08 0)
(0.000999216 -1.51106e-07 0)
(0.000999904 -2.48466e-07 0)
(0.000997521 -5.926e-07 0)
(0.000998843 -1.13224e-06 0)
(0.000993347 -2.88395e-06 0)
(0.000997531 -5.59201e-06 0)
(0.000991667 -1.1542e-05 0)
(0.000915833 -1.27045e-05 0)
(0.000951464 2.68214e-07 0)
(0.00101023 1.46384e-05 0)
(0.000990952 1.30838e-05 0)
(0.000983973 5.14089e-06 0)
(0.000989585 1.94542e-07 0)
(0.000996281 -7.80677e-07 0)
(0.000999235 -1.10836e-07 0)
(0.000999411 2.48497e-07 0)
(0.000998646 1.74155e-07 0)
(0.000998505 -1.84789e-07 0)
(0.000999804 1.32104e-08 0)
(0.00100017 4.60624e-08 0)
(0.000999216 1.17338e-07 0)
(0.000999903 1.99805e-07 0)
(0.000997518 5.29306e-07 0)
(0.000998838 1.05098e-06 0)
(0.000993339 2.78578e-06 0)
(0.000997519 5.47321e-06 0)
(0.000991651 1.1397e-05 0)
(0.000915807 1.25464e-05 0)
(0.000951428 -4.72727e-07 0)
(0.0010102 -1.49102e-05 0)
(0.000990947 -1.34095e-05 0)
(0.000983967 -5.53589e-06 0)
(0.000989568 -6.47915e-07 0)
(0.000996243 2.48771e-07 0)
(0.000999194 -4.72321e-07 0)
(0.000999365 -1.00256e-06 0)
(0.000998632 -9.88786e-07 0)
(0.000998455 -8.88716e-07 0)
(0.000999995 4.30805e-08 0)
(0.000999915 1.84098e-07 0)
(0.000999755 3.52969e-07 0)
(0.00099953 6.86755e-07 0)
(0.000999285 1.2767e-06 0)
(0.00099921 2.40186e-06 0)
(0.000999702 4.58859e-06 0)
(0.00100139 7.94135e-06 0)
(0.0010049 1.31302e-05 0)
(0.00100958 1.47192e-05 0)
(0.00101188 -4.06297e-06 0)
(0.0010089 -1.90009e-05 0)
(0.00100214 -1.60952e-05 0)
(0.000997478 -6.12349e-06 0)
(0.000996815 -8.50595e-08 0)
(0.0009984 7.74213e-07 0)
(0.00100016 -4.28248e-07 0)
(0.00100085 -1.30564e-06 0)
(0.00100088 -1.37949e-06 0)
(0.00100037 -1.25073e-06 0)
(0.000999996 8.66165e-08 0)
(0.000999967 2.7016e-07 0)
(0.000999905 5.4429e-07 0)
(0.000999871 9.09468e-07 0)
(0.00099987 1.5137e-06 0)
(0.00100008 2.26235e-06 0)
(0.00100048 3.29402e-06 0)
(0.00100149 3.99013e-06 0)
(0.00100303 4.20951e-06 0)
(0.00100594 2.36557e-06 0)
(0.00100902 -9.76251e-07 0)
(0.00100906 -4.535e-06 0)
(0.00100542 -5.01965e-06 0)
(0.00100066 -3.13069e-06 0)
(0.000998057 -1.13293e-06 0)
(0.000998133 -2.53236e-07 0)
(0.000999621 -3.23725e-07 0)
(0.00100064 -7.41658e-07 0)
(0.00100106 -9.66982e-07 0)
(0.00100055 -1.07367e-06 0)
(0.001 9.66864e-08 0)
(0.001 3.15574e-07 0)
(0.00100002 5.71179e-07 0)
(0.00100007 9.16823e-07 0)
(0.0010002 1.33328e-06 0)
(0.00100046 1.87145e-06 0)
(0.00100097 2.39979e-06 0)
(0.00100185 2.9756e-06 0)
(0.00100318 3.11172e-06 0)
(0.00100469 2.73021e-06 0)
(0.00100568 5.07199e-07 0)
(0.00100527 -2.75667e-06 0)
(0.00100338 -5.07826e-06 0)
(0.00100096 -5.0714e-06 0)
(0.000999408 -3.45046e-06 0)
(0.000999121 -1.79477e-06 0)
(0.000999744 -1.02081e-06 0)
(0.00100025 -1.05834e-06 0)
(0.00100062 -1.30626e-06 0)
(0.00100024 -1.5151e-06 0)
(0.001 9.76696e-08 0)
(0.00100003 3.0242e-07 0)
(0.00100008 5.35267e-07 0)
(0.00100018 8.05171e-07 0)
(0.00100036 1.12076e-06 0)
(0.00100066 1.45899e-06 0)
(0.00100112 1.77889e-06 0)
(0.00100174 1.95235e-06 0)
(0.00100248 1.7839e-06 0)
(0.00100317 1.03546e-06 0)
(0.00100366 -2.81133e-07 0)
(0.00100363 -1.78226e-06 0)
(0.00100292 -2.71043e-06 0)
(0.00100171 -2.63172e-06 0)
(0.00100058 -1.77897e-06 0)
(0.000999905 -8.95017e-07 0)
(0.000999859 -4.26153e-07 0)
(0.000999983 -4.46539e-07 0)
(0.00100022 -6.15292e-07 0)
(0.00100001 -8.48106e-07 0)
(0.001 8.57939e-08 0)
(0.00100004 2.64005e-07 0)
(0.00100011 4.54179e-07 0)
(0.00100024 6.61192e-07 0)
(0.00100043 8.76766e-07 0)
(0.0010007 1.08336e-06 0)
(0.00100106 1.22961e-06 0)
(0.0010015 1.25373e-06 0)
(0.001002 1.07505e-06 0)
(0.00100248 6.58202e-07 0)
(0.0010028 1.94544e-08 0)
(0.00100274 -7.68902e-07 0)
(0.00100227 -1.44866e-06 0)
(0.00100146 -1.77331e-06 0)
(0.00100062 -1.66719e-06 0)
(0.00100001 -1.34719e-06 0)
(0.000999795 -1.02813e-06 0)
(0.000999767 -9.3585e-07 0)
(0.000999885 -9.44797e-07 0)
(0.000999766 -1.10829e-06 0)
(0.001 6.91753e-08 0)
(0.00100004 2.09612e-07 0)
(0.00100012 3.54073e-07 0)
(0.00100025 5.01305e-07 0)
(0.00100043 6.43337e-07 0)
(0.00100066 7.64552e-07 0)
(0.00100096 8.36556e-07 0)
(0.00100129 8.25491e-07 0)
(0.00100163 6.91613e-07 0)
(0.00100191 4.06955e-07 0)
(0.00100206 -4.59988e-08 0)
(0.001002 -5.74686e-07 0)
(0.00100171 -1.03423e-06 0)
(0.0010012 -1.28038e-06 0)
(0.00100065 -1.22886e-06 0)
(0.00100016 -9.93636e-07 0)
(0.000999915 -7.01343e-07 0)
(0.000999741 -5.56729e-07 0)
(0.000999752 -4.87879e-07 0)
(0.000999559 -5.9867e-07 0)
(0.001 5.06243e-08 0)
(0.00100004 1.49739e-07 0)
(0.00100012 2.46549e-07 0)
(0.00100025 3.38821e-07 0)
(0.00100041 4.21385e-07 0)
(0.00100062 4.82544e-07 0)
(0.00100086 5.07586e-07 0)
(0.00100112 4.72215e-07 0)
(0.00100137 3.60568e-07 0)
(0.00100157 1.55333e-07 0)
(0.00100167 -1.16554e-07 0)
(0.0010016 -4.20585e-07 0)
(0.00100139 -6.81048e-07 0)
(0.00100103 -8.42226e-07 0)
(0.00100064 -8.50335e-07 0)
(0.00100022 -7.70886e-07 0)
(0.00099995 -6.38294e-07 0)
(0.000999689 -5.97924e-07 0)
(0.000999627 -5.63242e-07 0)
(0.000999386 -6.85544e-07 0)
(0.001 3.5032e-08 0)
(0.00100004 1.04647e-07 0)
(0.00100011 1.74115e-07 0)
(0.00100023 2.41675e-07 0)
(0.00100038 3.02344e-07 0)
(0.00100056 3.49521e-07 0)
(0.00100077 3.74653e-07 0)
(0.00100097 3.67864e-07 0)
(0.00100116 3.18775e-07 0)
(0.0010013 2.23131e-07 0)
(0.00100136 8.54307e-08 0)
(0.00100131 -7.08251e-08 0)
(0.00100115 -2.06456e-07 0)
(0.00100086 -2.9786e-07 0)
(0.00100054 -3.12943e-07 0)
(0.00100017 -2.82374e-07 0)
(0.0009999 -2.03586e-07 0)
(0.000999612 -1.70447e-07 0)
(0.000999517 -1.20612e-07 0)
(0.00099925 -1.99231e-07 0)
(0.001 -3.84314e-09 0)
(0.00100004 -9.91611e-09 0)
(0.00100012 -1.31493e-08 0)
(0.00100024 -1.48325e-08 0)
(0.00100038 -1.70246e-08 0)
(0.00100056 -2.29066e-08 0)
(0.00100075 -3.40013e-08 0)
(0.00100094 -5.3821e-08 0)
(0.00100111 -8.22751e-08 0)
(0.00100123 -1.22697e-07 0)
(0.00100128 -1.70594e-07 0)
(0.00100121 -2.3176e-07 0)
(0.00100107 -2.90844e-07 0)
(0.00100081 -3.41597e-07 0)
(0.00100053 -3.59962e-07 0)
(0.00100018 -3.68267e-07 0)
(0.000999945 -3.42839e-07 0)
(0.000999609 -3.53644e-07 0)
(0.000999522 -3.28786e-07 0)
(0.000999132 -4.10969e-07 0)
)
;

boundaryField
{
    sides
    {
        type            slip;
    }
    inlet
    {
        type            fixedValue;
        value           uniform (0.001 0 0);
    }
    outlet
    {
        type            zeroGradient;
    }
    frontAndBack
    {
        type            empty;
    }
}


// ************************************************************************* //
