/*--------------------------------*- C++ -*----------------------------------*\
  =========                 |
  \\      /  F ield         | OpenFOAM: The Open Source CFD Toolbox
   \\    /   O peration     | Website:  https://openfoam.org
    \\  /    A nd           | Version:  9
     \\/     M anipulation  |
\*---------------------------------------------------------------------------*/
FoamFile
{
    format      ascii;
    class       surfaceScalarField;
    location    "85";
    object      phi_0;
}
// * * * * * * * * * * * * * * * * * * * * * * * * * * * * * * * * * * * * * //

dimensions      [0 4 -1 0 0 0 0];

internalField   nonuniform List<scalar> 
760
(
5.00009e-06
-9.35732e-11
5.0004e-06
-3.06923e-10
5.00091e-06
-5.11676e-10
5.00162e-06
-7.03687e-10
5.00249e-06
-8.74345e-10
5.00349e-06
-1.00493e-09
5.00455e-06
-1.05999e-09
5.00557e-06
-1.01085e-09
5.0064e-06
-8.27552e-10
5.00692e-06
-5.18225e-10
5.00704e-06
-1.21893e-10
5.00665e-06
3.99616e-10
5.00579e-06
8.56456e-10
5.00469e-06
1.10736e-09
5.00352e-06
1.17776e-09
5.00257e-06
9.57994e-10
5.00185e-06
7.18879e-10
5.00161e-06
2.47042e-10
5.00151e-06
1.0773e-10
-3.91202e-10
5.00012e-06
-2.14669e-10
5.00045e-06
-6.33942e-10
5.00098e-06
-1.04382e-09
5.00172e-06
-1.44225e-09
5.00265e-06
-1.80772e-09
5.00374e-06
-2.096e-09
5.00493e-06
-2.24507e-09
5.00611e-06
-2.18607e-09
5.00713e-06
-1.84794e-09
5.00777e-06
-1.16415e-09
5.00774e-06
-9.06584e-11
5.00725e-06
8.84679e-10
5.00626e-06
1.84476e-09
5.00495e-06
2.41706e-09
5.00368e-06
2.4494e-09
5.00277e-06
1.86318e-09
5.00224e-06
1.24885e-09
5.00191e-06
5.83014e-10
5.00165e-06
3.70797e-10
-1.46667e-10
5.00011e-06
-3.21756e-10
5.00043e-06
-9.51552e-10
5.00096e-06
-1.5756e-09
5.00172e-06
-2.20729e-09
5.00272e-06
-2.80901e-09
5.00394e-06
-3.31633e-09
5.00532e-06
-3.61938e-09
5.00672e-06
-3.59081e-09
5.00793e-06
-3.05647e-09
5.00872e-06
-1.96301e-09
5.00893e-06
-3.05514e-10
5.00825e-06
1.56245e-09
5.00687e-06
3.22261e-09
5.00515e-06
4.13207e-09
5.00351e-06
4.0899e-09
5.0023e-06
3.05436e-09
5.00166e-06
1.88965e-09
5.00147e-06
7.72511e-10
5.00144e-06
4.02196e-10
-2.19408e-10
5.0001e-06
-4.19263e-10
5.00041e-06
-1.25956e-09
5.00094e-06
-2.11317e-09
5.00174e-06
-3.01255e-09
5.00285e-06
-3.91503e-09
5.00429e-06
-4.74586e-09
5.00601e-06
-5.35015e-09
5.00795e-06
-5.53129e-09
5.00984e-06
-4.95011e-09
5.01107e-06
-3.197e-09
5.01119e-06
-4.40246e-10
5.00999e-06
2.77355e-09
5.00765e-06
5.56465e-09
5.00514e-06
6.63574e-09
5.00348e-06
5.76023e-09
5.0027e-06
3.82366e-09
5.00247e-06
2.10648e-09
5.0023e-06
9.3786e-10
5.00199e-06
7.14568e-10
3.42476e-10
5.00008e-06
-4.99272e-10
5.00034e-06
-1.51919e-09
5.00083e-06
-2.60845e-09
5.00163e-06
-3.81421e-09
5.00286e-06
-5.13345e-09
5.00458e-06
-6.46359e-09
5.00679e-06
-7.57901e-09
5.00942e-06
-8.14793e-09
5.01238e-06
-7.92421e-09
5.01478e-06
-5.58848e-09
5.01483e-06
-4.70323e-10
5.01284e-06
4.74496e-09
5.00867e-06
9.74938e-09
5.00459e-06
1.07117e-08
5.00224e-06
8.11466e-09
5.00175e-06
4.31983e-09
5.00205e-06
1.80089e-09
5.00225e-06
7.22838e-10
5.002e-06
9.53795e-10
6.29231e-10
5.00004e-06
-5.4183e-10
5.00019e-06
-1.67715e-09
5.00053e-06
-2.94884e-09
5.00121e-06
-4.4829e-09
5.00241e-06
-6.33102e-09
5.00452e-06
-8.57907e-09
5.0076e-06
-1.06547e-08
5.01167e-06
-1.22221e-08
5.01553e-06
-1.17695e-08
5.019e-06
-9.08899e-09
5.02021e-06
-1.65394e-09
5.01602e-06
8.93534e-09
5.0095e-06
1.62526e-08
5.00421e-06
1.601e-08
5.00217e-06
1.01599e-08
5.0025e-06
3.99762e-09
5.00327e-06
1.02633e-09
5.0034e-06
5.94291e-10
5.00279e-06
1.54543e-09
1.42279e-09
4.99998e-06
-5.25265e-10
4.99993e-06
-1.63704e-09
5.00003e-06
-3.03939e-09
5.00036e-06
-4.80969e-09
5.00122e-06
-7.1914e-09
5.00292e-06
-1.02796e-08
5.0068e-06
-1.45358e-08
5.01392e-06
-1.93341e-08
5.02374e-06
-2.16116e-08
5.03095e-06
-1.62363e-08
5.0287e-06
4.76666e-10
5.01673e-06
2.09628e-08
5.00418e-06
2.88137e-08
4.99872e-06
2.14561e-08
5.00057e-06
8.31627e-09
5.00285e-06
1.7283e-09
5.00372e-06
1.58629e-10
5.00366e-06
6.47903e-10
5.00304e-06
2.16019e-09
1.68073e-09
4.99986e-06
-3.93789e-10
4.99955e-06
-1.32352e-09
4.99912e-06
-2.61089e-09
4.99886e-06
-4.53874e-09
4.99933e-06
-7.66737e-09
5.00035e-06
-1.1309e-08
5.00365e-06
-1.78232e-08
5.00982e-06
-2.55134e-08
5.02487e-06
-3.66512e-08
5.05614e-06
-4.74649e-08
5.05002e-06
7.1062e-09
5.02316e-06
4.777e-08
4.99817e-06
5.38257e-08
4.99349e-06
2.61478e-08
4.99946e-06
2.35081e-09
5.00407e-06
-2.87669e-09
5.00491e-06
-6.71046e-10
5.00373e-06
1.83199e-09
5.00351e-06
2.37831e-09
9.68839e-10
4.99977e-06
-1.61703e-10
4.99915e-06
-7.06898e-10
4.99792e-06
-1.37778e-09
4.99611e-06
-2.72946e-09
4.99402e-06
-5.57752e-09
4.99374e-06
-1.10319e-08
4.99945e-06
-2.3536e-08
5.01713e-06
-4.31928e-08
5.05571e-06
-7.52329e-08
5.0668e-06
-5.85883e-08
5.04974e-06
2.36605e-08
4.99651e-06
1.01053e-07
4.98929e-06
6.10102e-08
4.9959e-06
1.95403e-08
5.00018e-06
-1.9277e-09
5.00292e-06
-5.61119e-09
5.00252e-06
-2.67598e-10
5.00184e-06
2.51592e-09
5.00254e-06
1.67641e-09
8.08355e-11
4.99986e-06
-1.72835e-11
4.99921e-06
-5.13938e-11
4.99791e-06
-8.57786e-11
4.9953e-06
-1.27072e-10
4.98989e-06
-1.68846e-10
4.97909e-06
-2.21302e-10
4.95582e-06
-2.72762e-10
4.91295e-06
-3.33367e-10
4.83814e-06
-3.98592e-10
4.77996e-06
-4.65863e-10
4.80431e-06
-5.9411e-10
4.90603e-06
-7.38069e-10
4.96778e-06
-7.51327e-10
4.98822e-06
-8.98573e-10
4.98745e-06
-1.15663e-09
4.98326e-06
-1.42248e-09
4.98455e-06
-1.55677e-09
4.9889e-06
-1.82806e-09
4.99248e-06
-1.89585e-09
-2.58501e-09
4.99986e-06
1.27334e-10
4.99921e-06
6.03051e-10
4.99791e-06
1.21067e-09
4.9953e-06
2.48003e-09
4.98987e-06
5.2507e-09
4.97905e-06
1.0602e-08
4.95578e-06
2.30088e-08
4.9129e-06
4.25391e-08
4.83803e-06
7.44488e-08
4.77974e-06
5.78415e-08
4.80427e-06
-2.51039e-08
4.90599e-06
-1.02494e-07
4.96777e-06
-6.25143e-08
4.98806e-06
-2.12023e-08
4.98735e-06
-4.56314e-10
4.98292e-06
2.99551e-09
4.98442e-06
-3.054e-09
4.98888e-06
-6.28702e-09
4.99235e-06
-5.35799e-09
-4.9833e-09
4.99977e-06
3.59877e-10
4.99915e-06
1.224e-09
4.99792e-06
2.44168e-09
4.9961e-06
4.29233e-09
4.99401e-06
7.33197e-09
4.99373e-06
1.0891e-08
4.99943e-06
1.73163e-08
5.01708e-06
2.48884e-08
5.05563e-06
3.59044e-08
5.06696e-06
4.63604e-08
5.04955e-06
-6.272e-09
4.99613e-06
-4.90457e-08
4.98885e-06
-5.52686e-08
4.99569e-06
-2.80536e-08
5.0001e-06
-4.87612e-09
5.0023e-06
7.83369e-10
5.00165e-06
-2.39683e-09
5.0009e-06
-5.53576e-09
5.00168e-06
-6.13695e-09
-5.95071e-09
4.99987e-06
4.93886e-10
4.99955e-06
1.54151e-09
4.99911e-06
2.87781e-09
4.99883e-06
4.57474e-09
4.99927e-06
6.88548e-09
5.00026e-06
9.89549e-09
5.00347e-06
1.41104e-08
5.0096e-06
1.87684e-08
5.02459e-06
2.09123e-08
5.05569e-06
1.5406e-08
5.04967e-06
-1.75476e-09
5.02279e-06
-2.21949e-08
4.99786e-06
-3.03151e-08
4.99315e-06
-2.33433e-08
4.99863e-06
-1.0354e-08
5.00345e-06
-4.02539e-09
5.00373e-06
-2.67214e-09
5.00236e-06
-4.15957e-09
5.00216e-06
-5.94337e-09
-6.53499e-09
4.99998e-06
5.14426e-10
4.99993e-06
1.58996e-09
5e-06
2.80192e-09
5.00031e-06
4.27354e-09
5.00113e-06
6.06065e-09
5.00279e-06
8.23098e-09
5.00667e-06
1.02215e-08
5.01377e-06
1.16728e-08
5.02357e-06
1.11318e-08
5.0307e-06
8.27362e-09
5.02837e-06
6.17911e-10
5.01624e-06
-1.00355e-08
5.00349e-06
-1.75617e-08
4.99777e-06
-1.76119e-08
4.99941e-06
-1.19868e-08
5.00161e-06
-6.21615e-09
5.00241e-06
-3.46184e-09
5.00213e-06
-3.88663e-09
5.00119e-06
-5.00742e-09
-5.97728e-09
5.00004e-06
4.75311e-10
5.00018e-06
1.44441e-09
5.0005e-06
2.48171e-09
5.00115e-06
3.62996e-09
5.00232e-06
4.89129e-09
5.00439e-06
6.15436e-09
5.00741e-06
7.19495e-09
5.01139e-06
7.69189e-09
5.01513e-06
7.39509e-09
5.01852e-06
4.89029e-09
5.01956e-06
-3.90969e-10
5.01522e-06
-5.69458e-09
5.00854e-06
-1.08622e-08
5.00311e-06
-1.21721e-08
5.00088e-06
-9.74695e-09
5.00101e-06
-6.34321e-09
5.00156e-06
-4.00509e-09
5.00132e-06
-3.64952e-09
5.00035e-06
-4.04655e-09
-4.97809e-09
5.00008e-06
3.97296e-10
5.00032e-06
1.19831e-09
5.00079e-06
2.01105e-09
5.00156e-06
2.85935e-09
5.00275e-06
3.71062e-09
5.00441e-06
4.49336e-09
5.00655e-06
5.04544e-09
5.00909e-06
5.14921e-09
5.01203e-06
4.45441e-09
5.0144e-06
2.51441e-09
5.01414e-06
-1.3366e-10
5.01208e-06
-3.63013e-09
5.00775e-06
-6.52915e-09
5.00349e-06
-7.90459e-09
5.00093e-06
-7.18635e-09
5.00013e-06
-5.54835e-09
5.0001e-06
-3.98213e-09
4.99987e-06
-3.42234e-09
4.99916e-06
-3.34523e-09
-4.17471e-09
5.0001e-06
3.00502e-10
5.0004e-06
9.00841e-10
5.0009e-06
1.49813e-09
5.00167e-06
2.09176e-09
5.00273e-06
2.65069e-09
5.00412e-06
3.11099e-09
5.00579e-06
3.37806e-09
5.00763e-06
3.30628e-09
5.00933e-06
2.74953e-09
5.01026e-06
1.56874e-09
5.01043e-06
-3.03001e-10
5.00903e-06
-2.23326e-09
5.0065e-06
-4.00687e-09
5.00367e-06
-5.08121e-09
5.00154e-06
-5.06174e-09
5.00034e-06
-4.35491e-09
4.9997e-06
-3.34479e-09
4.99916e-06
-2.89087e-09
4.99844e-06
-2.63199e-09
-3.2193e-09
5.0001e-06
2.00243e-10
5.00041e-06
5.92819e-10
5.00093e-06
9.80095e-10
5.00166e-06
1.35569e-09
5.00261e-06
1.69677e-09
5.00378e-06
1.9531e-09
5.00509e-06
2.06588e-09
5.00645e-06
1.95265e-09
5.00764e-06
1.55081e-09
5.00838e-06
8.23879e-10
5.00821e-06
-1.33413e-10
5.00733e-06
-1.36066e-09
5.0057e-06
-2.37894e-09
5.00368e-06
-3.06978e-09
5.00179e-06
-3.17516e-09
5.00033e-06
-2.90235e-09
4.99931e-06
-2.32921e-09
4.99851e-06
-2.10011e-09
4.99772e-06
-1.84065e-09
-2.28216e-09
5.00008e-06
1.1669e-10
5.00037e-06
3.03741e-10
5.00086e-06
4.89499e-10
5.00155e-06
6.71451e-10
5.00241e-06
8.34736e-10
5.00341e-06
9.51977e-10
5.00448e-06
9.96078e-10
5.0055e-06
9.32842e-10
5.00632e-06
7.3239e-10
5.00679e-06
3.56777e-10
5.0068e-06
-1.4512e-10
5.00607e-06
-6.31351e-10
5.00479e-06
-1.0946e-09
5.00315e-06
-1.43264e-09
5.00148e-06
-1.5056e-09
5.00002e-06
-1.44145e-09
4.99888e-06
-1.18994e-09
4.99792e-06
-1.13895e-09
4.99707e-06
-9.81544e-10
-1.42723e-09
5.00011e-06
5.00042e-06
5.00091e-06
5.00159e-06
5.00242e-06
5.00337e-06
5.00436e-06
5.00529e-06
5.00603e-06
5.00639e-06
5.00625e-06
5.00562e-06
5.00453e-06
5.0031e-06
5.0016e-06
5.00017e-06
4.99898e-06
4.99785e-06
4.99688e-06
)
;

boundaryField
{
    sides
    {
        type            calculated;
        value           uniform 0;
    }
    inlet
    {
        type            calculated;
        value           nonuniform List<scalar> 
20
(
-5e-06
-5e-06
-5e-06
-5e-06
-5e-06
-5e-06
-5e-06
-5e-06
-5e-06
-5e-06
-5e-06
-5e-06
-5e-06
-5e-06
-5e-06
-5e-06
-5e-06
-5e-06
-5e-06
-5e-06
)
;
    }
    outlet
    {
        type            calculated;
        value           nonuniform List<scalar> 
20
(
5.0019e-06
5.00141e-06
5.00152e-06
5.00142e-06
5.00171e-06
5.00199e-06
5.00278e-06
5.00422e-06
5.00344e-06
4.99514e-06
4.99475e-06
5.00265e-06
5.00275e-06
5.00063e-06
4.99935e-06
4.99836e-06
4.99748e-06
4.99679e-06
4.99622e-06
4.99546e-06
)
;
    }
    frontAndBack
    {
        type            empty;
        value           nonuniform List<scalar> 0();
    }
}


// ************************************************************************* //
