/*--------------------------------*- C++ -*----------------------------------*\
  =========                 |
  \\      /  F ield         | OpenFOAM: The Open Source CFD Toolbox
   \\    /   O peration     | Website:  https://openfoam.org
    \\  /    A nd           | Version:  9
     \\/     M anipulation  |
\*---------------------------------------------------------------------------*/
FoamFile
{
    format      ascii;
    class       volScalarField;
    location    "30";
    object      ddt0(h);
}
// * * * * * * * * * * * * * * * * * * * * * * * * * * * * * * * * * * * * * //

dimensions      [0 1 -1 0 0 0 0];

internalField   nonuniform List<scalar> 
400
(
5.89504e-07
4.96469e-07
3.13665e-07
8.76012e-08
-5.17477e-08
-1.49413e-07
-2.16239e-07
-2.6641e-07
-2.42059e-07
-1.65645e-07
-1.39067e-08
1.85158e-07
3.63084e-07
5.08541e-07
6.59705e-07
8.153e-07
8.99531e-07
8.52737e-07
6.11926e-07
2.25865e-07
5.6976e-07
4.56537e-07
2.48398e-07
6.02792e-08
-6.51475e-08
-1.41826e-07
-2.01648e-07
-2.13187e-07
-2.00103e-07
-9.78337e-08
1.51654e-08
1.91214e-07
3.61873e-07
4.84075e-07
6.24937e-07
7.49278e-07
7.86273e-07
6.81966e-07
4.64446e-07
1.83055e-07
5.52962e-07
3.96023e-07
1.8416e-07
3.44769e-08
-7.33893e-08
-1.36424e-07
-1.57839e-07
-1.35202e-07
-9.66466e-08
-4.44752e-08
9.84218e-08
1.71561e-07
3.31249e-07
4.43975e-07
5.49011e-07
6.76015e-07
7.43606e-07
6.80484e-07
4.52014e-07
1.38604e-07
5.21826e-07
3.50449e-07
1.62745e-07
2.29765e-08
-9.02122e-08
-1.36397e-07
-8.25804e-08
-7.01716e-08
-2.48519e-08
-3.33106e-08
8.54168e-08
2.07943e-07
2.01541e-07
3.46603e-07
4.42137e-07
5.00978e-07
4.92393e-07
3.69878e-07
2.00489e-07
6.0026e-08
4.99998e-07
3.40915e-07
1.78369e-07
1.84399e-08
-1.15398e-07
-1.06456e-07
-8.73784e-08
-3.01839e-09
-7.34892e-08
1.22877e-07
-6.41736e-08
1.61615e-07
2.09166e-07
2.04634e-07
3.15507e-07
3.62006e-07
3.25833e-07
2.62964e-07
1.13124e-07
1.7118e-08
5.17957e-07
3.66149e-07
2.0433e-07
1.30137e-08
-1.14806e-07
-1.31219e-07
-6.30829e-08
-9.46628e-08
4.32051e-08
-1.20836e-08
1.32721e-07
-1.3451e-07
1.43371e-07
1.68899e-07
1.19818e-07
9.07318e-08
2.12864e-08
-7.30633e-08
-8.20868e-08
-3.45733e-08
5.80532e-07
4.21143e-07
2.25191e-07
1.58319e-08
-1.32267e-07
-1.43878e-07
-1.42148e-07
-8.39823e-08
7.81051e-08
-3.28274e-07
3.53165e-07
-3.86949e-09
-2.00811e-07
-3.56921e-08
-2.44229e-08
-1.18097e-07
-1.55643e-07
-2.50766e-07
-2.03181e-07
-8.10002e-08
6.72593e-07
4.91789e-07
2.54104e-07
1.72894e-08
-1.36371e-07
-2.03462e-07
-1.63325e-07
-1.04798e-07
-2.1998e-07
5.43202e-08
3.57945e-06
1.86153e-07
-1.78024e-07
-2.72243e-07
-2.74762e-07
-3.28958e-07
-4.26844e-07
-4.20107e-07
-3.10886e-07
-1.2308e-07
7.6576e-07
5.55793e-07
2.81269e-07
2.74366e-08
-1.65595e-07
-2.21034e-07
-2.02754e-07
-1.75083e-07
-8.0095e-08
-4.62953e-07
-4.04647e-06
-6.89791e-07
-3.97045e-07
-3.52618e-07
-4.32009e-07
-4.84779e-07
-5.73897e-07
-5.36288e-07
-4.01273e-07
-1.47193e-07
8.29569e-07
5.97827e-07
2.99939e-07
2.85095e-08
-1.7037e-07
-2.64282e-07
-2.18776e-07
-2.48726e-07
-4.13102e-07
3.92876e-08
-7.75416e-07
-3.63101e-07
-2.11782e-07
-4.5111e-07
-5.07914e-07
-5.79831e-07
-6.40212e-07
-6.29908e-07
-4.56555e-07
-1.68691e-07
8.37503e-07
6.04972e-07
3.05379e-07
2.8123e-08
-1.59809e-07
-2.47094e-07
-2.71628e-07
-2.62871e-07
-3.55525e-07
-3.01715e-07
-1.71664e-07
-2.81748e-07
-3.62614e-07
-4.04867e-07
-4.43345e-07
-5.53057e-07
-6.51844e-07
-6.33203e-07
-4.61621e-07
-1.65069e-07
7.91412e-07
5.79163e-07
2.90176e-07
1.91487e-08
-1.50819e-07
-2.20511e-07
-2.34541e-07
-2.683e-07
-1.83572e-07
-5.42934e-07
4.55905e-06
-1.88606e-07
-4.00737e-07
-2.95031e-07
-3.59946e-07
-4.91332e-07
-5.78532e-07
-5.64686e-07
-4.10858e-07
-1.50305e-07
7.20047e-07
5.26066e-07
2.68714e-07
5.98861e-09
-1.45518e-07
-2.03944e-07
-1.87723e-07
-1.33345e-07
-1.9101e-07
2.97535e-08
-5.02464e-06
-4.06531e-07
-1.13483e-07
-1.97047e-07
-2.4332e-07
-3.06546e-07
-4.19653e-07
-4.28318e-07
-3.14235e-07
-1.15906e-07
6.45316e-07
4.63106e-07
2.39791e-07
6.87458e-09
-1.38839e-07
-1.69749e-07
-1.34447e-07
-8.49428e-09
-2.33638e-08
-9.69016e-08
-2.48766e-07
7.62062e-09
-1.60565e-07
-7.83647e-08
-5.98054e-08
-1.09983e-07
-1.74658e-07
-2.28679e-07
-1.9052e-07
-7.50641e-08
5.89317e-07
4.05686e-07
2.10626e-07
9.56043e-09
-1.10269e-07
-1.42029e-07
-9.21805e-08
-1.26667e-08
7.64792e-08
-5.06311e-08
1.18085e-08
-4.80735e-08
3.76721e-08
1.18984e-07
1.1934e-07
8.63462e-08
4.40341e-08
-2.68159e-08
-7.21932e-08
-4.03685e-08
5.58847e-07
3.77141e-07
1.94569e-07
2.75129e-08
-7.77372e-08
-1.0054e-07
-9.66833e-08
-2.94439e-08
6.89478e-09
3.36631e-08
7.56224e-08
1.20184e-07
2.04962e-07
2.53711e-07
2.8069e-07
2.90106e-07
2.63098e-07
1.75809e-07
5.79373e-08
1.13102e-09
5.57845e-07
3.85194e-07
2.06089e-07
5.44113e-08
-5.8496e-08
-8.78661e-08
-1.17024e-07
-1.04279e-07
-5.49019e-08
2.66484e-08
1.45666e-07
1.9363e-07
2.75421e-07
3.51981e-07
4.28175e-07
4.66273e-07
4.64274e-07
3.81684e-07
2.1483e-07
6.08159e-08
5.80215e-07
4.24484e-07
2.38434e-07
7.38421e-08
-5.27304e-08
-1.21762e-07
-1.51147e-07
-1.80728e-07
-1.43847e-07
-5.1654e-08
3.65925e-08
1.98442e-07
3.1114e-07
4.26921e-07
5.34598e-07
6.26389e-07
6.65369e-07
5.86959e-07
3.80718e-07
1.2771e-07
6.18443e-07
4.75397e-07
2.65069e-07
7.08255e-08
-6.2731e-08
-1.5996e-07
-2.10012e-07
-2.39573e-07
-2.13476e-07
-1.1274e-07
3.29361e-08
1.95784e-07
3.45594e-07
4.87683e-07
6.36987e-07
7.73075e-07
8.30362e-07
7.53084e-07
5.22224e-07
1.86767e-07
6.4811e-07
5.15979e-07
2.83865e-07
6.02737e-08
-8.17967e-08
-1.8358e-07
-2.53666e-07
-2.83764e-07
-2.59779e-07
-1.32804e-07
2.11747e-08
2.01349e-07
3.68167e-07
5.1898e-07
6.88698e-07
8.40848e-07
9.09842e-07
8.44063e-07
6.06584e-07
2.23933e-07
)
;

boundaryField
{
    sides
    {
        type            calculated;
        value           nonuniform List<scalar> 
40
(
6.4811e-07
5.15979e-07
2.83865e-07
6.02737e-08
-8.17967e-08
-1.8358e-07
-2.53666e-07
-2.83764e-07
-2.59779e-07
-1.32804e-07
2.11747e-08
2.01349e-07
3.68167e-07
5.1898e-07
6.88698e-07
8.40848e-07
9.09842e-07
8.44063e-07
6.06584e-07
2.23933e-07
5.89504e-07
4.96469e-07
3.13665e-07
8.76012e-08
-5.17477e-08
-1.49413e-07
-2.16239e-07
-2.6641e-07
-2.42059e-07
-1.65645e-07
-1.39067e-08
1.85158e-07
3.63084e-07
5.08541e-07
6.59705e-07
8.153e-07
8.99531e-07
8.52737e-07
6.11926e-07
2.25865e-07
)
;
    }
    inlet
    {
        type            calculated;
        value           nonuniform List<scalar> 
20
(
5.89504e-07
5.6976e-07
5.52962e-07
5.21826e-07
4.99998e-07
5.17957e-07
5.80532e-07
6.72593e-07
7.6576e-07
8.29569e-07
8.37503e-07
7.91412e-07
7.20047e-07
6.45316e-07
5.89317e-07
5.58847e-07
5.57845e-07
5.80215e-07
6.18443e-07
6.4811e-07
)
;
    }
    outlet
    {
        type            calculated;
        value           uniform 0;
    }
    frontAndBack
    {
        type            empty;
    }
}


// ************************************************************************* //
