/*--------------------------------*- C++ -*----------------------------------*\
  =========                 |
  \\      /  F ield         | OpenFOAM: The Open Source CFD Toolbox
   \\    /   O peration     | Website:  https://openfoam.org
    \\  /    A nd           | Version:  9
     \\/     M anipulation  |
\*---------------------------------------------------------------------------*/
FoamFile
{
    format      ascii;
    class       volVectorField;
    location    "30";
    object      ddtCorrDdt0(hU);
}
// * * * * * * * * * * * * * * * * * * * * * * * * * * * * * * * * * * * * * //

dimensions      [0 2 -2 0 0 0 0];

internalField   nonuniform List<vector> 
400
(
(3.22346e-08 1.66597e-09 0)
(3.03227e-08 -2.07287e-08 0)
(7.888e-08 -2.65225e-08 0)
(1.30232e-07 -9.11966e-09 0)
(1.16513e-07 1.71784e-08 0)
(6.41543e-08 2.11201e-08 0)
(3.39121e-08 -4.40215e-09 0)
(5.79736e-08 -2.39665e-08 0)
(1.04176e-07 -1.29591e-08 0)
(1.02918e-07 1.25002e-08 0)
(5.29897e-08 1.84473e-08 0)
(1.67613e-08 -6.54122e-09 0)
(3.93628e-08 -2.59111e-08 0)
(8.61467e-08 -3.24621e-08 0)
(9.6254e-08 -2.13085e-08 0)
(6.93483e-08 -4.34231e-09 0)
(1.54764e-08 1.83015e-09 0)
(1.17119e-09 1.27795e-08 0)
(9.83625e-08 1.60103e-09 0)
(1.20408e-07 -7.16952e-09 0)
(2.98668e-08 2.10169e-09 0)
(3.47447e-08 -4.48753e-08 0)
(8.2007e-08 -6.35088e-08 0)
(1.30581e-07 -2.97526e-08 0)
(1.17522e-07 3.73189e-08 0)
(6.92512e-08 5.42463e-08 0)
(3.74369e-08 -6.58596e-09 0)
(5.89581e-08 -6.36991e-08 0)
(1.00187e-07 -4.22887e-08 0)
(1.04732e-07 1.45151e-08 0)
(5.1658e-08 2.87468e-08 0)
(1.75655e-08 -2.58489e-08 0)
(3.53619e-08 -8.95191e-08 0)
(6.76071e-08 -9.70541e-08 0)
(8.41916e-08 -6.37258e-08 0)
(6.99204e-08 -2.46567e-08 0)
(4.74368e-08 -1.46e-08 0)
(2.9615e-08 -8.46282e-08 0)
(6.4193e-08 -1.13408e-07 0)
(7.88906e-08 -2.56938e-08 0)
(3.07408e-08 -5.1373e-09 0)
(4.53698e-08 -6.31132e-08 0)
(8.41841e-08 -9.75954e-08 0)
(1.22843e-07 -5.57165e-08 0)
(1.1711e-07 4.46456e-08 0)
(8.22328e-08 7.31323e-08 0)
(5.03027e-08 -1.98329e-08 0)
(5.6926e-08 -1.04974e-07 0)
(8.18841e-08 -7.45385e-08 0)
(8.01472e-08 2.43321e-08 0)
(5.22872e-08 3.81289e-08 0)
(1.58331e-08 -3.10654e-08 0)
(3.11091e-08 -1.3207e-07 0)
(6.03936e-08 -1.48232e-07 0)
(6.45313e-08 -9.44293e-08 0)
(5.03727e-08 -3.59504e-08 0)
(5.75564e-09 -1.65101e-08 0)
(4.73388e-09 -8.98929e-08 0)
(1.13607e-07 -1.31465e-07 0)
(1.43296e-07 -3.50919e-08 0)
(3.04125e-08 -1.7999e-08 0)
(5.7217e-08 -8.90602e-08 0)
(8.96112e-08 -1.38132e-07 0)
(1.21142e-07 -8.78043e-08 0)
(1.20335e-07 4.15064e-08 0)
(9.14968e-08 7.50567e-08 0)
(6.4248e-08 -4.3629e-08 0)
(5.6759e-08 -1.42044e-07 0)
(7.77278e-08 -9.51088e-08 0)
(6.15571e-08 3.98398e-08 0)
(3.83612e-08 8.01335e-08 0)
(2.50608e-08 -3.7668e-08 0)
(5.96667e-09 -1.45748e-07 0)
(3.05575e-08 -1.6928e-07 0)
(4.11456e-08 -1.06999e-07 0)
(4.045e-08 -3.40561e-08 0)
(5.79071e-08 -1.53916e-08 0)
(5.82643e-08 -1.16664e-07 0)
(4.98354e-08 -1.59932e-07 0)
(6.13578e-08 -3.5436e-08 0)
(2.89427e-08 -3.18807e-08 0)
(7.01255e-08 -1.09851e-07 0)
(9.23771e-08 -1.67819e-07 0)
(1.16486e-07 -1.16597e-07 0)
(1.23076e-07 2.47535e-08 0)
(1.09993e-07 6.07955e-08 0)
(8.15143e-08 -6.29246e-08 0)
(6.39749e-08 -1.67187e-07 0)
(5.19704e-08 -9.18516e-08 0)
(6.99162e-08 2.21483e-08 0)
(6.34964e-09 9.44756e-08 0)
(9.99552e-09 -2.12202e-08 0)
(1.84096e-08 -1.5448e-07 0)
(-2.18373e-09 -1.61187e-07 0)
(2.66985e-09 -9.34218e-08 0)
(8.4789e-09 -1.84438e-08 0)
(3.27451e-09 4.95273e-09 0)
(3.42023e-08 -1.30408e-07 0)
(1.12558e-07 -1.98031e-07 0)
(1.2393e-07 -4.07133e-08 0)
(2.75803e-08 -4.4709e-08 0)
(7.93573e-08 -1.24228e-07 0)
(9.42104e-08 -1.83476e-07 0)
(1.11796e-07 -1.3353e-07 0)
(1.25736e-07 3.47896e-09 0)
(1.23467e-07 4.07542e-08 0)
(1.03696e-07 -7.81887e-08 0)
(7.4887e-08 -1.73124e-07 0)
(3.82342e-08 -1.16154e-07 0)
(2.36236e-08 4.81915e-08 0)
(5.22826e-08 6.11932e-08 0)
(-1.27697e-08 -1.5874e-09 0)
(7.01925e-09 -1.64611e-07 0)
(-8.17082e-09 -1.79129e-07 0)
(-3.84073e-08 -8.69352e-08 0)
(-1.85169e-08 3.01013e-09 0)
(3.13768e-08 3.37247e-08 0)
(5.38446e-08 -5.55338e-08 0)
(4.95862e-08 -1.38845e-07 0)
(6.38016e-08 -3.45294e-08 0)
(2.68226e-08 -5.30579e-08 0)
(8.52519e-08 -1.25334e-07 0)
(9.38745e-08 -1.79766e-07 0)
(1.06031e-07 -1.37895e-07 0)
(1.26464e-07 -1.70017e-08 0)
(1.41655e-07 1.84532e-08 0)
(1.25227e-07 -8.08947e-08 0)
(6.63458e-08 -1.64582e-07 0)
(5.07057e-08 -1.13802e-07 0)
(-2.32498e-08 6.26206e-08 0)
(4.70202e-08 -3.44853e-08 0)
(1.54514e-08 -4.65486e-09 0)
(-5.20443e-08 -1.02552e-07 0)
(-2.72201e-08 -1.48742e-07 0)
(-3.56644e-08 -8.69977e-08 0)
(-3.22328e-08 2.64816e-09 0)
(2.44045e-08 2.77361e-08 0)
(5.29432e-08 -9.49993e-08 0)
(4.63507e-08 -1.55125e-07 0)
(5.44488e-08 -2.69162e-08 0)
(2.79727e-08 -5.29972e-08 0)
(8.8082e-08 -1.10077e-07 0)
(9.23756e-08 -1.54134e-07 0)
(1.01351e-07 -1.2625e-07 0)
(1.27594e-07 -3.23858e-08 0)
(1.55523e-07 -2.46108e-09 0)
(1.44282e-07 -8.54903e-08 0)
(8.18607e-08 -1.5786e-07 0)
(2.4867e-08 -8.88941e-08 0)
(-9.13406e-08 -1.15163e-08 0)
(3.7e-07 1.84679e-07 0)
(1.76184e-07 -4.20722e-09 0)
(-3.183e-08 -8.22919e-08 0)
(-1.03309e-07 -8.56129e-08 0)
(-9.01683e-08 -4.66827e-08 0)
(-4.66295e-08 6.35024e-09 0)
(3.27262e-09 2.56119e-08 0)
(5.06711e-08 -6.30778e-08 0)
(4.02848e-08 -1.11747e-07 0)
(3.5006e-08 -2.01239e-08 0)
(3.00166e-08 -4.23354e-08 0)
(9.02523e-08 -7.98737e-08 0)
(9.01869e-08 -1.10102e-07 0)
(9.62827e-08 -9.56966e-08 0)
(1.26047e-07 -3.72098e-08 0)
(1.58094e-07 -1.52378e-08 0)
(1.43813e-07 -6.78242e-08 0)
(8.34517e-08 -1.07658e-07 0)
(1.33279e-08 -5.38563e-08 0)
(6.76356e-08 -8.7068e-09 0)
(-3.56561e-07 1.82268e-07 0)
(-1.49989e-07 -1.40025e-08 0)
(-3.57997e-08 -5.38564e-08 0)
(-6.8826e-08 -4.90681e-08 0)
(-1.0855e-07 -1.77812e-08 0)
(-7.28598e-08 5.72289e-09 0)
(2.64454e-09 1.26959e-08 0)
(5.65931e-08 -3.54677e-08 0)
(1.65644e-08 -7.00793e-08 0)
(9.34695e-09 -5.7977e-09 0)
(3.25592e-08 -2.08192e-08 0)
(9.19122e-08 -3.74922e-08 0)
(9.07984e-08 -5.21545e-08 0)
(9.3191e-08 -5.02181e-08 0)
(1.24017e-07 -3.14796e-08 0)
(1.66833e-07 -2.30029e-08 0)
(1.57072e-07 -3.3155e-08 0)
(9.09839e-08 -3.05586e-08 0)
(-5.88463e-10 -4.44624e-09 0)
(3.31304e-08 3.83742e-08 0)
(-5.28318e-08 -5.79171e-08 0)
(-1.47636e-08 2.98242e-08 0)
(-1.25141e-10 2.55738e-08 0)
(-1.05669e-07 -9.65245e-09 0)
(-1.20164e-07 -1.29411e-08 0)
(-8.23904e-08 -1.09688e-08 0)
(-1.00382e-08 -1.02078e-08 0)
(4.19341e-08 -3.26123e-08 0)
(1.59997e-08 -3.61152e-08 0)
(1.14337e-08 8.02025e-09 0)
(3.32077e-08 6.40246e-09 0)
(9.33386e-08 1.03001e-08 0)
(9.16611e-08 1.25224e-08 0)
(9.30422e-08 1.0452e-09 0)
(1.21989e-07 -2.21499e-08 0)
(1.66388e-07 -2.72591e-08 0)
(1.60842e-07 -3.98935e-09 0)
(9.19018e-08 2.06715e-08 0)
(2.2729e-08 5.01859e-09 0)
(-1.11686e-08 2.46531e-08 0)
(2.12663e-08 -3.26828e-08 0)
(2.03815e-08 6.55302e-08 0)
(-4.88608e-08 2.48887e-08 0)
(-1.07769e-07 2.18054e-08 0)
(-1.10245e-07 4.26193e-09 0)
(-7.84539e-08 -2.36968e-08 0)
(-1.28485e-08 -3.09922e-08 0)
(4.00502e-08 -1.51733e-08 0)
(1.34927e-08 1.3066e-08 0)
(1.12952e-08 2.24634e-08 0)
(3.19108e-08 2.98301e-08 0)
(9.41494e-08 5.43978e-08 0)
(9.30178e-08 7.16229e-08 0)
(9.68873e-08 4.72908e-08 0)
(1.24136e-07 -1.28663e-08 0)
(1.55178e-07 -2.61775e-08 0)
(1.4676e-07 3.93239e-08 0)
(8.53924e-08 8.59094e-08 0)
(4.62399e-08 5.42708e-08 0)
(-3.92759e-08 -3.68605e-08 0)
(5.15967e-07 -1.79201e-08 0)
(3.77648e-08 -2.55188e-08 0)
(-6.39095e-08 5.07261e-08 0)
(-7.10186e-08 5.18841e-08 0)
(-1.00287e-07 2.20911e-09 0)
(-7.55818e-08 -4.78919e-08 0)
(-9.13266e-09 -6.2657e-08 0)
(3.86846e-08 -1.01683e-08 0)
(1.31142e-08 5.24606e-08 0)
(1.3369e-08 3.56249e-08 0)
(3.12255e-08 4.46051e-08 0)
(9.31488e-08 8.80684e-08 0)
(9.55806e-08 1.19173e-07 0)
(1.02431e-07 8.04591e-08 0)
(1.2527e-07 -1.40626e-08 0)
(1.54665e-07 -3.28286e-08 0)
(1.46098e-07 6.58234e-08 0)
(8.79594e-08 1.37643e-07 0)
(4.76744e-09 7.59695e-08 0)
(4.34357e-08 -3.72129e-08 0)
(-4.82513e-07 -6.93806e-08 0)
(-2.6119e-08 -3.66002e-08 0)
(1.58269e-08 7.29535e-08 0)
(-7.31863e-08 6.83962e-08 0)
(-8.13238e-08 1.18286e-08 0)
(-4.78999e-08 -5.91764e-08 0)
(-1.974e-09 -7.68482e-08 0)
(4.63747e-08 1.79193e-08 0)
(3.66891e-08 9.82036e-08 0)
(3.38299e-08 4.60519e-08 0)
(3.06147e-08 4.92368e-08 0)
(9.12473e-08 1.07408e-07 0)
(9.75006e-08 1.4935e-07 0)
(1.07011e-07 9.86996e-08 0)
(1.27475e-07 -2.40755e-08 0)
(1.445e-07 -4.99003e-08 0)
(1.2441e-07 6.40407e-08 0)
(7.04303e-08 1.59449e-07 0)
(4.01079e-08 9.40201e-08 0)
(9.81407e-09 -2.37683e-08 0)
(-6.83174e-09 -1.06308e-07 0)
(3.29129e-08 2.71845e-08 0)
(-2.04984e-08 1.08937e-07 0)
(-2.62468e-08 1.24603e-07 0)
(-2.84319e-08 5.24203e-08 0)
(-2.04691e-08 -4.41952e-08 0)
(1.7809e-08 -6.81746e-08 0)
(4.86516e-08 4.63762e-08 0)
(3.96954e-08 1.31972e-07 0)
(4.72416e-08 5.33299e-08 0)
(3.07795e-08 4.49198e-08 0)
(8.59734e-08 1.117e-07 0)
(9.94781e-08 1.57826e-07 0)
(1.13216e-07 1.01929e-07 0)
(1.26583e-07 -3.55556e-08 0)
(1.28485e-07 -7.05433e-08 0)
(1.09409e-07 5.83575e-08 0)
(6.85472e-08 1.7128e-07 0)
(4.27587e-08 1.2463e-07 0)
(2.80758e-08 -3.38382e-08 0)
(3.31635e-08 -5.43415e-08 0)
(1.41801e-08 4.31369e-08 0)
(1.23276e-08 1.68687e-07 0)
(5.88522e-09 1.69074e-07 0)
(-7.67597e-09 7.08659e-08 0)
(-2.87404e-09 -3.25035e-08 0)
(1.93043e-08 -6.25495e-08 0)
(4.30054e-08 5.3774e-08 0)
(5.26812e-08 1.48118e-07 0)
(6.55075e-08 5.80343e-08 0)
(3.06728e-08 3.45599e-08 0)
(7.74853e-08 1.03179e-07 0)
(1.00416e-07 1.47587e-07 0)
(1.20846e-07 8.84555e-08 0)
(1.24239e-07 -5.06724e-08 0)
(1.12935e-07 -8.44364e-08 0)
(8.76153e-08 4.38964e-08 0)
(6.79238e-08 1.60184e-07 0)
(6.02034e-08 1.1423e-07 0)
(5.78954e-08 -1.84714e-08 0)
(5.0234e-08 -6.26402e-08 0)
(2.81408e-08 3.65498e-08 0)
(1.57676e-08 1.64652e-07 0)
(2.24035e-08 1.75757e-07 0)
(2.93443e-08 9.02704e-08 0)
(2.26264e-08 -1.3835e-08 0)
(1.57964e-08 -4.31585e-08 0)
(3.14825e-08 7.96099e-08 0)
(6.23928e-08 1.63731e-07 0)
(8.05104e-08 5.84127e-08 0)
(3.05363e-08 2.20903e-08 0)
(6.68348e-08 8.44849e-08 0)
(9.85736e-08 1.20587e-07 0)
(1.26288e-07 6.56342e-08 0)
(1.22874e-07 -5.9638e-08 0)
(9.68088e-08 -8.71912e-08 0)
(6.99813e-08 2.87669e-08 0)
(6.45463e-08 1.35204e-07 0)
(7.44813e-08 9.69288e-08 0)
(7.4522e-08 -1.90776e-08 0)
(4.73652e-08 -5.90114e-08 0)
(2.63101e-08 4.13347e-08 0)
(4.83589e-08 1.62472e-07 0)
(6.64627e-08 1.71545e-07 0)
(5.64221e-08 8.77072e-08 0)
(3.56018e-08 -7.70232e-09 0)
(2.10966e-08 -2.75611e-08 0)
(2.54534e-08 8.73196e-08 0)
(6.22354e-08 1.56144e-07 0)
(8.61254e-08 5.29473e-08 0)
(2.97666e-08 1.36436e-08 0)
(5.35093e-08 6.51606e-08 0)
(9.68221e-08 8.80349e-08 0)
(1.33453e-07 3.90457e-08 0)
(1.22028e-07 -6.13341e-08 0)
(8.03967e-08 -7.87159e-08 0)
(5.08134e-08 2.31762e-08 0)
(6.29194e-08 1.07225e-07 0)
(9.34639e-08 7.44227e-08 0)
(8.811e-08 -1.93456e-08 0)
(5.68026e-08 -4.17917e-08 0)
(4.11352e-08 4.29573e-08 0)
(4.23536e-08 1.3481e-07 0)
(6.55666e-08 1.36339e-07 0)
(7.47907e-08 6.95611e-08 0)
(5.98049e-08 -1.96747e-10 0)
(2.92484e-08 -1.57575e-08 0)
(1.87737e-08 6.77216e-08 0)
(6.82236e-08 1.21009e-07 0)
(9.60843e-08 4.19638e-08 0)
(2.97024e-08 6.02084e-09 0)
(4.17208e-08 3.56877e-08 0)
(9.00976e-08 4.74808e-08 0)
(1.31874e-07 1.68878e-08 0)
(1.19544e-07 -4.44029e-08 0)
(7.43002e-08 -5.51135e-08 0)
(4.38501e-08 1.18036e-08 0)
(5.95186e-08 6.8746e-08 0)
(9.5998e-08 4.88839e-08 0)
(9.71237e-08 -8.66966e-09 0)
(5.43526e-08 -2.18728e-08 0)
(2.92751e-08 2.36783e-08 0)
(5.99603e-08 8.33481e-08 0)
(9.77819e-08 9.13238e-08 0)
(9.93063e-08 5.25848e-08 0)
(7.20102e-08 8.54224e-09 0)
(2.46613e-08 -2.60294e-09 0)
(7.58254e-09 5.1484e-08 0)
(7.60289e-08 8.30526e-08 0)
(1.09618e-07 2.72221e-08 0)
(2.84051e-08 3.9411e-10 0)
(3.23691e-08 6.90383e-09 0)
(8.68336e-08 1.0926e-08 0)
(1.35856e-07 4.64338e-09 0)
(1.21652e-07 -1.31815e-08 0)
(7.06292e-08 -1.8964e-08 0)
(3.68206e-08 1.88742e-10 0)
(5.99459e-08 1.96e-08 0)
(1.05773e-07 1.85933e-08 0)
(1.07001e-07 3.28428e-09 0)
(6.28798e-08 -3.75231e-09 0)
(3.78791e-08 1.70897e-08 0)
(5.85203e-08 3.81189e-08 0)
(9.47163e-08 3.39771e-08 0)
(1.06699e-07 1.82051e-08 0)
(8.4605e-08 4.42064e-09 0)
(3.33661e-08 2.52443e-09 0)
(8.71134e-09 2.35445e-08 0)
(7.53302e-08 3.29175e-08 0)
(1.08034e-07 9.73256e-09 0)
)
;

boundaryField
{
    sides
    {
        type            calculated;
        value           nonuniform List<vector> 
40
(
(2.84051e-08 0 0)
(3.23691e-08 0 0)
(8.68336e-08 0 0)
(1.35856e-07 0 0)
(1.21652e-07 0 0)
(7.06292e-08 0 0)
(3.68206e-08 0 0)
(5.99459e-08 0 0)
(1.05773e-07 0 0)
(1.07001e-07 0 0)
(6.28798e-08 0 0)
(3.78791e-08 0 0)
(5.85203e-08 0 0)
(9.47163e-08 0 0)
(1.06699e-07 0 0)
(8.4605e-08 0 0)
(3.33661e-08 0 0)
(8.71134e-09 0 0)
(7.53302e-08 0 0)
(1.08034e-07 0 0)
(3.22346e-08 0 0)
(3.03227e-08 0 0)
(7.888e-08 0 0)
(1.30232e-07 0 0)
(1.16513e-07 0 0)
(6.41543e-08 0 0)
(3.39121e-08 0 0)
(5.79736e-08 0 0)
(1.04176e-07 0 0)
(1.02918e-07 0 0)
(5.29897e-08 0 0)
(1.67613e-08 0 0)
(3.93628e-08 0 0)
(8.61467e-08 0 0)
(9.6254e-08 0 0)
(6.93483e-08 0 0)
(1.54764e-08 0 0)
(1.17119e-09 0 0)
(9.83625e-08 0 0)
(1.20408e-07 0 0)
)
;
    }
    inlet
    {
        type            calculated;
        value           uniform (0 0 0);
    }
    outlet
    {
        type            calculated;
        value           nonuniform List<vector> 
20
(
(1.20408e-07 -7.16952e-09 0)
(7.88906e-08 -2.56938e-08 0)
(1.43296e-07 -3.50919e-08 0)
(6.13578e-08 -3.5436e-08 0)
(1.2393e-07 -4.07133e-08 0)
(6.38016e-08 -3.45294e-08 0)
(5.44488e-08 -2.69162e-08 0)
(3.5006e-08 -2.01239e-08 0)
(9.34695e-09 -5.7977e-09 0)
(1.14337e-08 8.02025e-09 0)
(1.12952e-08 2.24634e-08 0)
(1.3369e-08 3.56249e-08 0)
(3.38299e-08 4.60519e-08 0)
(4.72416e-08 5.33299e-08 0)
(6.55075e-08 5.80343e-08 0)
(8.05104e-08 5.84127e-08 0)
(8.61254e-08 5.29473e-08 0)
(9.60843e-08 4.19638e-08 0)
(1.09618e-07 2.72221e-08 0)
(1.08034e-07 9.73256e-09 0)
)
;
    }
    frontAndBack
    {
        type            empty;
    }
}


// ************************************************************************* //
