/*--------------------------------*- C++ -*----------------------------------*\
  =========                 |
  \\      /  F ield         | OpenFOAM: The Open Source CFD Toolbox
   \\    /   O peration     | Website:  https://openfoam.org
    \\  /    A nd           | Version:  9
     \\/     M anipulation  |
\*---------------------------------------------------------------------------*/
FoamFile
{
    format      ascii;
    class       volScalarField;
    location    "30";
    object      hTotal;
}
// * * * * * * * * * * * * * * * * * * * * * * * * * * * * * * * * * * * * * //

dimensions      [0 1 0 0 0 0 0];

internalField   nonuniform List<scalar> 
400
(
0.0100007
0.0100007
0.0100006
0.0100004
0.0100002
0.00999991
0.00999961
0.0099993
0.00999902
0.00999881
0.00999868
0.00999868
0.00999879
0.00999902
0.00999931
0.00999963
0.00999991
0.0100001
0.0100002
0.0100001
0.0100007
0.0100007
0.0100006
0.0100004
0.0100001
0.00999982
0.00999949
0.00999916
0.00999885
0.0099986
0.00999846
0.00999847
0.00999862
0.00999889
0.00999922
0.00999956
0.00999982
0.00999997
0.01
0.01
0.0100007
0.0100007
0.0100006
0.0100004
0.0100001
0.0099998
0.00999945
0.00999908
0.00999872
0.00999844
0.00999828
0.00999827
0.00999846
0.00999881
0.00999924
0.00999967
0.01
0.0100002
0.0100002
0.0100001
0.0100008
0.0100008
0.0100007
0.0100005
0.0100002
0.00999981
0.0099994
0.00999895
0.00999849
0.00999809
0.00999785
0.00999786
0.00999817
0.00999871
0.00999932
0.00999979
0.01
0.0100001
0.01
0.00999998
0.0100009
0.0100009
0.0100008
0.0100006
0.0100003
0.0099999
0.00999941
0.00999884
0.0099982
0.00999761
0.00999718
0.0099972
0.0099977
0.0099986
0.00999958
0.0100003
0.0100005
0.0100004
0.0100002
0.01
0.0100011
0.0100011
0.010001
0.0100008
0.0100005
0.0100001
0.00999951
0.00999873
0.00999783
0.00999697
0.00999637
0.0099963
0.0099971
0.00999848
0.00999981
0.0100005
0.0100006
0.0100003
0.00999998
0.00999993
0.0100013
0.0100013
0.0100013
0.0100012
0.0100009
0.0100005
0.00999987
0.00999881
0.00999727
0.00999545
0.00999428
0.00999461
0.00999676
0.00999957
0.0100014
0.0100016
0.0100009
0.0100001
0.00999977
0.00999988
0.0100015
0.0100016
0.0100016
0.0100016
0.0100015
0.0100012
0.0100006
0.00999946
0.00999751
0.00999441
0.00999059
0.00999033
0.00999457
0.0100003
0.0100034
0.0100032
0.0100014
0.00999991
0.00999952
0.00999983
0.0100016
0.0100018
0.0100019
0.0100021
0.0100023
0.0100023
0.0100017
0.0099997
0.00999567
0.00998985
0.00998689
0.00998981
0.00999812
0.0100038
0.0100045
0.0100025
0.0100004
0.00999939
0.00999945
0.00999987
0.0100017
0.0100018
0.0100021
0.0100025
0.0100031
0.0100044
0.0100062
0.010008
0.010005
0.00997861
0.00995247
0.00997593
0.0100089
0.0100179
0.0100105
0.0100024
0.00999893
0.00999894
0.00999978
0.0100001
0.0100016
0.0100018
0.010002
0.0100024
0.0100031
0.0100044
0.0100061
0.010008
0.010005
0.00997856
0.00995252
0.00997589
0.0100088
0.0100178
0.0100105
0.0100024
0.00999892
0.00999892
0.00999975
0.0100001
0.0100015
0.0100016
0.0100018
0.0100019
0.0100021
0.0100021
0.0100015
0.00999952
0.00999548
0.00998965
0.00998693
0.00998967
0.00999799
0.0100037
0.0100044
0.0100024
0.0100003
0.00999936
0.00999946
0.00999989
0.0100012
0.0100013
0.0100013
0.0100013
0.0100012
0.0100009
0.0100003
0.00999919
0.00999726
0.00999417
0.00999011
0.00999004
0.00999431
0.01
0.0100032
0.010003
0.0100012
0.00999983
0.00999949
0.00999983
0.0100009
0.0100009
0.0100009
0.0100008
0.0100005
0.0100001
0.00999947
0.00999842
0.00999687
0.00999507
0.00999383
0.00999423
0.00999642
0.00999927
0.0100012
0.0100014
0.0100007
0.00999998
0.00999968
0.00999984
0.0100006
0.0100005
0.0100005
0.0100003
0.01
0.00999957
0.00999898
0.00999822
0.00999734
0.0099965
0.00999592
0.00999588
0.0099967
0.00999812
0.00999948
0.0100002
0.0100003
0.0100001
0.00999987
0.0099999
0.0100002
0.0100002
0.0100001
0.00999993
0.00999963
0.00999924
0.00999876
0.00999819
0.00999758
0.00999699
0.00999659
0.00999663
0.00999717
0.0099981
0.00999911
0.00999983
0.0100001
0.0100001
0.00999997
0.00999995
0.00999998
0.00999995
0.00999985
0.00999965
0.00999937
0.00999902
0.00999862
0.00999818
0.00999774
0.00999737
0.00999718
0.00999722
0.00999756
0.00999814
0.00999881
0.00999937
0.00999972
0.00999986
0.00999991
0.00999995
0.00999975
0.00999973
0.00999963
0.00999945
0.00999918
0.00999887
0.00999852
0.00999815
0.00999781
0.00999753
0.00999739
0.00999744
0.00999768
0.00999809
0.00999859
0.00999907
0.00999946
0.00999972
0.00999987
0.00999995
0.00999958
0.00999957
0.00999948
0.00999931
0.00999906
0.00999877
0.00999846
0.00999815
0.00999787
0.00999766
0.00999756
0.00999759
0.00999777
0.0099981
0.00999852
0.00999896
0.00999935
0.00999965
0.00999985
0.00999996
0.00999944
0.00999943
0.00999934
0.00999916
0.00999892
0.00999864
0.00999834
0.00999804
0.00999777
0.00999758
0.0099975
0.00999755
0.00999772
0.00999801
0.00999838
0.00999878
0.00999917
0.00999949
0.00999974
0.00999991
)
;

boundaryField
{
    sides
    {
        type            calculated;
        value           nonuniform List<scalar> 
40
(
0.00999944
0.00999943
0.00999934
0.00999916
0.00999892
0.00999864
0.00999834
0.00999804
0.00999777
0.00999758
0.0099975
0.00999755
0.00999772
0.00999801
0.00999838
0.00999878
0.00999917
0.00999949
0.00999974
0.00999991
0.0100007
0.0100007
0.0100006
0.0100004
0.0100002
0.00999991
0.00999961
0.0099993
0.00999902
0.00999881
0.00999868
0.00999868
0.00999879
0.00999902
0.00999931
0.00999963
0.00999991
0.0100001
0.0100002
0.0100001
)
;
    }
    inlet
    {
        type            calculated;
        value           nonuniform List<scalar> 
20
(
0.0100007
0.0100007
0.0100007
0.0100008
0.0100009
0.0100011
0.0100013
0.0100015
0.0100016
0.0100017
0.0100016
0.0100015
0.0100012
0.0100009
0.0100006
0.0100002
0.00999998
0.00999975
0.00999958
0.00999944
)
;
    }
    outlet
    {
        type            calculated;
        value           uniform 0.01;
    }
    frontAndBack
    {
        type            empty;
    }
}


// ************************************************************************* //
