/*--------------------------------*- C++ -*----------------------------------*\
  =========                 |
  \\      /  F ield         | OpenFOAM: The Open Source CFD Toolbox
   \\    /   O peration     | Website:  https://openfoam.org
    \\  /    A nd           | Version:  9
     \\/     M anipulation  |
\*---------------------------------------------------------------------------*/
FoamFile
{
    format      ascii;
    class       surfaceScalarField;
    location    "30";
    object      phi_0;
}
// * * * * * * * * * * * * * * * * * * * * * * * * * * * * * * * * * * * * * //

dimensions      [0 4 -1 0 0 0 0];

internalField   nonuniform List<scalar> 
760
(
4.99999e-06
-1.3829e-10
5.00024e-06
-3.68463e-10
5.00067e-06
-5.13898e-10
5.00128e-06
-6.28469e-10
5.00211e-06
-8.17923e-10
5.0032e-06
-1.05178e-09
5.0044e-06
-1.14721e-09
5.00547e-06
-1.00979e-09
5.00627e-06
-7.30982e-10
5.00675e-06
-4.45027e-10
5.00692e-06
-1.60871e-10
5.00663e-06
2.43029e-10
5.0058e-06
7.3894e-10
5.0046e-06
1.06765e-09
5.00327e-06
1.16548e-09
5.00217e-06
9.012e-10
5.00138e-06
5.67264e-10
5.00113e-06
3.22429e-11
5.00089e-06
8.96317e-11
-3.44671e-10
5.00001e-06
-2.94475e-10
5.00027e-06
-7.4135e-10
5.00073e-06
-1.03682e-09
5.00138e-06
-1.28969e-09
5.00227e-06
-1.69628e-09
5.00345e-06
-2.19068e-09
5.00477e-06
-2.41961e-09
5.00601e-06
-2.19128e-09
5.00698e-06
-1.65684e-09
5.00758e-06
-1.0184e-09
5.00763e-06
-2.12472e-10
5.0072e-06
6.2569e-10
5.00624e-06
1.60614e-09
5.00486e-06
2.3285e-09
5.00345e-06
2.42028e-09
5.0024e-06
1.76315e-09
5.00178e-06
9.85496e-10
5.00137e-06
2.77152e-10
5.00103e-06
3.10237e-10
-2.63894e-11
4.99999e-06
-4.22103e-10
5.00023e-06
-1.08085e-09
5.0007e-06
-1.55425e-09
5.0014e-06
-1.99317e-09
5.00237e-06
-2.65403e-09
5.00366e-06
-3.44561e-09
5.00515e-06
-3.86433e-09
5.0066e-06
-3.61257e-09
5.0078e-06
-2.82778e-09
5.00858e-06
-1.78753e-09
5.0088e-06
-4.57546e-10
5.0082e-06
1.18358e-09
5.00683e-06
2.88894e-09
5.00505e-06
3.99993e-09
5.00329e-06
4.04448e-09
5.00197e-06
2.91455e-09
5.00125e-06
1.51338e-09
5.00108e-06
2.81151e-10
5.00091e-06
3.69142e-10
-1.03468e-10
4.99997e-06
-5.25596e-10
5.00019e-06
-1.38943e-09
5.00067e-06
-2.07044e-09
5.00142e-06
-2.75178e-09
5.00252e-06
-3.73342e-09
5.00402e-06
-4.90633e-09
5.00583e-06
-5.65129e-09
5.0078e-06
-5.56954e-09
5.00968e-06
-4.69796e-09
5.01091e-06
-3.01126e-09
5.01106e-06
-6.30781e-10
5.0099e-06
2.29644e-09
5.00758e-06
5.16021e-09
5.00502e-06
6.46607e-09
5.00327e-06
5.6885e-09
5.0024e-06
3.65215e-09
5.00211e-06
1.68847e-09
5.00184e-06
4.55125e-10
5.00152e-06
6.39092e-10
4.89832e-10
4.99994e-06
-5.95506e-10
5.0001e-06
-1.63093e-09
5.00054e-06
-2.54925e-09
5.00132e-06
-3.53691e-09
5.00256e-06
-4.94425e-09
5.00431e-06
-6.63533e-09
5.00658e-06
-7.89984e-09
5.00923e-06
-8.21738e-09
5.01222e-06
-7.66518e-09
5.01458e-06
-5.40755e-09
5.01471e-06
-7.46306e-10
5.01273e-06
4.23672e-09
5.00856e-06
9.28114e-09
5.00446e-06
1.05185e-08
5.00204e-06
8.02762e-09
5.00147e-06
4.12719e-09
5.00174e-06
1.33771e-09
5.00199e-06
1.41755e-10
5.00166e-06
9.34693e-10
8.27063e-10
4.99989e-06
-6.1653e-10
4.99993e-06
-1.76106e-09
5.00021e-06
-2.88361e-09
5.00089e-06
-4.21877e-09
5.00213e-06
-6.15398e-09
5.00427e-06
-8.74346e-09
5.00736e-06
-1.09686e-08
5.01145e-06
-1.22838e-08
5.01534e-06
-1.15698e-08
5.01889e-06
-8.95087e-09
5.02003e-06
-1.92815e-09
5.01585e-06
8.45311e-09
5.00932e-06
1.57762e-08
5.00404e-06
1.57595e-08
5.002e-06
1.00329e-08
5.00231e-06
3.80045e-09
5.00303e-06
6.07498e-10
5.00309e-06
9.67189e-11
5.00252e-06
1.52701e-09
1.607e-09
4.99981e-06
-5.74805e-10
4.99964e-06
-1.69254e-09
4.99968e-06
-2.98011e-09
5.00004e-06
-4.58524e-09
5.00096e-06
-7.03812e-09
5.00267e-06
-1.04176e-08
5.00655e-06
-1.48109e-08
5.01369e-06
-1.94021e-08
5.02353e-06
-2.14294e-08
5.03075e-06
-1.60941e-08
5.02858e-06
1.56088e-10
5.01656e-06
2.04692e-08
5.00401e-06
2.83807e-08
4.99855e-06
2.12305e-08
5.00041e-06
8.17224e-09
5.00268e-06
1.56464e-09
5.00355e-06
-2.2602e-10
5.00345e-06
2.58872e-10
5.00286e-06
2.17339e-09
1.85652e-09
4.99968e-06
-4.2287e-10
4.99922e-06
-1.35959e-09
4.99875e-06
-2.56929e-09
4.99854e-06
-4.3755e-09
4.99908e-06
-7.54766e-09
5.00011e-06
-1.13942e-08
5.00334e-06
-1.80042e-08
5.00952e-06
-2.55554e-08
5.0247e-06
-3.65563e-08
5.05608e-06
-4.74858e-08
5.04991e-06
5.43541e-09
5.02292e-06
4.74105e-08
4.9979e-06
5.34432e-08
4.99327e-06
2.59297e-08
4.99933e-06
2.18397e-09
5.00399e-06
-3.01916e-09
5.00477e-06
-8.96552e-10
5.00359e-06
1.54704e-09
5.00341e-06
2.42922e-09
1.12494e-09
4.99956e-06
-1.79195e-10
4.9988e-06
-7.31532e-10
4.99753e-06
-1.36707e-09
4.99579e-06
-2.64486e-09
4.99378e-06
-5.5011e-09
4.9935e-06
-1.1059e-08
4.99916e-06
-2.36089e-08
5.01684e-06
-4.31943e-08
5.05547e-06
-7.51649e-08
5.06663e-06
-5.85309e-08
5.04956e-06
2.35202e-08
4.99633e-06
1.0081e-07
4.98906e-06
6.08128e-08
4.99567e-06
1.94119e-08
5.00004e-06
-2.08329e-09
5.00286e-06
-5.71452e-09
5.00245e-06
-3.45133e-10
5.00172e-06
2.40618e-09
5.00249e-06
1.76704e-09
1.77042e-10
4.99964e-06
-2.88778e-11
4.99883e-06
-7.3481e-11
4.9975e-06
-1.05458e-10
4.99498e-06
-1.29991e-10
4.98966e-06
-1.40918e-10
4.97883e-06
-1.66485e-10
4.95549e-06
-2.13566e-10
4.91264e-06
-2.76934e-10
4.83795e-06
-3.72609e-10
4.77985e-06
-4.48143e-10
4.80415e-06
-5.82688e-10
4.90581e-06
-7.56912e-10
4.96749e-06
-8.14317e-10
4.988e-06
-9.82889e-10
4.98729e-06
-1.24979e-09
4.98318e-06
-1.46174e-09
4.98451e-06
-1.51359e-09
4.98884e-06
-1.76034e-09
4.99246e-06
-1.74458e-09
-2.48973e-09
4.99964e-06
1.22402e-10
4.99883e-06
5.84142e-10
4.99749e-06
1.15835e-09
4.99496e-06
2.38851e-09
4.98964e-06
5.22488e-09
4.9788e-06
1.07344e-08
4.95544e-06
2.32095e-08
4.91258e-06
4.26525e-08
4.83783e-06
7.44665e-08
4.77963e-06
5.78324e-08
4.8041e-06
-2.50129e-08
4.90575e-06
-1.02336e-07
4.96749e-06
-6.24631e-08
4.98783e-06
-2.12278e-08
4.98721e-06
-5.16673e-10
4.98287e-06
3.02181e-09
4.98437e-06
-2.85542e-09
4.9888e-06
-6.03176e-09
4.99233e-06
-5.15361e-09
-4.92e-09
4.99956e-06
3.66469e-10
4.99878e-06
1.21597e-09
4.99751e-06
2.3612e-09
4.99576e-06
4.12634e-09
4.99376e-06
7.26692e-09
4.99347e-06
1.10756e-08
4.99912e-06
1.76192e-08
5.01678e-06
2.50589e-08
5.05541e-06
3.58884e-08
5.06702e-06
4.63504e-08
5.0493e-06
-8.43151e-09
4.99589e-06
-4.88769e-08
4.98858e-06
-5.50532e-08
4.99545e-06
-2.80215e-08
4.99993e-06
-4.9035e-09
5.00223e-06
8.41849e-10
5.00157e-06
-2.05256e-09
5.00079e-06
-5.11359e-09
5.00164e-06
-5.89675e-09
-5.92645e-09
4.99967e-06
5.19576e-10
4.9992e-06
1.55152e-09
4.99871e-06
2.78136e-09
4.99849e-06
4.35018e-09
4.99901e-06
6.7822e-09
5.00001e-06
1.01266e-08
5.00317e-06
1.45028e-08
5.0093e-06
1.89613e-08
5.0244e-06
2.08394e-08
5.05539e-06
1.53527e-08
5.04966e-06
-1.44811e-09
5.02264e-06
-2.17486e-08
4.99763e-06
-3.00232e-08
4.99295e-06
-2.32871e-08
4.99847e-06
-1.03604e-08
5.0033e-06
-3.91354e-09
5.00363e-06
-2.27488e-09
5.00222e-06
-3.60245e-09
5.00207e-06
-5.67035e-09
-6.5377e-09
4.99979e-06
5.63484e-10
4.9996e-06
1.62584e-09
4.99963e-06
2.70033e-09
4.99996e-06
4.01068e-09
5.00085e-06
5.93269e-09
5.00253e-06
8.48741e-09
5.00642e-06
1.06445e-08
5.01354e-06
1.18476e-08
5.02337e-06
1.10168e-08
5.03055e-06
8.19061e-09
5.02829e-06
8.79334e-10
5.01611e-06
-9.57791e-09
5.00333e-06
-1.72021e-08
4.99758e-06
-1.75172e-08
4.99923e-06
-1.19948e-08
5.00143e-06
-6.08713e-09
5.00219e-06
-2.99188e-09
5.00191e-06
-3.26434e-09
5.00102e-06
-4.73401e-09
-6.00654e-09
4.99987e-06
5.45785e-10
4.99989e-06
1.50787e-09
5.00015e-06
2.38807e-09
5.0008e-06
3.35596e-09
5.00201e-06
4.74932e-09
5.00412e-06
6.40833e-09
5.00717e-06
7.61756e-09
5.01118e-06
7.84669e-09
5.01495e-06
7.22584e-09
5.01838e-06
4.77553e-09
5.01946e-06
-2.08781e-10
5.01511e-06
-5.2151e-09
5.00839e-06
-1.04861e-08
5.00293e-06
-1.20921e-08
5.00068e-06
-9.77489e-09
5.00079e-06
-6.21169e-09
5.00129e-06
-3.50622e-09
5.00104e-06
-3.00797e-09
5.00011e-06
-3.78209e-09
-5.02291e-09
4.99993e-06
4.81003e-10
5.00006e-06
1.28214e-09
5.00046e-06
1.93642e-09
5.00121e-06
2.60085e-09
5.00241e-06
3.5671e-09
5.00412e-06
4.71902e-09
5.00634e-06
5.42524e-09
5.00893e-06
5.26861e-09
5.01189e-06
4.25839e-09
5.01431e-06
2.35331e-09
5.01401e-06
7.07579e-11
5.01196e-06
-3.20036e-09
5.00764e-06
-6.21626e-09
5.00334e-06
-7.85172e-09
5.0007e-06
-7.20442e-09
4.99983e-06
-5.41342e-09
4.99977e-06
-3.51358e-09
4.99954e-06
-2.81987e-09
4.99884e-06
-3.09876e-09
-4.22146e-09
4.99996e-06
3.84619e-10
5.00015e-06
9.91564e-10
5.00059e-06
1.44566e-09
5.00131e-06
1.87103e-09
5.00237e-06
2.51986e-09
5.00382e-06
3.28978e-09
5.00559e-06
3.68528e-09
5.0075e-06
3.38714e-09
5.0092e-06
2.56507e-09
5.01012e-06
1.42794e-09
5.01034e-06
-1.84303e-10
5.00898e-06
-1.8899e-09
5.00643e-06
-3.73547e-09
5.00351e-06
-5.01761e-09
5.00128e-06
-5.07886e-09
4.99999e-06
-4.24513e-09
4.9993e-06
-2.93938e-09
4.99875e-06
-2.36649e-09
4.99802e-06
-2.42238e-09
-3.26037e-09
4.99997e-06
2.67555e-10
5.00019e-06
6.69925e-10
5.00062e-06
9.51003e-10
5.00128e-06
1.19888e-09
5.00221e-06
1.59459e-09
5.00347e-06
2.06663e-09
5.00492e-06
2.27165e-09
5.00635e-06
2.00114e-09
5.00754e-06
1.4081e-09
5.00828e-06
7.0451e-10
5.0081e-06
-1.31626e-11
5.00727e-06
-1.11265e-09
5.00565e-06
-2.19417e-09
5.00357e-06
-3.0363e-09
5.00154e-06
-3.18342e-09
4.99994e-06
-2.80523e-09
4.99885e-06
-2.01678e-09
4.99805e-06
-1.70748e-09
4.99722e-06
-1.68781e-09
-2.3137e-09
4.99996e-06
1.54082e-10
5.00016e-06
3.48986e-10
5.00057e-06
4.76329e-10
5.00116e-06
5.86316e-10
5.002e-06
7.76262e-10
5.0031e-06
1.00793e-09
5.00432e-06
1.10086e-09
5.00543e-06
9.54879e-10
5.00623e-06
6.54362e-10
5.00667e-06
2.95556e-10
5.00675e-06
-1.02599e-10
5.00609e-06
-5.04776e-10
5.0048e-06
-9.8983e-10
5.00305e-06
-1.40118e-09
5.0012e-06
-1.50021e-09
4.9996e-06
-1.39027e-09
4.99841e-06
-1.03299e-09
4.99745e-06
-9.37335e-10
4.99653e-06
-8.98201e-10
-1.4408e-09
4.99999e-06
5.00021e-06
5.00062e-06
5.00119e-06
5.00199e-06
5.00304e-06
5.0042e-06
5.00523e-06
5.00595e-06
5.00628e-06
5.00617e-06
5.00561e-06
5.00453e-06
5.003e-06
5.00133e-06
4.99973e-06
4.99847e-06
4.99732e-06
4.99627e-06
)
;

boundaryField
{
    sides
    {
        type            calculated;
        value           uniform 0;
    }
    inlet
    {
        type            calculated;
        value           nonuniform List<scalar> 
20
(
-5e-06
-5e-06
-5e-06
-5e-06
-5e-06
-5e-06
-5e-06
-5e-06
-5e-06
-5e-06
-5e-06
-5e-06
-5e-06
-5e-06
-5e-06
-5e-06
-5e-06
-5e-06
-5e-06
-5e-06
)
;
    }
    outlet
    {
        type            calculated;
        value           nonuniform List<scalar> 
20
(
5.00118e-06
5.00067e-06
5.00095e-06
5.00091e-06
5.00132e-06
5.00175e-06
5.00263e-06
5.00417e-06
5.00347e-06
4.99517e-06
4.9948e-06
5.00268e-06
5.00271e-06
5.00051e-06
4.99913e-06
4.99804e-06
4.99705e-06
4.99624e-06
4.99561e-06
4.99477e-06
)
;
    }
    frontAndBack
    {
        type            empty;
        value           nonuniform List<scalar> 0();
    }
}


// ************************************************************************* //
