/*--------------------------------*- C++ -*----------------------------------*\
  =========                 |
  \\      /  F ield         | OpenFOAM: The Open Source CFD Toolbox
   \\    /   O peration     | Website:  https://openfoam.org
    \\  /    A nd           | Version:  9
     \\/     M anipulation  |
\*---------------------------------------------------------------------------*/
FoamFile
{
    format      ascii;
    class       volVectorField;
    location    "83";
    object      ddtCorrDdt0(hU);
}
// * * * * * * * * * * * * * * * * * * * * * * * * * * * * * * * * * * * * * //

dimensions      [0 2 -2 0 0 0 0];

internalField   nonuniform List<vector> 
400
(
(-1.30406e-09 -1.47365e-09 0)
(-1.93918e-09 -7.70962e-10 0)
(-7.07595e-10 1.35298e-09 0)
(5.98698e-10 2.47031e-09 0)
(3.00769e-10 5.71889e-10 0)
(7.13664e-10 -2.13983e-09 0)
(1.37665e-09 -1.63729e-09 0)
(3.75117e-10 -2.5794e-09 0)
(-1.28783e-09 -8.25234e-10 0)
(-5.11345e-10 -1.73855e-09 0)
(-2.31089e-09 1.22354e-09 0)
(7.00625e-10 3.38631e-10 0)
(-2.51096e-09 2.117e-09 0)
(-7.0504e-10 4.03386e-09 0)
(3.63434e-09 3.00689e-09 0)
(2.41911e-09 3.06438e-09 0)
(9.12061e-10 3.10081e-09 0)
(1.8515e-09 2.68999e-09 0)
(6.52569e-09 2.84758e-09 0)
(9.62397e-09 3.75452e-10 0)
(6.9493e-10 -3.83494e-09 0)
(-6.58249e-11 -1.19409e-09 0)
(1.11173e-09 3.88241e-09 0)
(3.8803e-10 4.43766e-09 0)
(-1.62561e-09 -7.45218e-10 0)
(-4.98942e-10 -4.2104e-09 0)
(-4.53345e-10 -2.31547e-09 0)
(1.03617e-09 -5.09653e-09 0)
(-2.86289e-09 -6.83815e-10 0)
(-1.80779e-10 -8.53877e-10 0)
(-9.58979e-10 2.34987e-09 0)
(-1.40674e-09 4.51607e-09 0)
(1.8695e-09 3.29062e-09 0)
(-1.5702e-09 8.3318e-09 0)
(2.18287e-09 6.80822e-09 0)
(3.76674e-09 4.555e-09 0)
(2.12655e-10 4.5219e-09 0)
(-2.01462e-09 3.32653e-09 0)
(-1.23401e-09 1.88826e-09 0)
(2.59778e-09 5.69971e-10 0)
(2.91163e-09 -3.04731e-09 0)
(3.34574e-09 2.13699e-10 0)
(2.97228e-09 3.59362e-09 0)
(-8.59351e-10 6.3419e-10 0)
(-2.72145e-09 -3.01492e-09 0)
(-1.92688e-09 -1.29017e-10 0)
(-6.46389e-10 -2.31359e-09 0)
(-7.51216e-10 -1.99599e-09 0)
(7.40995e-10 -2.18709e-09 0)
(-3.56167e-09 4.98327e-09 0)
(4.30363e-09 9.81515e-11 0)
(-3.09133e-09 5.60373e-09 0)
(6.81439e-10 4.66358e-09 0)
(1.69541e-09 4.71187e-09 0)
(-2.27355e-09 6.01365e-09 0)
(1.43873e-09 2.3053e-09 0)
(-9.23128e-11 9.24006e-10 0)
(-6.16336e-09 2.28979e-09 0)
(-6.17512e-09 2.98755e-09 0)
(-4.94192e-10 1.99382e-09 0)
(3.17119e-09 9.64114e-10 0)
(5.03619e-09 1.67942e-09 0)
(2.78888e-09 -3.55115e-10 0)
(-1.08754e-09 -4.68663e-09 0)
(-1.46036e-09 -1.15548e-09 0)
(-2.75511e-09 2.7388e-09 0)
(-2.42072e-10 -1.09119e-09 0)
(-3.05088e-09 5.89035e-10 0)
(4.0147e-09 1.10136e-09 0)
(-7.41848e-10 -1.05137e-09 0)
(-5.21279e-09 1.00535e-08 0)
(7.85497e-09 -2.39793e-09 0)
(-3.55475e-09 3.34055e-09 0)
(-6.71716e-11 2.69505e-09 0)
(-1.09958e-09 3.96707e-10 0)
(-3.36859e-09 -9.667e-10 0)
(-9.60284e-10 -1.42762e-09 0)
(-1.83867e-09 2.63477e-09 0)
(-6.12786e-09 6.21051e-09 0)
(-6.91615e-09 3.04887e-09 0)
(9.38473e-10 4.13163e-09 0)
(3.70474e-09 1.82165e-09 0)
(1.13241e-09 -3.86689e-09 0)
(3.32321e-10 -5.22662e-09 0)
(-4.37905e-10 4.84958e-10 0)
(-7.24003e-10 1.59644e-09 0)
(-3.47261e-09 2.11512e-09 0)
(3.566e-09 2.2689e-09 0)
(-5.79968e-09 4.61309e-09 0)
(1.35478e-08 -6.66771e-09 0)
(2.13125e-10 3.34165e-09 0)
(-1.07666e-08 8.42684e-09 0)
(1.29208e-08 -7.88508e-09 0)
(-2.49349e-09 -3.1642e-09 0)
(-6.20913e-09 -2.51849e-09 0)
(-2.50488e-09 -3.8862e-09 0)
(6.02306e-10 -2.66033e-09 0)
(2.10396e-09 2.58221e-10 0)
(-3.02949e-09 1.52927e-09 0)
(-8.63778e-09 8.14574e-10 0)
(-1.36535e-09 4.33817e-09 0)
(5.69928e-10 8.18612e-10 0)
(-3.2102e-10 -3.75527e-09 0)
(6.93562e-10 -2.61118e-09 0)
(1.78704e-09 9.23044e-11 0)
(-9.91713e-10 1.31864e-09 0)
(6.24164e-10 3.16655e-09 0)
(-1.73746e-09 6.55419e-09 0)
(7.23963e-09 -9.13867e-09 0)
(-1.55106e-08 1.95768e-08 0)
(3.07871e-08 -3.78883e-08 0)
(-1.67271e-08 4.83983e-09 0)
(-1.29452e-08 4.34965e-09 0)
(1.43224e-08 -9.64119e-09 0)
(-1.56242e-10 -6.44144e-09 0)
(-5.32369e-09 -4.14443e-09 0)
(1.07939e-09 -2.55408e-09 0)
(4.89949e-09 -1.9201e-09 0)
(1.32093e-09 -2.99445e-09 0)
(-4.76417e-09 -1.68912e-09 0)
(-2.40165e-09 2.15714e-09 0)
(-2.0267e-09 -3.16423e-10 0)
(-1.47134e-09 -1.72628e-09 0)
(1.24142e-09 -1.76661e-10 0)
(1.81027e-09 1.08263e-10 0)
(1.25833e-09 1.46205e-09 0)
(8.98546e-10 3.02463e-09 0)
(-2.79213e-09 -9.24276e-10 0)
(1.26274e-08 6.04553e-10 0)
(-1.77239e-08 -9.37647e-10 0)
(-4.74853e-08 8.62916e-09 0)
(6.56618e-08 -2.73604e-08 0)
(-1.37695e-08 9.77962e-09 0)
(-1.25926e-08 2.28157e-09 0)
(4.51429e-09 -6.22239e-09 0)
(1.01497e-09 -4.42502e-09 0)
(2.31076e-09 -2.50951e-09 0)
(4.85642e-09 -2.80621e-09 0)
(3.38475e-09 -4.15343e-09 0)
(2.84148e-11 -2.32285e-09 0)
(-1.89517e-09 -6.15832e-10 0)
(-3.14563e-09 -1.05206e-09 0)
(-1.29416e-09 -5.06834e-11 0)
(9.5537e-10 1.33737e-09 0)
(2.4551e-09 5.87034e-10 0)
(6.1354e-10 7.21239e-10 0)
(-2.95321e-11 2.83334e-10 0)
(2.38492e-09 -5.13382e-09 0)
(-9.59463e-09 6.30433e-10 0)
(4.75936e-08 -1.26802e-08 0)
(3.05065e-07 1.64915e-08 0)
(-8.64684e-09 2.13846e-08 0)
(3.12671e-08 -4.71114e-09 0)
(-9.18696e-09 3.60675e-09 0)
(-9.11493e-09 2.15087e-09 0)
(-1.14669e-09 -1.27488e-09 0)
(3.16426e-09 -2.4018e-09 0)
(5.80618e-09 -1.92306e-09 0)
(4.81627e-09 -2.88248e-09 0)
(3.27836e-09 -1.18762e-09 0)
(-7.5013e-10 -1.75825e-09 0)
(-2.63121e-09 -1.12242e-09 0)
(-4.68985e-10 5.88131e-10 0)
(1.14028e-09 2.0915e-09 0)
(9.34713e-10 3.71678e-10 0)
(3.20645e-10 -1.31185e-09 0)
(-1.4774e-09 -2.51728e-09 0)
(-4.10495e-09 -2.0283e-09 0)
(1.20553e-08 5.80892e-09 0)
(-5.13368e-08 -1.17492e-08 0)
(-3.05193e-07 2.78771e-08 0)
(1.49832e-08 1.53327e-08 0)
(-4.0258e-08 -5.9854e-09 0)
(-4.70367e-09 6.06685e-09 0)
(-6.12179e-09 6.27053e-09 0)
(-6.30909e-09 4.5804e-09 0)
(-3.5021e-09 5.24766e-09 0)
(5.18965e-09 1.5644e-09 0)
(4.72462e-09 -1.56592e-09 0)
(5.58598e-09 -1.57852e-09 0)
(4.69827e-11 -8.27442e-10 0)
(-1.74462e-09 -4.09557e-10 0)
(6.94554e-10 5.11092e-11 0)
(7.07409e-10 1.64021e-09 0)
(-3.41098e-10 -6.29329e-11 0)
(-1.89147e-09 -3.26214e-09 0)
(-9.6319e-10 -8.82466e-10 0)
(5.32574e-09 2.69755e-09 0)
(-1.44465e-08 1.19488e-08 0)
(2.66e-08 8.15815e-11 0)
(3.89294e-08 -1.3221e-08 0)
(-7.31153e-08 -3.10117e-08 0)
(2.27387e-08 2.70212e-09 0)
(6.2234e-09 5.15692e-09 0)
(-1.18844e-08 3.45638e-09 0)
(-5.27698e-09 6.89176e-09 0)
(2.66689e-09 8.30528e-09 0)
(-4.04447e-09 3.49848e-09 0)
(-3.93975e-10 2.55255e-10 0)
(3.13354e-09 -7.7441e-10 0)
(-1.31791e-10 6.45679e-10 0)
(-1.48275e-09 5.51248e-10 0)
(1.16833e-09 -8.02165e-10 0)
(5.19144e-10 -6.4615e-10 0)
(-1.68999e-09 2.59555e-10 0)
(-1.47997e-09 -1.55249e-09 0)
(1.26329e-09 4.6124e-10 0)
(4.72719e-09 6.2758e-09 0)
(1.51327e-09 -7.95353e-09 0)
(-2.16513e-08 2.92621e-08 0)
(2.09178e-08 -2.26206e-07 0)
(4.78261e-08 -1.89741e-08 0)
(1.65493e-08 6.19957e-09 0)
(-4.68607e-10 -8.0624e-09 0)
(2.22827e-12 -1.35383e-09 0)
(-2.93327e-10 3.25793e-09 0)
(-5.3769e-09 9.01279e-10 0)
(-6.63391e-09 1.35298e-09 0)
(-1.48163e-09 1.82686e-09 0)
(3.47755e-09 1.36411e-09 0)
(-1.17316e-09 1.12492e-09 0)
(-1.66674e-09 1.40315e-09 0)
(3.39402e-10 -1.01923e-09 0)
(8.1393e-10 -2.77789e-09 0)
(-9.87338e-10 1.74972e-11 0)
(-9.45971e-10 2.50306e-09 0)
(1.7194e-09 2.59928e-09 0)
(1.80708e-09 -4.0348e-09 0)
(1.3006e-08 -6.34918e-09 0)
(-1.84436e-07 -1.99528e-08 0)
(-5.543e-08 2.40064e-07 0)
(2.95406e-07 3.21557e-08 0)
(2.25191e-08 -1.18304e-08 0)
(-1.64898e-09 -8.00083e-09 0)
(4.59604e-09 -7.01371e-09 0)
(-9.25609e-10 -6.78983e-09 0)
(-5.85035e-09 -4.98116e-09 0)
(-3.93797e-09 -1.2407e-09 0)
(7.89968e-10 2.33076e-09 0)
(3.43274e-09 1.959e-09 0)
(-1.92536e-09 -1.92194e-11 0)
(-1.79838e-09 1.20901e-09 0)
(-8.5442e-10 2.58159e-10 0)
(7.00672e-10 -2.92772e-09 0)
(1.19065e-09 -1.09475e-09 0)
(7.13633e-10 3.48552e-09 0)
(-1.84733e-09 3.21696e-09 0)
(-1.98178e-09 -5.18676e-09 0)
(-8.24744e-09 -1.05133e-08 0)
(1.80304e-07 -1.74789e-08 0)
(7.93148e-08 2.30083e-07 0)
(-3.00164e-07 1.84968e-08 0)
(-3.08518e-08 -3.76672e-09 0)
(4.30705e-09 -7.24195e-09 0)
(-9.80485e-10 -8.68381e-09 0)
(1.93272e-09 -7.76432e-09 0)
(2.15156e-09 -4.36951e-09 0)
(2.85536e-09 -5.4531e-10 0)
(5.0275e-09 3.80479e-09 0)
(2.86327e-09 2.93797e-09 0)
(-1.66765e-09 -2.15649e-09 0)
(-5.51382e-10 6.19832e-11 0)
(-1.76137e-09 2.12439e-09 0)
(1.87491e-10 1.51702e-10 0)
(2.18204e-09 -2.34145e-09 0)
(2.28382e-09 2.55801e-10 0)
(-3.38656e-09 4.37866e-10 0)
(-4.50094e-09 2.73432e-09 0)
(-5.6548e-09 -4.77393e-09 0)
(3.63001e-08 1.16161e-08 0)
(-7.00901e-08 -2.21798e-07 0)
(-1.41352e-08 -2.77819e-08 0)
(-5.73669e-09 4.59311e-10 0)
(-1.34421e-08 -4.07145e-09 0)
(1.93397e-09 2.36794e-10 0)
(5.22648e-09 1.63051e-09 0)
(5.72452e-09 9.7608e-10 0)
(6.92666e-09 2.31135e-09 0)
(5.36449e-09 4.6711e-09 0)
(-1.40476e-09 2.76736e-09 0)
(-2.05391e-10 -3.42381e-09 0)
(1.80587e-09 -8.24777e-10 0)
(-9.56576e-10 3.11102e-09 0)
(-1.13007e-09 3.61282e-09 0)
(1.56682e-09 -1.00174e-09 0)
(1.89648e-09 -4.85912e-09 0)
(-5.20135e-10 -2.68551e-09 0)
(-6.0479e-09 2.73634e-09 0)
(1.60007e-09 9.08758e-09 0)
(-7.10134e-09 -1.34425e-09 0)
(7.50259e-09 -1.83957e-08 0)
(2.67453e-10 1.4179e-10 0)
(-9.86467e-09 -6.47269e-09 0)
(4.22248e-09 5.27269e-09 0)
(7.6159e-09 8.62122e-09 0)
(5.80922e-09 7.38571e-09 0)
(6.09949e-09 4.8823e-09 0)
(5.62134e-09 3.14267e-09 0)
(2.16406e-10 2.57919e-09 0)
(-7.14956e-09 1.25486e-09 0)
(1.24977e-09 -2.52422e-09 0)
(4.16722e-09 -8.42617e-10 0)
(7.59258e-10 2.47747e-09 0)
(-1.52206e-09 3.5723e-09 0)
(-7.24008e-10 1.17351e-09 0)
(6.35915e-10 -5.43855e-09 0)
(5.39315e-10 -6.01898e-09 0)
(-1.45639e-09 -7.60794e-10 0)
(-1.06375e-09 8.36521e-09 0)
(1.53714e-10 4.99834e-09 0)
(2.99324e-09 1.05009e-08 0)
(-3.39866e-09 1.65864e-09 0)
(3.84151e-09 7.7072e-09 0)
(9.39624e-09 1.12934e-08 0)
(6.92675e-09 9.6336e-09 0)
(4.47831e-09 7.55931e-09 0)
(2.19227e-09 4.08028e-09 0)
(-4.83569e-10 1.16947e-10 0)
(-5.55627e-09 -1.3487e-09 0)
(-1.01788e-08 -5.44488e-10 0)
(2.00887e-09 1.09055e-10 0)
(4.65998e-09 -6.10117e-10 0)
(1.72794e-09 3.51946e-10 0)
(-1.16238e-09 9.36179e-10 0)
(-2.08037e-09 1.18345e-09 0)
(-7.95285e-10 -1.04786e-09 0)
(3.02576e-10 -4.0502e-09 0)
(1.07969e-09 -1.59773e-09 0)
(-3.83941e-10 1.55375e-09 0)
(1.74974e-09 4.45275e-09 0)
(9.17099e-10 2.1079e-09 0)
(3.13308e-10 3.24578e-09 0)
(5.49082e-09 6.4812e-09 0)
(5.63569e-09 4.83361e-09 0)
(4.07513e-09 2.99836e-09 0)
(6.72917e-10 1.26363e-09 0)
(-3.5087e-09 -1.24936e-09 0)
(-4.92621e-09 -4.35177e-09 0)
(-6.46053e-09 -5.1472e-09 0)
(-8.17662e-09 -2.17611e-09 0)
(1.79242e-09 3.02006e-09 0)
(2.57153e-09 -6.43547e-10 0)
(8.14339e-10 -2.43569e-09 0)
(-9.12204e-10 -1.00964e-09 0)
(-1.6987e-09 2.5593e-10 0)
(-6.95027e-10 2.45305e-09 0)
(6.70409e-10 1.72982e-09 0)
(1.16824e-09 1.25739e-09 0)
(-2.46196e-10 -1.03981e-10 0)
(-7.65908e-10 -1.18607e-09 0)
(-1.65742e-09 -4.18635e-09 0)
(9.70065e-10 -2.37441e-09 0)
(1.9018e-09 -2.85114e-09 0)
(1.83888e-09 -5.30659e-09 0)
(1.00525e-09 -6.21078e-09 0)
(-2.55129e-09 -5.76013e-09 0)
(-5.27826e-09 -4.94064e-09 0)
(-4.41231e-09 -6.19034e-09 0)
(-2.79454e-09 -7.31981e-09 0)
(-1.83117e-09 -3.51281e-09 0)
(9.10312e-10 4.43309e-09 0)
(-1.54616e-09 -3.84595e-10 0)
(-1.43007e-09 -4.04958e-09 0)
(-1.2457e-09 -1.64493e-09 0)
(-5.84347e-10 6.77317e-11 0)
(1.10632e-09 2.70519e-09 0)
(2.45239e-09 4.63185e-09 0)
(1.48866e-09 4.05335e-09 0)
(-7.48963e-10 1.79334e-09 0)
(-2.49439e-09 -1.68618e-09 0)
(-2.69438e-09 -3.88517e-09 0)
(-1.25528e-09 -4.02038e-09 0)
(-1.05798e-09 -5.87586e-09 0)
(-1.2904e-10 -8.34256e-09 0)
(2.57444e-10 -9.00734e-09 0)
(-8.34657e-10 -6.65775e-09 0)
(-2.17381e-09 -3.69944e-09 0)
(-2.4251e-09 -4.19475e-09 0)
(5.36452e-10 -6.24063e-09 0)
(5.70031e-09 -3.46761e-09 0)
(1.26366e-10 2.26616e-09 0)
(-5.45847e-09 -5.57628e-11 0)
(-3.68577e-09 -2.10731e-09 0)
(-1.65508e-09 -9.29593e-10 0)
(4.64677e-10 1.07336e-10 0)
(2.94276e-09 1.14681e-09 0)
(4.30121e-09 2.29896e-09 0)
(2.39318e-09 2.26249e-09 0)
(-1.09812e-09 1.26998e-09 0)
(-3.05792e-09 -4.22223e-10 0)
(-1.60799e-09 -1.51974e-09 0)
(-9.41862e-10 -1.55776e-09 0)
(-1.74491e-09 -2.41607e-09 0)
(-7.22641e-10 -3.60776e-09 0)
(1.16167e-09 -3.92147e-09 0)
(2.2718e-09 -2.58355e-09 0)
(9.34303e-10 -1.00319e-09 0)
(-1.37679e-09 -1.19993e-09 0)
(2.2232e-09 -2.34243e-09 0)
(1.07651e-08 -1.44559e-09 0)
)
;

boundaryField
{
    sides
    {
        type            calculated;
        value           nonuniform List<vector> 
40
(
(1.26366e-10 0 0)
(-5.45847e-09 0 0)
(-3.68577e-09 0 0)
(-1.65508e-09 0 0)
(4.64677e-10 0 0)
(2.94276e-09 0 0)
(4.30121e-09 0 0)
(2.39318e-09 0 0)
(-1.09812e-09 0 0)
(-3.05792e-09 0 0)
(-1.60799e-09 0 0)
(-9.41862e-10 0 0)
(-1.74491e-09 0 0)
(-7.22641e-10 0 0)
(1.16167e-09 0 0)
(2.2718e-09 0 0)
(9.34303e-10 0 0)
(-1.37679e-09 0 0)
(2.2232e-09 0 0)
(1.07651e-08 0 0)
(-1.30406e-09 0 0)
(-1.93918e-09 0 0)
(-7.07595e-10 0 0)
(5.98698e-10 0 0)
(3.00769e-10 0 0)
(7.13664e-10 0 0)
(1.37665e-09 0 0)
(3.75117e-10 0 0)
(-1.28783e-09 0 0)
(-5.11345e-10 0 0)
(-2.31089e-09 0 0)
(7.00625e-10 0 0)
(-2.51096e-09 0 0)
(-7.0504e-10 0 0)
(3.63434e-09 0 0)
(2.41911e-09 0 0)
(9.12061e-10 0 0)
(1.8515e-09 0 0)
(6.52569e-09 0 0)
(9.62397e-09 0 0)
)
;
    }
    inlet
    {
        type            calculated;
        value           uniform (0 0 0);
    }
    outlet
    {
        type            calculated;
        value           nonuniform List<vector> 
20
(
(9.62397e-09 3.75452e-10 0)
(2.59778e-09 5.69971e-10 0)
(-4.94192e-10 1.99382e-09 0)
(-6.91615e-09 3.04887e-09 0)
(-8.63778e-09 8.14574e-10 0)
(-4.76417e-09 -1.68912e-09 0)
(2.84148e-11 -2.32285e-09 0)
(3.27836e-09 -1.18762e-09 0)
(5.58598e-09 -1.57852e-09 0)
(3.13354e-09 -7.7441e-10 0)
(3.47755e-09 1.36411e-09 0)
(3.43274e-09 1.959e-09 0)
(2.86327e-09 2.93797e-09 0)
(-1.40476e-09 2.76736e-09 0)
(-7.14956e-09 1.25486e-09 0)
(-1.01788e-08 -5.44488e-10 0)
(-8.17662e-09 -2.17611e-09 0)
(-1.83117e-09 -3.51281e-09 0)
(5.70031e-09 -3.46761e-09 0)
(1.07651e-08 -1.44559e-09 0)
)
;
    }
    frontAndBack
    {
        type            empty;
    }
}


// ************************************************************************* //
