/*--------------------------------*- C++ -*----------------------------------*\
  =========                 |
  \\      /  F ield         | OpenFOAM: The Open Source CFD Toolbox
   \\    /   O peration     | Website:  https://openfoam.org
    \\  /    A nd           | Version:  9
     \\/     M anipulation  |
\*---------------------------------------------------------------------------*/
FoamFile
{
    format      ascii;
    class       surfaceScalarField;
    location    "83";
    object      phi;
}
// * * * * * * * * * * * * * * * * * * * * * * * * * * * * * * * * * * * * * //

dimensions      [0 4 -1 0 0 0 0];

internalField   nonuniform List<scalar> 
760
(
5.00009e-06
-9.55931e-11
5.0004e-06
-3.08849e-10
5.00091e-06
-5.12201e-10
5.00162e-06
-7.0117e-10
5.00249e-06
-8.7108e-10
5.0035e-06
-1.00415e-09
5.00456e-06
-1.06239e-09
5.00557e-06
-1.0188e-09
5.0064e-06
-8.35867e-10
5.00692e-06
-5.27485e-10
5.00705e-06
-1.25173e-10
5.00665e-06
3.9432e-10
5.00579e-06
8.52822e-10
5.00469e-06
1.10345e-09
5.00352e-06
1.1727e-09
5.00257e-06
9.54028e-10
5.00186e-06
7.15165e-10
5.00161e-06
2.40865e-10
5.0015e-06
1.00109e-10
-3.93513e-10
5.00012e-06
-2.1888e-10
5.00045e-06
-6.379e-10
5.00098e-06
-1.04451e-09
5.00172e-06
-1.43898e-09
5.00265e-06
-1.80345e-09
5.00374e-06
-2.09472e-09
5.00493e-06
-2.24927e-09
5.00611e-06
-2.19858e-09
5.00713e-06
-1.85756e-09
5.00777e-06
-1.17086e-09
5.00774e-06
-9.69141e-11
5.00725e-06
8.87904e-10
5.00626e-06
1.84096e-09
5.00495e-06
2.41434e-09
5.00368e-06
2.4456e-09
5.00277e-06
1.85836e-09
5.00224e-06
1.24305e-09
5.00191e-06
5.74507e-10
5.00165e-06
3.61882e-10
-1.51665e-10
5.00011e-06
-3.26443e-10
5.00043e-06
-9.56378e-10
5.00096e-06
-1.57712e-09
5.00172e-06
-2.20565e-09
5.00272e-06
-2.80578e-09
5.00394e-06
-3.31392e-09
5.00532e-06
-3.62619e-09
5.00672e-06
-3.59629e-09
5.00793e-06
-3.06345e-09
5.00872e-06
-1.95894e-09
5.00893e-06
-3.06283e-10
5.00825e-06
1.56962e-09
5.00687e-06
3.2259e-09
5.00515e-06
4.13079e-09
5.0035e-06
4.09177e-09
5.0023e-06
3.05583e-09
5.00165e-06
1.88764e-09
5.00147e-06
7.65577e-10
5.00144e-06
3.93045e-10
-2.2249e-10
5.0001e-06
-4.22754e-10
5.00041e-06
-1.26398e-09
5.00095e-06
-2.11585e-09
5.00174e-06
-3.01313e-09
5.00285e-06
-3.91278e-09
5.00428e-06
-4.74695e-09
5.00601e-06
-5.35132e-09
5.00795e-06
-5.52879e-09
5.00984e-06
-4.94617e-09
5.01107e-06
-3.19453e-09
5.0112e-06
-4.1973e-10
5.00999e-06
2.77367e-09
5.00764e-06
5.57007e-09
5.00514e-06
6.63822e-09
5.00347e-06
5.76102e-09
5.00269e-06
3.82819e-09
5.00247e-06
2.11086e-09
5.0023e-06
9.37599e-10
5.00199e-06
7.10622e-10
3.40267e-10
5.00008e-06
-5.01012e-10
5.00034e-06
-1.52212e-09
5.00083e-06
-2.61178e-09
5.00163e-06
-3.81614e-09
5.00286e-06
-5.1352e-09
5.00457e-06
-6.46412e-09
5.0068e-06
-7.57322e-09
5.00942e-06
-8.14391e-09
5.01239e-06
-7.91491e-09
5.01479e-06
-5.58827e-09
5.01481e-06
-4.7659e-10
5.01284e-06
4.76173e-09
5.00867e-06
9.74192e-09
5.00459e-06
1.07097e-08
5.00223e-06
8.118e-09
5.00173e-06
4.32539e-09
5.00204e-06
1.80943e-09
5.00225e-06
7.2898e-10
5.00201e-06
9.54903e-10
6.28885e-10
5.00005e-06
-5.40918e-10
5.0002e-06
-1.67837e-09
5.00054e-06
-2.95215e-09
5.00121e-06
-4.4873e-09
5.00241e-06
-6.33401e-09
5.00452e-06
-8.57671e-09
5.0076e-06
-1.06508e-08
5.01167e-06
-1.22142e-08
5.01552e-06
-1.178e-08
5.01901e-06
-9.05431e-09
5.02021e-06
-1.68674e-09
5.016e-06
8.93804e-09
5.00951e-06
1.62628e-08
5.00421e-06
1.60023e-08
5.00216e-06
1.01558e-08
5.00249e-06
4.00146e-09
5.00327e-06
1.03547e-09
5.00339e-06
6.03135e-10
5.00279e-06
1.55012e-09
1.42401e-09
4.99998e-06
-5.21551e-10
4.99994e-06
-1.63634e-09
5.00003e-06
-3.04328e-09
5.00036e-06
-4.8151e-09
5.00122e-06
-7.19352e-09
5.00292e-06
-1.02766e-08
5.00681e-06
-1.45335e-08
5.01392e-06
-1.93433e-08
5.02377e-06
-2.15989e-08
5.0309e-06
-1.62637e-08
5.02875e-06
5.41945e-10
5.01674e-06
2.09221e-08
5.00417e-06
2.88035e-08
4.99873e-06
2.14581e-08
5.00057e-06
8.3136e-09
5.00284e-06
1.72935e-09
5.00372e-06
1.65262e-10
5.00366e-06
6.54427e-10
5.00304e-06
2.16482e-09
1.68217e-09
4.99987e-06
-3.88562e-10
4.99955e-06
-1.32188e-09
4.99912e-06
-2.61435e-09
4.99885e-06
-4.54379e-09
4.99933e-06
-7.66734e-09
5.00036e-06
-1.13064e-08
5.00365e-06
-1.7827e-08
5.00982e-06
-2.55166e-08
5.02489e-06
-3.66819e-08
5.05613e-06
-4.74999e-08
5.05002e-06
7.38981e-09
5.02318e-06
4.78214e-08
4.99817e-06
5.38024e-08
4.99349e-06
2.61343e-08
4.99946e-06
2.34419e-09
5.00407e-06
-2.87585e-09
5.00491e-06
-6.69153e-10
5.00372e-06
1.83547e-09
5.0035e-06
2.3805e-09
9.70362e-10
4.99977e-06
-1.57491e-10
4.99915e-06
-7.05296e-10
4.99792e-06
-1.38023e-09
4.99611e-06
-2.73175e-09
4.99402e-06
-5.5776e-09
4.99374e-06
-1.10301e-08
4.99945e-06
-2.35385e-08
5.01713e-06
-4.3202e-08
5.05569e-06
-7.52175e-08
5.0668e-06
-5.86192e-08
5.04975e-06
2.37349e-08
4.99649e-06
1.01013e-07
4.9893e-06
6.1002e-08
4.9959e-06
1.95402e-08
5.00019e-06
-1.93251e-09
5.00293e-06
-5.61296e-09
5.00252e-06
-2.72956e-10
5.00184e-06
2.51781e-09
5.00254e-06
1.67733e-09
8.1721e-11
4.99985e-06
-1.59763e-11
4.9992e-06
-5.07707e-11
4.99791e-06
-8.58632e-11
4.99531e-06
-1.271e-10
4.9899e-06
-1.68555e-10
4.97908e-06
-2.21716e-10
4.95582e-06
-2.70332e-10
4.91296e-06
-3.27204e-10
4.83812e-06
-4.0412e-10
4.78001e-06
-4.31674e-10
4.80425e-06
-6.32441e-10
4.90603e-06
-7.25587e-10
4.96779e-06
-7.37306e-10
4.98822e-06
-9.00932e-10
4.98744e-06
-1.15907e-09
4.98326e-06
-1.42253e-09
4.98455e-06
-1.55646e-09
4.9889e-06
-1.82678e-09
4.99247e-06
-1.89469e-09
-2.58436e-09
4.99985e-06
1.25472e-10
4.9992e-06
6.02848e-10
4.99791e-06
1.21286e-09
4.9953e-06
2.48265e-09
4.98987e-06
5.25032e-09
4.97905e-06
1.06018e-08
4.95577e-06
2.30134e-08
4.9129e-06
4.2548e-08
4.83804e-06
7.44593e-08
4.77972e-06
5.78371e-08
4.80428e-06
-2.50988e-08
4.90601e-06
-1.02484e-07
4.96776e-06
-6.25208e-08
4.98806e-06
-2.12034e-08
4.98735e-06
-4.53842e-10
4.98293e-06
2.99798e-09
4.98442e-06
-3.05193e-09
4.98888e-06
-6.28506e-09
4.99234e-06
-5.35606e-09
-4.98327e-09
4.99977e-06
3.56219e-10
4.99914e-06
1.22372e-09
4.99792e-06
2.44576e-09
4.9961e-06
4.2968e-09
4.99402e-06
7.33306e-09
4.99373e-06
1.08894e-08
4.99943e-06
1.73213e-08
5.01708e-06
2.48933e-08
5.05564e-06
3.59059e-08
5.06698e-06
4.63469e-08
5.04953e-06
-6.17034e-09
4.99612e-06
-4.90455e-08
4.98884e-06
-5.52731e-08
4.99569e-06
-2.80514e-08
5.0001e-06
-4.87021e-09
5.00231e-06
7.86568e-10
5.00165e-06
-2.39451e-09
5.0009e-06
-5.53431e-09
5.00168e-06
-6.13512e-09
-5.95071e-09
4.99987e-06
4.90492e-10
4.99954e-06
1.54156e-09
4.99911e-06
2.88299e-09
4.99883e-06
4.581e-09
4.99927e-06
6.88783e-09
5.00027e-06
9.89479e-09
5.00348e-06
1.41088e-08
5.0096e-06
1.87724e-08
5.02458e-06
2.09148e-08
5.05566e-06
1.54024e-08
5.0497e-06
-1.72957e-09
5.0228e-06
-2.22004e-08
4.99787e-06
-3.03091e-08
4.99316e-06
-2.33366e-08
4.99864e-06
-1.03473e-08
5.00345e-06
-4.0218e-09
5.00373e-06
-2.67248e-09
5.00235e-06
-4.16143e-09
5.00216e-06
-5.94347e-09
-6.5357e-09
4.99998e-06
5.12538e-10
4.99993e-06
1.59085e-09
5e-06
2.80693e-09
5.00031e-06
4.28105e-09
5.00114e-06
6.06494e-09
5.0028e-06
8.23082e-09
5.00668e-06
1.02187e-08
5.01377e-06
1.16719e-08
5.02357e-06
1.11334e-08
5.03072e-06
8.27892e-09
5.02836e-06
6.06604e-10
5.01625e-06
-1.00308e-08
5.00349e-06
-1.75585e-08
4.99777e-06
-1.76044e-08
4.99941e-06
-1.19795e-08
5.00161e-06
-6.21435e-09
5.0024e-06
-3.4655e-09
5.00213e-06
-3.89105e-09
5.00119e-06
-5.00952e-09
-5.97882e-09
5.00004e-06
4.75645e-10
5.00018e-06
1.44645e-09
5.0005e-06
2.48548e-09
5.00115e-06
3.63592e-09
5.00232e-06
4.89765e-09
5.0044e-06
6.1559e-09
5.00742e-06
7.19383e-09
5.01139e-06
7.68811e-09
5.01513e-06
7.39455e-09
5.01852e-06
4.88581e-09
5.01956e-06
-3.97579e-10
5.01523e-06
-5.69608e-09
5.00854e-06
-1.08607e-08
5.00311e-06
-1.21668e-08
5.00088e-06
-9.7452e-09
5.001e-06
-6.34542e-09
5.00155e-06
-4.01066e-09
5.00131e-06
-3.65478e-09
5.00034e-06
-4.04878e-09
-4.97939e-09
5.00008e-06
3.99691e-10
5.00033e-06
1.20161e-09
5.00079e-06
2.01361e-09
5.00156e-06
2.86111e-09
5.00275e-06
3.71489e-09
5.00441e-06
4.49774e-09
5.00656e-06
5.04699e-09
5.00909e-06
5.15015e-09
5.01203e-06
4.45267e-09
5.0144e-06
2.51236e-09
5.01414e-06
-1.3767e-10
5.01208e-06
-3.63503e-09
5.00776e-06
-6.53052e-09
5.00349e-06
-7.90529e-09
5.00092e-06
-7.18825e-09
5.00012e-06
-5.55198e-09
5.00009e-06
-3.98704e-09
4.99987e-06
-3.42473e-09
4.99916e-06
-3.34371e-09
-4.17403e-09
5.0001e-06
3.03955e-10
5.0004e-06
9.04751e-10
5.00091e-06
1.50028e-09
5.00167e-06
2.09008e-09
5.00273e-06
2.64931e-09
5.00412e-06
3.11473e-09
5.00579e-06
3.38432e-09
5.00763e-06
3.31327e-09
5.00933e-06
2.75493e-09
5.01027e-06
1.57033e-09
5.01043e-06
-3.06371e-10
5.00903e-06
-2.23814e-09
5.0065e-06
-4.01088e-09
5.00367e-06
-5.08343e-09
5.00154e-06
-5.06431e-09
5.00033e-06
-4.35873e-09
4.99969e-06
-3.34677e-09
4.99916e-06
-2.88725e-09
4.99845e-06
-2.62482e-09
-3.21627e-09
5.0001e-06
2.0323e-10
5.00041e-06
5.96455e-10
5.00093e-06
9.81921e-10
5.00166e-06
1.35383e-09
5.00261e-06
1.69156e-09
5.00378e-06
1.95193e-09
5.00509e-06
2.07202e-09
5.00645e-06
1.96316e-09
5.00764e-06
1.56172e-09
5.00838e-06
8.29667e-10
5.00821e-06
-1.31344e-10
5.00733e-06
-1.36204e-09
5.0057e-06
-2.37959e-09
5.00368e-06
-3.06915e-09
5.00179e-06
-3.17521e-09
5.00033e-06
-2.90241e-09
4.99931e-06
-2.32572e-09
4.99851e-06
-2.09107e-09
4.99772e-06
-1.83047e-09
-2.27826e-09
5.00008e-06
1.18373e-10
5.00037e-06
3.05999e-10
5.00087e-06
4.90536e-10
5.00155e-06
6.7059e-10
5.00241e-06
8.30663e-10
5.00341e-06
9.49019e-10
5.00448e-06
9.98686e-10
5.00551e-06
9.403e-10
5.00632e-06
7.41077e-10
5.00679e-06
3.64047e-10
5.00681e-06
-1.42e-10
5.00608e-06
-6.28998e-10
5.00479e-06
-1.09198e-09
5.00315e-06
-1.42994e-09
5.00148e-06
-1.50336e-09
5.00002e-06
-1.43893e-09
4.99888e-06
-1.18525e-09
4.99792e-06
-1.13152e-09
4.99707e-06
-9.7462e-10
-1.42476e-09
5.00011e-06
5.00041e-06
5.00091e-06
5.00159e-06
5.00242e-06
5.00337e-06
5.00436e-06
5.00529e-06
5.00603e-06
5.00639e-06
5.00625e-06
5.00562e-06
5.00453e-06
5.0031e-06
5.00161e-06
5.00017e-06
4.99898e-06
4.99784e-06
4.99687e-06
)
;

boundaryField
{
    sides
    {
        type            calculated;
        value           uniform 0;
    }
    inlet
    {
        type            calculated;
        value           nonuniform List<scalar> 
20
(
-5e-06
-5e-06
-5e-06
-5e-06
-5e-06
-5e-06
-5e-06
-5e-06
-5e-06
-5e-06
-5e-06
-5e-06
-5e-06
-5e-06
-5e-06
-5e-06
-5e-06
-5e-06
-5e-06
-5e-06
)
;
    }
    outlet
    {
        type            calculated;
        value           nonuniform List<scalar> 
20
(
5.0019e-06
5.00141e-06
5.00152e-06
5.00143e-06
5.00172e-06
5.002e-06
5.00278e-06
5.00421e-06
5.00343e-06
4.99514e-06
4.99475e-06
5.00265e-06
5.00274e-06
5.00063e-06
4.99934e-06
4.99836e-06
4.99749e-06
4.99679e-06
4.99622e-06
4.99545e-06
)
;
    }
    frontAndBack
    {
        type            empty;
        value           nonuniform List<scalar> 0();
    }
}


// ************************************************************************* //
