/*--------------------------------*- C++ -*----------------------------------*\
  =========                 |
  \\      /  F ield         | OpenFOAM: The Open Source CFD Toolbox
   \\    /   O peration     | Website:  https://openfoam.org
    \\  /    A nd           | Version:  9
     \\/     M anipulation  |
\*---------------------------------------------------------------------------*/
FoamFile
{
    format      ascii;
    class       surfaceScalarField;
    location    "83";
    object      phi_0;
}
// * * * * * * * * * * * * * * * * * * * * * * * * * * * * * * * * * * * * * //

dimensions      [0 4 -1 0 0 0 0];

internalField   nonuniform List<scalar> 
760
(
5.00009e-06
-9.40768e-11
5.0004e-06
-3.08874e-10
5.00091e-06
-5.14235e-10
5.00162e-06
-7.0271e-10
5.00249e-06
-8.6961e-10
5.0035e-06
-1.00157e-09
5.00456e-06
-1.06185e-09
5.00557e-06
-1.01747e-09
5.0064e-06
-8.3698e-10
5.00692e-06
-5.27776e-10
5.00705e-06
-1.25488e-10
5.00665e-06
3.91888e-10
5.0058e-06
8.50897e-10
5.00469e-06
1.09923e-09
5.00352e-06
1.16971e-09
5.00257e-06
9.52334e-10
5.00186e-06
7.12936e-10
5.00161e-06
2.37718e-10
5.0015e-06
9.71015e-11
-3.95348e-10
5.00012e-06
-2.17093e-10
5.00045e-06
-6.38566e-10
5.00098e-06
-1.04698e-09
5.00172e-06
-1.4394e-09
5.00265e-06
-1.80077e-09
5.00374e-06
-2.09349e-09
5.00493e-06
-2.24857e-09
5.00611e-06
-2.19799e-09
5.00713e-06
-1.85785e-09
5.00777e-06
-1.17342e-09
5.00774e-06
-9.68406e-11
5.00725e-06
8.84288e-10
5.00626e-06
1.83853e-09
5.00495e-06
2.41046e-09
5.00368e-06
2.44152e-09
5.00277e-06
1.85689e-09
5.00224e-06
1.24239e-09
5.00191e-06
5.72361e-10
5.00165e-06
3.58518e-10
-1.53147e-10
5.0001e-06
-3.26617e-10
5.00043e-06
-9.57536e-10
5.00096e-06
-1.57746e-09
5.00172e-06
-2.20343e-09
5.00272e-06
-2.80485e-09
5.00394e-06
-3.31533e-09
5.00532e-06
-3.62455e-09
5.00672e-06
-3.59712e-09
5.00793e-06
-3.06261e-09
5.00872e-06
-1.96089e-09
5.00893e-06
-3.08637e-10
5.00825e-06
1.57018e-09
5.00687e-06
3.22241e-09
5.00515e-06
4.12931e-09
5.0035e-06
4.08998e-09
5.0023e-06
3.05445e-09
5.00165e-06
1.88713e-09
5.00147e-06
7.64206e-10
5.00145e-06
3.90791e-10
-2.23639e-10
5.0001e-06
-4.25044e-10
5.00041e-06
-1.26485e-09
5.00095e-06
-2.1138e-09
5.00175e-06
-3.01047e-09
5.00285e-06
-3.91391e-09
5.00429e-06
-4.74696e-09
5.00601e-06
-5.35261e-09
5.00795e-06
-5.52834e-09
5.00984e-06
-4.94973e-09
5.01107e-06
-3.18988e-09
5.0112e-06
-4.23512e-10
5.00999e-06
2.77318e-09
5.00764e-06
5.5732e-09
5.00514e-06
6.63744e-09
5.00347e-06
5.76201e-09
5.00269e-06
3.82965e-09
5.00247e-06
2.11132e-09
5.0023e-06
9.3738e-10
5.00199e-06
7.10382e-10
3.40272e-10
5.00008e-06
-5.03458e-10
5.00034e-06
-1.52245e-09
5.00084e-06
-2.60958e-09
5.00163e-06
-3.81512e-09
5.00286e-06
-5.1352e-09
5.00457e-06
-6.46537e-09
5.0068e-06
-7.57389e-09
5.00942e-06
-8.14757e-09
5.01239e-06
-7.90981e-09
5.01478e-06
-5.59505e-09
5.01482e-06
-4.5998e-10
5.01285e-06
4.75312e-09
5.00866e-06
9.74313e-09
5.00459e-06
1.07168e-08
5.00223e-06
8.12092e-09
5.00174e-06
4.32702e-09
5.00204e-06
1.81071e-09
5.00225e-06
7.30304e-10
5.00201e-06
9.57114e-10
6.30134e-10
5.00004e-06
-5.42085e-10
5.0002e-06
-1.67823e-09
5.00054e-06
-2.95143e-09
5.00121e-06
-4.48704e-09
5.00241e-06
-6.33437e-09
5.00452e-06
-8.57695e-09
5.0076e-06
-1.06536e-08
5.01168e-06
-1.22131e-08
5.01552e-06
-1.1778e-08
5.01902e-06
-9.05907e-09
5.0202e-06
-1.68161e-09
5.01602e-06
8.95828e-09
5.00951e-06
1.62556e-08
5.00421e-06
1.60015e-08
5.00216e-06
1.01606e-08
5.00249e-06
4.00446e-09
5.00326e-06
1.03727e-09
5.00339e-06
6.05055e-10
5.00279e-06
1.55279e-09
1.42544e-09
4.99998e-06
-5.21148e-10
4.99994e-06
-1.63598e-09
5.00003e-06
-3.04346e-09
5.00036e-06
-4.81582e-09
5.00122e-06
-7.19339e-09
5.00292e-06
-1.02779e-08
5.0068e-06
-1.45327e-08
5.01392e-06
-1.93418e-08
5.02375e-06
-2.16069e-08
5.03092e-06
-1.62327e-08
5.02875e-06
5.58144e-10
5.01672e-06
2.09218e-08
5.00418e-06
2.88128e-08
4.99873e-06
2.1455e-08
5.00057e-06
8.31151e-09
5.00284e-06
1.72975e-09
5.00371e-06
1.66566e-10
5.00366e-06
6.56104e-10
5.00304e-06
2.16671e-09
1.68316e-09
4.99987e-06
-3.87233e-10
4.99955e-06
-1.32133e-09
4.99912e-06
-2.61501e-09
4.99885e-06
-4.54456e-09
4.99933e-06
-7.66788e-09
5.00036e-06
-1.13056e-08
5.00365e-06
-1.78271e-08
5.00982e-06
-2.55148e-08
5.0249e-06
-3.66739e-08
5.0561e-06
-4.75374e-08
5.05005e-06
5.83253e-09
5.02317e-06
4.77972e-08
4.99817e-06
5.37915e-08
4.99349e-06
2.61328e-08
4.99947e-06
2.34154e-09
5.00407e-06
-2.87729e-09
5.00491e-06
-6.69857e-10
5.00372e-06
1.83546e-09
5.0035e-06
2.38107e-09
9.70448e-10
4.99977e-06
-1.56452e-10
4.99915e-06
-7.048e-10
4.99792e-06
-1.38072e-09
4.99611e-06
-2.7327e-09
4.99402e-06
-5.57683e-09
4.99374e-06
-1.10296e-08
4.99945e-06
-2.35368e-08
5.01713e-06
-4.32059e-08
5.05568e-06
-7.52296e-08
5.06684e-06
-5.8583e-08
5.04972e-06
2.37403e-08
4.9965e-06
1.0102e-07
4.98931e-06
6.10195e-08
4.9959e-06
1.95434e-08
5.00019e-06
-1.93603e-09
5.00293e-06
-5.61659e-09
5.00252e-06
-2.51429e-10
5.00184e-06
2.51458e-09
5.00254e-06
1.67633e-09
7.30474e-11
4.99986e-06
-1.60329e-11
4.9992e-06
-5.0616e-11
4.99791e-06
-8.56609e-11
4.99531e-06
-1.27518e-10
4.9899e-06
-1.68081e-10
4.97909e-06
-2.20117e-10
4.95582e-06
-2.72932e-10
4.91295e-06
-3.28782e-10
4.83813e-06
-4.01851e-10
4.77998e-06
-4.39071e-10
4.80425e-06
-5.90375e-10
4.90605e-06
-7.00466e-10
4.96778e-06
-7.38882e-10
4.98822e-06
-8.97285e-10
4.98745e-06
-1.15692e-09
4.98326e-06
-1.42363e-09
4.98456e-06
-1.55848e-09
4.9889e-06
-1.82866e-09
4.99247e-06
-1.89559e-09
-2.58492e-09
4.99986e-06
1.244e-10
4.9992e-06
6.02594e-10
4.99791e-06
1.21374e-09
4.9953e-06
2.4833e-09
4.98988e-06
5.24985e-09
4.97905e-06
1.06017e-08
4.95577e-06
2.30131e-08
4.9129e-06
4.25468e-08
4.83804e-06
7.44641e-08
4.77974e-06
5.78505e-08
4.80427e-06
-2.52034e-08
4.90599e-06
-1.0246e-07
4.96776e-06
-6.25192e-08
4.98806e-06
-2.12002e-08
4.98735e-06
-4.51419e-10
4.98293e-06
2.99798e-09
4.98442e-06
-3.05134e-09
4.98888e-06
-6.28482e-09
4.99234e-06
-5.35619e-09
-4.98342e-09
4.99977e-06
3.5515e-10
4.99914e-06
1.22303e-09
4.99791e-06
2.44683e-09
4.9961e-06
4.29813e-09
4.99402e-06
7.33233e-09
4.99373e-06
1.08872e-08
4.99943e-06
1.73219e-08
5.01708e-06
2.4898e-08
5.05564e-06
3.5908e-08
5.0671e-06
4.63226e-08
5.04959e-06
-7.68269e-09
4.99608e-06
-4.91249e-08
4.98884e-06
-5.52777e-08
4.99569e-06
-2.80514e-08
5.0001e-06
-4.86742e-09
5.00231e-06
7.88657e-10
5.00165e-06
-2.3909e-09
5.0009e-06
-5.53217e-09
5.00168e-06
-6.13509e-09
-5.95121e-09
4.99987e-06
4.90516e-10
4.99955e-06
1.54114e-09
4.99911e-06
2.88292e-09
4.99883e-06
4.58238e-09
4.99928e-06
6.88784e-09
5.00027e-06
9.89329e-09
5.00348e-06
1.41083e-08
5.0096e-06
1.87748e-08
5.02458e-06
2.09161e-08
5.05556e-06
1.54241e-08
5.04962e-06
-1.81934e-09
5.02284e-06
-2.21638e-08
4.99787e-06
-3.03092e-08
4.99316e-06
-2.33354e-08
4.99864e-06
-1.0345e-08
5.00345e-06
-4.02016e-09
5.00373e-06
-2.67087e-09
5.00235e-06
-4.16122e-09
5.00216e-06
-5.94553e-09
-6.53726e-09
4.99998e-06
5.13867e-10
4.99993e-06
1.5908e-09
5e-06
2.8056e-09
5.0003e-06
4.2806e-09
5.00113e-06
6.06662e-09
5.0028e-06
8.23144e-09
5.00668e-06
1.02183e-08
5.01377e-06
1.16683e-08
5.02357e-06
1.11368e-08
5.03069e-06
8.27573e-09
5.02839e-06
6.47058e-10
5.01625e-06
-1.00271e-08
5.0035e-06
-1.75525e-08
4.99778e-06
-1.76005e-08
4.99941e-06
-1.19799e-08
5.00161e-06
-6.21553e-09
5.0024e-06
-3.46665e-09
5.00213e-06
-3.89325e-09
5.00119e-06
-5.013e-09
-5.98072e-09
5.00004e-06
4.7722e-10
5.00019e-06
1.44662e-09
5.0005e-06
2.48382e-09
5.00115e-06
3.63431e-09
5.00232e-06
4.89882e-09
5.0044e-06
6.1595e-09
5.00742e-06
7.1951e-09
5.01139e-06
7.68596e-09
5.01513e-06
7.38863e-09
5.01853e-06
4.88682e-09
5.01956e-06
-3.97579e-10
5.01523e-06
-5.69326e-09
5.00855e-06
-1.08596e-08
5.00311e-06
-1.217e-08
5.00088e-06
-9.7493e-09
5.001e-06
-6.34899e-09
5.00154e-06
-4.0138e-09
5.00131e-06
-3.65742e-09
5.00035e-06
-4.05101e-09
-4.98045e-09
5.00008e-06
4.005e-10
5.00033e-06
1.20168e-09
5.0008e-06
2.01281e-09
5.00156e-06
2.86012e-09
5.00275e-06
3.71482e-09
5.00441e-06
4.50056e-09
5.00656e-06
5.04973e-09
5.00909e-06
5.15007e-09
5.01203e-06
4.44874e-09
5.0144e-06
2.50806e-09
5.01414e-06
-1.41601e-10
5.01208e-06
-3.63708e-09
5.00775e-06
-6.53508e-09
5.00349e-06
-7.91054e-09
5.00092e-06
-7.19226e-09
5.00012e-06
-5.55518e-09
5.00009e-06
-3.98913e-09
4.99987e-06
-3.42479e-09
4.99917e-06
-3.34266e-09
-4.17353e-09
5.0001e-06
3.03775e-10
5.0004e-06
9.0512e-10
5.00091e-06
1.50046e-09
5.00167e-06
2.08996e-09
5.00273e-06
2.64848e-09
5.00412e-06
3.11427e-09
5.00579e-06
3.38562e-09
5.00763e-06
3.31419e-09
5.00933e-06
2.75524e-09
5.01027e-06
1.56905e-09
5.01043e-06
-3.07666e-10
5.00903e-06
-2.2398e-09
5.0065e-06
-4.01291e-09
5.00367e-06
-5.08411e-09
5.00153e-06
-5.06443e-09
5.00033e-06
-4.35855e-09
4.99969e-06
-3.34535e-09
4.99916e-06
-2.88373e-09
4.99845e-06
-2.62067e-09
-3.21441e-09
5.0001e-06
2.02467e-10
5.00041e-06
5.97307e-10
5.00093e-06
9.82735e-10
5.00166e-06
1.35327e-09
5.00261e-06
1.69058e-09
5.00378e-06
1.95006e-09
5.00509e-06
2.07087e-09
5.00645e-06
1.96319e-09
5.00764e-06
1.56305e-09
5.00839e-06
8.31182e-10
5.00821e-06
-1.29358e-10
5.00733e-06
-1.36076e-09
5.0057e-06
-2.37714e-09
5.00368e-06
-3.06541e-09
5.00178e-06
-3.1717e-09
5.00033e-06
-2.89952e-09
4.99931e-06
-2.32253e-09
4.99852e-06
-2.08655e-09
4.99773e-06
-1.82558e-09
-2.27598e-09
5.00008e-06
1.17525e-10
5.00037e-06
3.06755e-10
5.00087e-06
4.91416e-10
5.00155e-06
6.69866e-10
5.00241e-06
8.29749e-10
5.00341e-06
9.4772e-10
5.00448e-06
9.97231e-10
5.00551e-06
9.39721e-10
5.00632e-06
7.41606e-10
5.00679e-06
3.65743e-10
5.00681e-06
-1.40246e-10
5.00608e-06
-6.26762e-10
5.00479e-06
-1.08891e-09
5.00315e-06
-1.4262e-09
5.00148e-06
-1.50005e-09
5.00002e-06
-1.43662e-09
4.99888e-06
-1.18321e-09
4.99792e-06
-1.12867e-09
4.99706e-06
-9.71275e-10
-1.42309e-09
5.00011e-06
5.00041e-06
5.00091e-06
5.00159e-06
5.00242e-06
5.00337e-06
5.00436e-06
5.00529e-06
5.00603e-06
5.00639e-06
5.00625e-06
5.00562e-06
5.00453e-06
5.0031e-06
5.0016e-06
5.00017e-06
4.99898e-06
4.99785e-06
4.99687e-06
)
;

boundaryField
{
    sides
    {
        type            calculated;
        value           uniform 0;
    }
    inlet
    {
        type            calculated;
        value           nonuniform List<scalar> 
20
(
-5e-06
-5e-06
-5e-06
-5e-06
-5e-06
-5e-06
-5e-06
-5e-06
-5e-06
-5e-06
-5e-06
-5e-06
-5e-06
-5e-06
-5e-06
-5e-06
-5e-06
-5e-06
-5e-06
-5e-06
)
;
    }
    outlet
    {
        type            calculated;
        value           nonuniform List<scalar> 
20
(
5.00189e-06
5.0014e-06
5.00152e-06
5.00144e-06
5.00172e-06
5.002e-06
5.00278e-06
5.00421e-06
5.00343e-06
4.99513e-06
4.99474e-06
5.00264e-06
5.00274e-06
5.00062e-06
4.99935e-06
4.99836e-06
4.99749e-06
4.99679e-06
4.99621e-06
4.99544e-06
)
;
    }
    frontAndBack
    {
        type            empty;
        value           nonuniform List<scalar> 0();
    }
}


// ************************************************************************* //
