/*--------------------------------*- C++ -*----------------------------------*\
  =========                 |
  \\      /  F ield         | OpenFOAM: The Open Source CFD Toolbox
   \\    /   O peration     | Website:  https://openfoam.org
    \\  /    A nd           | Version:  9
     \\/     M anipulation  |
\*---------------------------------------------------------------------------*/
FoamFile
{
    format      ascii;
    class       volVectorField;
    location    "83";
    object      U;
}
// * * * * * * * * * * * * * * * * * * * * * * * * * * * * * * * * * * * * * //

dimensions      [0 1 -1 0 0 0 0];

internalField   nonuniform List<vector> 
400
(
(0.0999964 -2.4427e-06 0)
(0.100001 -7.08299e-06 0)
(0.100009 -1.13276e-05 0)
(0.100023 -1.52033e-05 0)
(0.10004 -1.8686e-05 0)
(0.100061 -2.16684e-05 0)
(0.100084 -2.37171e-05 0)
(0.100107 -2.45894e-05 0)
(0.100128 -2.36817e-05 0)
(0.100144 -2.11725e-05 0)
(0.100152 -1.68787e-05 0)
(0.100152 -1.28757e-05 0)
(0.10014 -9.91303e-06 0)
(0.10012 -9.30578e-06 0)
(0.100093 -9.9629e-06 0)
(0.100068 -1.3546e-05 0)
(0.100045 -1.5648e-05 0)
(0.100034 -2.01345e-05 0)
(0.100025 -1.88934e-05 0)
(0.100033 -2.68726e-05 0)
(0.099997 -2.73417e-06 0)
(0.100002 -7.95287e-06 0)
(0.100011 -1.28253e-05 0)
(0.100025 -1.73276e-05 0)
(0.100044 -2.12577e-05 0)
(0.100066 -2.40321e-05 0)
(0.100091 -2.46458e-05 0)
(0.100117 -2.2163e-05 0)
(0.100141 -1.55563e-05 0)
(0.100161 -4.84018e-06 0)
(0.100171 9.35915e-06 0)
(0.100169 2.47502e-05 0)
(0.100154 3.89373e-05 0)
(0.100129 4.76897e-05 0)
(0.1001 5.0537e-05 0)
(0.100071 4.52212e-05 0)
(0.10005 3.78522e-05 0)
(0.100037 2.56381e-05 0)
(0.100033 2.04119e-05 0)
(0.100029 8.05112e-06 0)
(0.0999969 -5.34494e-06 0)
(0.100002 -1.59866e-05 0)
(0.100011 -2.66881e-05 0)
(0.100025 -3.73229e-05 0)
(0.100044 -4.7324e-05 0)
(0.100068 -5.55461e-05 0)
(0.100096 -6.04263e-05 0)
(0.100127 -5.98797e-05 0)
(0.100156 -5.18934e-05 0)
(0.10018 -3.51712e-05 0)
(0.100193 -1.09519e-05 0)
(0.100192 1.63122e-05 0)
(0.100174 4.02091e-05 0)
(0.100142 5.20365e-05 0)
(0.100102 5.00023e-05 0)
(0.100066 3.54258e-05 0)
(0.100037 2.03279e-05 0)
(0.100025 4.56692e-06 0)
(0.100021 -4.01124e-07 0)
(0.100029 -1.17452e-05 0)
(0.0999963 -7.40888e-06 0)
(0.100001 -2.22981e-05 0)
(0.10001 -3.75303e-05 0)
(0.100025 -5.30871e-05 0)
(0.100046 -6.80717e-05 0)
(0.100073 -8.0981e-05 0)
(0.100107 -8.89577e-05 0)
(0.100146 -8.86246e-05 0)
(0.100186 -7.55782e-05 0)
(0.100222 -4.74761e-05 0)
(0.100243 -2.15036e-06 0)
(0.10024 4.93645e-05 0)
(0.10021 9.37597e-05 0)
(0.100159 0.000114014 0)
(0.100104 0.000105505 0)
(0.100061 7.43476e-05 0)
(0.100041 4.24195e-05 0)
(0.100035 1.70345e-05 0)
(0.10004 1.02313e-05 0)
(0.100035 4.85537e-08 0)
(0.0999953 -9.08825e-06 0)
(0.0999995 -2.78392e-05 0)
(0.100008 -4.77889e-05 0)
(0.100023 -6.94934e-05 0)
(0.100044 -9.21006e-05 0)
(0.100076 -0.000113918 0)
(0.100117 -0.000129903 0)
(0.100168 -0.000133725 0)
(0.100225 -0.00011748 0)
(0.100281 -7.78337e-05 0)
(0.100318 -1.69369e-05 0)
(0.100316 5.80326e-05 0)
(0.100267 0.000123102 0)
(0.100181 0.00015118 0)
(0.100091 0.000137538 0)
(0.100029 9.6487e-05 0)
(0.100009 5.8183e-05 0)
(0.100019 3.14849e-05 0)
(0.100036 2.62601e-05 0)
(0.100043 1.68202e-05 0)
(0.099994 -1.02758e-05 0)
(0.0999969 -3.18746e-05 0)
(0.100003 -5.63168e-05 0)
(0.100015 -8.45619e-05 0)
(0.100036 -0.000117309 0)
(0.10007 -0.00015251 0)
(0.100122 -0.000185921 0)
(0.100193 -0.000205379 0)
(0.100277 -0.000191225 0)
(0.100357 -0.000119824 0)
(0.100414 8.25255e-06 0)
(0.100415 0.000154435 0)
(0.100339 0.000243518 0)
(0.100208 0.000230474 0)
(0.100084 0.000142993 0)
(0.100015 4.92582e-05 0)
(0.100012 1.36626e-06 0)
(0.100035 -8.50489e-06 0)
(0.100064 6.03628e-06 0)
(0.100055 5.00934e-06 0)
(0.0999924 -1.01915e-05 0)
(0.0999928 -3.33652e-05 0)
(0.0999948 -6.02772e-05 0)
(0.100001 -9.62645e-05 0)
(0.100016 -0.000139267 0)
(0.100046 -0.000194639 0)
(0.100103 -0.000248938 0)
(0.100202 -0.000308479 0)
(0.10035 -0.000323484 0)
(0.100519 -0.000288062 0)
(0.100632 -6.69756e-05 0)
(0.100591 0.000255587 0)
(0.100383 0.000482948 0)
(0.100117 0.000473622 0)
(0.0999477 0.000302719 0)
(0.0999218 0.000126363 0)
(0.0999926 4.31264e-05 0)
(0.100056 3.2665e-05 0)
(0.100095 5.61798e-05 0)
(0.100067 5.33861e-05 0)
(0.0999905 -9.20429e-06 0)
(0.0999873 -2.88854e-05 0)
(0.0999806 -5.77557e-05 0)
(0.099977 -9.57114e-05 0)
(0.0999775 -0.000157759 0)
(0.100001 -0.000234496 0)
(0.100047 -0.000340276 0)
(0.10016 -0.000412601 0)
(0.100335 -0.000437491 0)
(0.100659 -0.000255445 0)
(0.101006 7.5301e-05 0)
(0.101013 0.000426896 0)
(0.100606 0.00047195 0)
(0.100072 0.000278145 0)
(0.0997819 7.34653e-05 0)
(0.0997968 -2.74626e-05 0)
(0.0999672 -2.85597e-05 0)
(0.100089 -9.77474e-07 0)
(0.100138 2.11641e-05 0)
(0.100087 1.02681e-05 0)
(0.0999894 -4.89061e-06 0)
(0.0999805 -2.03808e-05 0)
(0.0999628 -3.86779e-05 0)
(0.0999378 -7.35008e-05 0)
(0.0999106 -0.000133842 0)
(0.0999019 -0.00024814 0)
(0.0999567 -0.000468767 0)
(0.100144 -0.000806977 0)
(0.100536 -0.00132918 0)
(0.101061 -0.00149309 0)
(0.101323 0.000384674 0)
(0.100997 0.00187465 0)
(0.100241 0.0015783 0)
(0.09972 0.000573957 0)
(0.0996445 -3.15674e-05 0)
(0.0998219 -0.00012628 0)
(0.100024 -9.40788e-06 0)
(0.100107 6.34391e-05 0)
(0.100113 6.5132e-05 0)
(0.100055 2.434e-05 0)
(0.0999702 -1.96235e-06 0)
(0.100006 -6.65159e-06 0)
(0.0999077 -1.514e-05 0)
(0.0999717 -2.48602e-05 0)
(0.0997259 -5.9216e-05 0)
(0.099844 -0.00011315 0)
(0.0992765 -0.000288266 0)
(0.0996752 -0.000558841 0)
(0.0991181 -0.00115351 0)
(0.102003 -0.0014149 0)
(0.106281 3.05693e-05 0)
(0.101267 0.00146749 0)
(0.0990078 0.00130742 0)
(0.0982225 0.000513294 0)
(0.0988553 1.94756e-05 0)
(0.0996051 -7.80546e-05 0)
(0.0999351 -1.11094e-05 0)
(0.0999522 2.48276e-05 0)
(0.0998669 1.74039e-05 0)
(0.0998489 -1.85109e-05 0)
(0.0999709 1.30669e-06 0)
(0.100006 4.61822e-06 0)
(0.0999084 1.17657e-05 0)
(0.0999722 1.9993e-05 0)
(0.0997262 5.29117e-05 0)
(0.0998441 0.000105065 0)
(0.0992763 0.000278478 0)
(0.0996746 0.000547012 0)
(0.0991172 0.00113922 0)
(0.102001 0.00139799 0)
(0.106276 -5.36096e-05 0)
(0.101265 -0.00149426 0)
(0.0990079 -0.00133951 0)
(0.0982222 -0.000552532 0)
(0.0988537 -6.47112e-05 0)
(0.0996015 2.48689e-05 0)
(0.099931 -4.72173e-05 0)
(0.0999478 -0.000100208 0)
(0.0998658 -9.88172e-05 0)
(0.0998441 -8.88449e-05 0)
(0.0999914 4.24525e-06 0)
(0.0999825 1.84158e-05 0)
(0.0999647 3.5381e-05 0)
(0.0999397 6.8722e-05 0)
(0.0999124 0.000127614 0)
(0.0999038 0.000240128 0)
(0.0999583 0.000458932 0)
(0.100146 0.000794391 0)
(0.100537 0.00131372 0)
(0.101063 0.00147313 0)
(0.101325 -0.000406274 0)
(0.100996 -0.00190245 0)
(0.100235 -0.00161009 0)
(0.099712 -0.000612201 0)
(0.0996385 -8.51684e-06 0)
(0.0998172 7.74615e-05 0)
(0.100014 -4.2742e-05 0)
(0.100092 -0.000130473 0)
(0.100093 -0.000137855 0)
(0.100038 -0.000125043 0)
(0.0999939 8.58803e-06 0)
(0.0999906 2.70197e-05 0)
(0.0999838 5.45453e-05 0)
(0.0999798 9.10426e-05 0)
(0.0999799 0.000151341 0)
(0.100003 0.000226168 0)
(0.100048 0.000329478 0)
(0.100159 0.000399215 0)
(0.100332 0.000421124 0)
(0.100655 0.000236295 0)
(0.101 -9.72943e-05 0)
(0.101006 -0.000454488 0)
(0.100601 -0.00050242 0)
(0.100067 -0.000313101 0)
(0.0997751 -0.000113211 0)
(0.0997847 -2.52035e-05 0)
(0.099951 -3.2274e-05 0)
(0.100066 -7.40976e-05 0)
(0.100111 -9.66376e-05 0)
(0.100057 -0.000107359 0)
(0.0999971 9.61473e-06 0)
(0.0999974 3.15643e-05 0)
(0.0999992 5.72382e-05 0)
(0.100005 9.18297e-05 0)
(0.100019 0.000133367 0)
(0.100049 0.000187089 0)
(0.100105 0.00023994 0)
(0.100203 0.000297661 0)
(0.10035 0.000311318 0)
(0.10052 0.000273425 0)
(0.100631 5.0068e-05 0)
(0.100586 -0.000275531 0)
(0.100375 -0.000507838 0)
(0.100105 -0.000507032 0)
(0.0999304 -0.000344843 0)
(0.0998989 -0.000179355 0)
(0.0999682 -0.000102072 0)
(0.100026 -0.000105875 0)
(0.100065 -0.000130663 0)
(0.100025 -0.000151546 0)
(0.1 9.74741e-06 0)
(0.100003 3.02574e-05 0)
(0.100009 5.3621e-05 0)
(0.10002 8.06841e-05 0)
(0.10004 0.000112195 0)
(0.100074 0.000145897 0)
(0.100124 0.000177815 0)
(0.100194 0.000195195 0)
(0.100276 0.000178488 0)
(0.100353 0.00010366 0)
(0.100407 -2.80386e-05 0)
(0.100405 -0.000178121 0)
(0.100326 -0.000270952 0)
(0.10019 -0.000262995 0)
(0.100064 -0.000177731 0)
(0.099989 -8.94454e-05 0)
(0.0999835 -4.26946e-05 0)
(0.0999982 -4.47925e-05 0)
(0.100024 -6.16413e-05 0)
(0.100002 -8.48737e-05 0)
(0.100003 8.59983e-06 0)
(0.100007 2.64338e-05 0)
(0.100015 4.54735e-05 0)
(0.100029 6.62366e-05 0)
(0.10005 8.78233e-05 0)
(0.10008 0.000108404 0)
(0.10012 0.000122946 0)
(0.10017 0.00012531 0)
(0.100225 0.000107487 0)
(0.100279 6.57939e-05 0)
(0.100315 1.92406e-06 0)
(0.100309 -7.6966e-05 0)
(0.100256 -0.000144865 0)
(0.100166 -0.000177271 0)
(0.100072 -0.00016669 0)
(0.100003 -0.00013477 0)
(0.0999791 -0.000102951 0)
(0.0999766 -9.37265e-05 0)
(0.0999894 -9.45566e-05 0)
(0.0999774 -0.000110867 0)
(0.100005 6.97763e-06 0)
(0.10001 2.1019e-05 0)
(0.100019 3.54278e-05 0)
(0.100033 5.01464e-05 0)
(0.100053 6.44077e-05 0)
(0.100079 7.65611e-05 0)
(0.100111 8.37422e-05 0)
(0.100148 8.2618e-05 0)
(0.100186 6.91828e-05 0)
(0.100218 4.06635e-05 0)
(0.100235 -4.7251e-06 0)
(0.100228 -5.76042e-05 0)
(0.100195 -0.000103507 0)
(0.100139 -0.000128097 0)
(0.100077 -0.000122965 0)
(0.100023 -9.948e-05 0)
(0.099995 -7.02561e-05 0)
(0.0999762 -5.57138e-05 0)
(0.0999768 -4.87374e-05 0)
(0.0999568 -5.9841e-05 0)
(0.100007 5.14792e-06 0)
(0.100012 1.50515e-05 0)
(0.100021 2.46587e-05 0)
(0.100034 3.38127e-05 0)
(0.100053 4.20887e-05 0)
(0.100076 4.83175e-05 0)
(0.100103 5.09193e-05 0)
(0.100131 4.74371e-05 0)
(0.100159 3.62352e-05 0)
(0.100182 1.56042e-05 0)
(0.100193 -1.17604e-05 0)
(0.100186 -4.21887e-05 0)
(0.100162 -6.82072e-05 0)
(0.100122 -8.43014e-05 0)
(0.100078 -8.51269e-05 0)
(0.100032 -7.71887e-05 0)
(0.100001 -6.38584e-05 0)
(0.0999726 -5.96811e-05 0)
(0.0999649 -5.61353e-05 0)
(0.0999396 -6.84672e-05 0)
(0.100009 3.57898e-06 0)
(0.100013 1.0534e-05 0)
(0.100021 1.74094e-05 0)
(0.100034 2.40798e-05 0)
(0.100051 3.01244e-05 0)
(0.100071 3.49451e-05 0)
(0.100094 3.76056e-05 0)
(0.100117 3.70236e-05 0)
(0.100138 3.21244e-05 0)
(0.100153 2.24754e-05 0)
(0.10016 8.6013e-06 0)
(0.100155 -7.08637e-06 0)
(0.100137 -2.06528e-05 0)
(0.100105 -2.97866e-05 0)
(0.100068 -3.1319e-05 0)
(0.100027 -2.8257e-05 0)
(0.0999971 -2.02913e-05 0)
(0.0999657 -1.68507e-05 0)
(0.0999541 -1.18314e-05 0)
(0.0999258 -1.98259e-05 0)
(0.10001 -3.54557e-07 0)
(0.100014 -9.65294e-07 0)
(0.100023 -1.319e-06 0)
(0.100036 -1.52368e-06 0)
(0.100053 -1.75821e-06 0)
(0.100072 -2.30873e-06 0)
(0.100094 -3.35231e-06 0)
(0.100115 -5.28543e-06 0)
(0.100134 -8.11858e-06 0)
(0.100147 -1.21851e-05 0)
(0.100152 -1.6979e-05 0)
(0.100145 -2.31339e-05 0)
(0.100129 -2.90559e-05 0)
(0.1001 -3.41384e-05 0)
(0.100069 -3.59898e-05 0)
(0.10003 -3.68169e-05 0)
(0.100003 -3.42371e-05 0)
(0.0999669 -3.52693e-05 0)
(0.0999557 -3.27766e-05 0)
(0.0999145 -4.1056e-05 0)
)
;

boundaryField
{
    sides
    {
        type            calculated;
        value           nonuniform List<vector> 
40
(
(0.10001 0 0)
(0.100014 0 0)
(0.100023 0 0)
(0.100036 0 0)
(0.100053 0 0)
(0.100072 0 0)
(0.100094 0 0)
(0.100115 0 0)
(0.100134 0 0)
(0.100147 0 0)
(0.100152 0 0)
(0.100145 0 0)
(0.100129 0 0)
(0.1001 0 0)
(0.100069 0 0)
(0.10003 0 0)
(0.100003 0 0)
(0.0999669 0 0)
(0.0999557 0 0)
(0.0999145 0 0)
(0.0999964 0 0)
(0.100001 0 0)
(0.100009 0 0)
(0.100023 0 0)
(0.10004 0 0)
(0.100061 0 0)
(0.100084 0 0)
(0.100107 0 0)
(0.100128 0 0)
(0.100144 0 0)
(0.100152 0 0)
(0.100152 0 0)
(0.10014 0 0)
(0.10012 0 0)
(0.100093 0 0)
(0.100068 0 0)
(0.100045 0 0)
(0.100034 0 0)
(0.100025 0 0)
(0.100033 0 0)
)
;
    }
    inlet
    {
        type            calculated;
        value           nonuniform List<vector> 
20
(
(0.0999963 0 0)
(0.0999968 0 0)
(0.0999966 0 0)
(0.0999961 0 0)
(0.0999951 0 0)
(0.0999938 0 0)
(0.0999924 0 0)
(0.0999909 0 0)
(0.0999899 0 0)
(0.0999899 0 0)
(0.0999906 0 0)
(0.099992 0 0)
(0.0999943 0 0)
(0.0999971 0 0)
(0.0999999 0 0)
(0.100003 0 0)
(0.100005 0 0)
(0.100007 0 0)
(0.100009 0 0)
(0.10001 0 0)
)
;
    }
    outlet
    {
        type            calculated;
        value           nonuniform List<vector> 
20
(
(0.100033 -2.68727e-05 0)
(0.100029 8.05111e-06 0)
(0.10003 -1.17452e-05 0)
(0.100034 4.85535e-08 0)
(0.100043 1.68202e-05 0)
(0.100054 5.00929e-06 0)
(0.100066 5.33854e-05 0)
(0.100085 1.02679e-05 0)
(0.100054 2.43397e-05 0)
(0.0998504 -1.85112e-05 0)
(0.0998454 -8.8846e-05 0)
(0.100037 -0.000125041 0)
(0.100055 -0.000107357 0)
(0.100023 -0.000151543 0)
(0.1 -8.48727e-05 0)
(0.0999766 -0.000110866 0)
(0.099956 -5.98405e-05 0)
(0.0999387 -6.84667e-05 0)
(0.099925 -1.98257e-05 0)
(0.0999131 -4.10554e-05 0)
)
;
    }
    frontAndBack
    {
        type            empty;
    }
}


// ************************************************************************* //
