/*--------------------------------*- C++ -*----------------------------------*\
  =========                 |
  \\      /  F ield         | OpenFOAM: The Open Source CFD Toolbox
   \\    /   O peration     | Website:  https://openfoam.org
    \\  /    A nd           | Version:  9
     \\/     M anipulation  |
\*---------------------------------------------------------------------------*/
FoamFile
{
    format      ascii;
    class       volSymmTensorField;
    location    "540";
    object      sigma;
}
// * * * * * * * * * * * * * * * * * * * * * * * * * * * * * * * * * * * * * //

dimensions      [1 -1 -2 0 0 0 0];

internalField   nonuniform List<symmTensor> 
1000
(
(7760.22 -5590.08 -7.19865e-14 4577.14 6.05612e-14 2847.08)
(10956.6 -4256.42 -1.13566e-13 1142.44 8.15526e-14 2792.08)
(12582.1 -3363.09 1.41187e-13 -719.104 -2.36412e-14 2737.62)
(13411.8 -2728.69 2.26862e-14 -1738.35 -1.92199e-14 2693.86)
(13804.3 -2261.93 -1.31808e-13 -2285.76 -1.80823e-14 2658.13)
(13947.4 -1908.65 -1.03089e-15 -2557.52 7.0839e-15 2628.42)
(13944.6 -1634.94 -1.53806e-13 -2664.3 -8.51392e-14 2603.14)
(13856 -1418.49 9.22794e-14 -2672.76 5.86701e-14 2580.75)
(13726.6 -1240.28 -9.27389e-14 -2626.37 -3.05274e-14 2561.6)
(13555.7 -1012.6 0 -2547.4 0 2540.38)
(10761.3 -6883.23 -1.17672e-13 5155.06 1.80674e-14 3673)
(13195.1 -4614.96 0 1842.82 0 3470.28)
(14323.9 -3208.01 1.32872e-13 22.2891 6.68376e-14 3310.67)
(14800.7 -2293.22 -2.28954e-13 -1009.4 -1.22586e-13 3182.61)
(14933.3 -1676.71 -9.89416e-14 -1594.08 -5.59016e-14 3078.27)
(14879 -1248.99 8.51165e-14 -1913.82 5.50879e-14 2991.98)
(14723.3 -944.494 7.78442e-14 -2072.04 4.44766e-14 2919.53)
(14515.4 -721.612 1.62763e-13 -2131.38 1.00922e-13 2857.84)
(14292 -549.767 0 -2129.46 0 2806.73)
(14046.7 -356.706 0 -2068.88 0 2764.1)
(14081.2 -7848.19 0 5279.21 0 4467.8)
(15491.3 -4808.47 0 2374.65 0 4122.91)
(15981.7 -2982.08 1.29112e-13 754.099 6.69702e-14 3862.12)
(16030.6 -1842.31 -2.53533e-14 -201.104 1.19846e-14 3652.95)
(15865.5 -1109 -1.89461e-16 -773.974 1.06352e-16 3482.65)
(15597.9 -626.355 -8.2032e-14 -1116.06 -5.30356e-14 3341.97)
(15285.8 -302.812 7.18063e-14 -1314.26 4.36485e-14 3224.19)
(14960.8 -82.2133 -6.84315e-14 -1421.61 -3.96891e-14 3124.44)
(14647.2 73.0012 1.56552e-14 -1469.81 -4.12872e-15 3040.93)
(14335.9 230.473 -1.10684e-14 -1456.26 -1.51162e-14 2972.23)
(17575.4 -8373.95 -7.25435e-14 5011.54 6.89544e-15 5212.37)
(17767.8 -4803.51 6.10732e-14 2746.59 -1.5728e-14 4734.09)
(17517.4 -2694.95 -6.26578e-14 1455.88 -3.1929e-14 4378.46)
(17086.9 -1409.46 -2.37618e-14 650.671 7.37793e-15 4093.29)
(16600.7 -605.436 8.1605e-14 130.964 5.71248e-14 3861.16)
(16112.1 -94.4937 -8.2805e-14 -211.167 -4.73952e-14 3669.45)
(15644.2 232.831 -7.34452e-14 -438.57 -4.25222e-14 3508.98)
(15207 442.743 -1.64714e-13 -590.406 -9.54916e-14 3373.05)
(14808.8 578.687 -4.349e-14 -690.515 -1.23551e-14 3258.06)
(14434.8 704.158 4.55975e-14 -732.888 1.76509e-14 3161.97)
(21070.5 -8384.09 -4.41701e-14 4447.25 5.82877e-16 5888.72)
(19939.5 -4579.66 -1.59993e-15 2979.06 1.74729e-16 5288.89)
(18896.7 -2356.99 -1.91425e-13 2107.01 -8.57713e-14 4847.01)
(17965.4 -1021.85 1.11632e-14 1503.3 -1.66182e-15 4492.79)
(17152.4 -202.097 -1.28324e-14 1066.96 1.7125e-15 4204.47)
(16445 306.273 7.52143e-14 742.351 4.34854e-14 3966.32)
(15827.6 621.076 1.10886e-15 495.634 -1.1274e-15 3766.9)
(15286 813.26 5.96699e-14 304.427 3.71626e-14 3597.78)
(14811.7 929.023 -5.78079e-14 154.457 -1.78521e-15 3453.72)
(14383.4 1025.39 -4.41431e-14 53.9774 -2.40724e-14 3331.71)
(24377.6 -7844.95 -1.38925e-13 3703.87 1.09606e-14 6480.35)
(21918.2 -4132.21 -1.41662e-15 3100.68 -7.68482e-17 5773.58)
(20089.8 -1978.91 8.61546e-16 2687.13 2.42205e-17 5256.2)
(18670.1 -698.052 9.93934e-15 2310.19 2.56569e-16 4841.61)
(17544 78.6646 -8.75515e-14 1974.08 -4.24281e-14 4504.16)
(16631.3 552.191 2.28185e-16 1678.64 1.05259e-16 4225.37)
(15876.8 838.206 6.75191e-14 1420.87 3.45322e-14 3991.78)
(15242.2 1006.27 1.5408e-13 1196.26 7.51492e-14 3793.48)
(14702.4 1101.37 2.72803e-14 1000.75 1.40554e-14 3623.79)
(14229.9 1172.29 -5.60647e-14 844.131 -2.16647e-14 3478.62)
(27305.4 -6769.95 1.70427e-13 2908.21 -1.47465e-14 6972.37)
(23618.5 -3473.87 3.82101e-14 3143.54 9.73234e-15 6175.86)
(21071.9 -1571.62 6.08963e-14 3176.62 2.0408e-14 5595.82)
(19210.8 -447.06 -9.09531e-15 3024.37 -2.15067e-15 5131.2)
(17805 229.376 7.45205e-14 2791.4 3.126e-14 4753.01)
(16711.6 636.948 -6.96228e-14 2530.35 -2.7884e-14 4440.44)
(15838.7 878.778 -1.50018e-15 2267.66 8.86954e-15 4178.38)
(15125.5 1016.9 -5.80406e-14 2015.98 -2.53844e-14 3955.73)
(14532.2 1091.2 7.14184e-15 1781.16 -6.7996e-15 3764.62)
(14025.5 1140.92 -2.74309e-14 1574.13 -1.84403e-14 3599.91)
(29673.5 -5219.81 2.9816e-13 2181.93 -2.33157e-14 7351.26)
(24963.7 -2635.74 -1.50608e-13 3138.2 -2.92782e-14 6485.05)
(21824 -1147.44 8.17281e-16 3558.08 4.15793e-16 5857.4)
(19600 -270.119 1.30287e-14 3603.34 6.99324e-15 5354.62)
(17965.8 255.056 1.56704e-13 3463.28 4.63318e-14 4945.16)
(16726.2 569.036 -2.75381e-15 3235.44 -4.61279e-15 4606.54)
(15759.1 753.148 1.63254e-17 2971.56 -2.16465e-16 4322.47)
(14984.9 856.382 -5.41531e-14 2699.16 -2.2322e-14 4080.94)
(14351.2 910.125 -2.50285e-15 2432.73 3.60118e-15 3873.21)
(13819.8 943.103 2.30926e-15 2184.24 6.46525e-15 3693.24)
(31321.9 -3298.61 1.75528e-13 1628.09 -2.09662e-14 7603.85)
(25890.3 -1671.14 -1.60609e-13 3112.01 -2.85073e-14 6692.84)
(22330.7 -728.653 1.19349e-14 3820.82 1.2609e-14 6034.97)
(19848.9 -171.924 1.1941e-14 4015.1 1.33161e-14 5507.07)
(18053 161.059 -4.79567e-15 3945.43 -7.08236e-15 5076.56)
(16711.2 359.731 6.71718e-14 3743.12 8.38199e-15 4720.22)
(15679 476.013 -1.87149e-16 3479.09 5.90343e-15 4421.09)
(14863.5 541.221 1.08528e-13 3191.9 2.27612e-14 4166.62)
(14203.3 575.407 2.4541e-14 2902.4 5.21971e-15 3947.47)
(13656.9 596.171 1.8861e-14 2623.43 -1.2023e-14 3756.99)
(32168 -1148.27 1.89466e-13 1335.07 -2.93184e-14 7731.47)
(26379.2 -684.987 -5.77537e-15 3111.41 -2.10614e-14 6805.52)
(22564.1 -388.147 6.24543e-14 3962.08 1.65363e-14 6121.42)
(19927.2 -204.076 2.77392e-15 4225.33 1.00113e-14 5573.67)
(18038.3 -89.4926 -7.09179e-17 4185.64 -3.34497e-16 5128.59)
(16640 -17.4276 6.71461e-14 3992.45 -2.949e-15 4761.34)
(15573.7 28.1447 -4.09493e-17 3726.01 6.50049e-15 4453.78)
(14738.2 56.9932 5.32774e-14 3429.82 2.37687e-15 4192.62)
(14067.2 75.5423 1.04612e-15 3127.05 -8.15297e-15 3967.91)
(13517.9 89.1613 -3.66927e-16 2829.48 -5.09564e-15 3772.48)
(-481.185 431.206 6.56398e-15 -11970 -6.71279e-14 -2873.35)
(-497.405 162.982 8.23394e-15 -7832.74 5.22763e-15 -1922.34)
(-107.52 -43.041 -6.85153e-15 -5245.35 -1.62657e-14 -1235.28)
(604.163 -166.641 0 -3569.37 0 -684.278)
(1427.3 -233.478 -1.32063e-14 -2452.42 -1.76711e-15 -236.566)
(2259.68 -266.312 -4.33259e-15 -1683.66 -1.0372e-14 132.927)
(3054.44 -279.305 2.27776e-14 -1136.78 5.48775e-16 442.537)
(3792.37 -280.838 1.04332e-14 -734.143 -7.18061e-15 705.745)
(4468.12 -276.088 1.94757e-14 -426.911 3.21582e-15 932.588)
(5082.86 -269.842 5.94189e-15 -183.934 8.92643e-15 1130.52)
(-572.775 1056.23 -3.61797e-15 -11545.9 -6.1871e-14 -2796.62)
(-336.407 -186.2 1.82888e-14 -7556.06 3.19758e-14 -1821.34)
(175.07 -843.938 -1.70238e-14 -5185.71 -2.07088e-14 -1156.3)
(940.78 -1179.56 -3.98792e-15 -3644.6 -3.76885e-15 -623.958)
(1779 -1336.31 0 -2602.84 0 -190.117)
(2606.9 -1391.58 -2.03505e-14 -1874.55 -1.18903e-14 169.005)
(3387.39 -1389.51 2.31689e-14 -1348.05 1.63438e-15 470.617)
(4105.98 -1355.8 1.01001e-16 -953.703 1.96618e-18 727.448)
(4759.07 -1305.73 -7.04046e-14 -646.857 3.82702e-16 948.973)
(5345.83 -1255.87 9.05307e-15 -398.139 4.5697e-15 1141.77)
(-657.108 1526.86 -4.56609e-15 -10357.6 -3.64947e-14 -2541.85)
(28.2327 -449.04 2.65403e-14 -7024.22 3.79606e-14 -1614.46)
(766.969 -1471.57 2.37605e-14 -5008.69 1.63102e-14 -978.86)
(1635.12 -1980.34 -2.99301e-15 -3677.17 -6.05636e-15 -471.243)
(2506.36 -2210.63 0 -2759.78 0 -58.4807)
(3328.67 -2285.12 -3.53046e-14 -2103.72 -1.46522e-14 282.68)
(4082.65 -2271.98 -4.7782e-14 -1617.38 -1.84495e-14 568.91)
(4763.85 -2210.51 4.18742e-14 -1243.34 1.1111e-14 812.425)
(5374 -2123.97 2.0425e-17 -944.702 -1.8332e-19 1022.14)
(5912.24 -2039.12 -4.24826e-14 -697.108 -8.08954e-15 1203.49)
(-688.832 1720.22 1.92973e-14 -8647.49 4.2447e-14 -2154.53)
(605.416 -742.788 1.80695e-15 -6249.12 -1.77953e-14 -1302.39)
(1640.53 -2010.67 3.26195e-14 -4742.4 1.78886e-14 -715.815)
(2633.6 -2631.83 0 -3704.08 0 -247.035)
(3539.85 -2904.45 -4.45602e-14 -2959.34 -1.12729e-14 133.964)
(4348.24 -2983.9 2.21467e-14 -2404.29 1.00046e-14 448.603)
(5061.89 -2955.59 -1.9817e-14 -1975.12 -3.29394e-15 712.332)
(5689.24 -2868.24 -3.91403e-14 -1631.21 -1.68292e-15 936.469)
(6239.03 -2750.67 1.71442e-14 -1346.37 6.1147e-15 1129.07)
(6709.69 -2639.13 3.25334e-14 -1103.21 1.10461e-14 1293.8)
(-585.97 1560.22 -3.94213e-14 -6578.39 -3.83933e-15 -1653.31)
(1399.09 -1106.5 -5.43126e-14 -5279.19 1.38539e-14 -895.409)
(2766 -2470.43 -4.04042e-14 -4384.65 -2.13937e-14 -373.534)
(3890.69 -3126.44 -2.22209e-16 -3700.09 2.03737e-14 43.9855)
(4824.9 -3401.78 8.78958e-17 -3163.6 1.88423e-16 383.377)
(5606.37 -3467.7 4.63259e-14 -2731.06 1.4746e-14 663.535)
(6264.39 -3418.06 2.5273e-14 -2372.38 9.5389e-15 898.156)
(6821.95 -3306.03 0 -2066.97 0 1097.3)
(7295.48 -3162.96 -5.36467e-14 -1801.33 -7.04258e-15 1267.88)
(7682.06 -3033.75 1.74422e-14 -1566.45 6.47804e-15 1411.29)
(-248.349 1015.92 -1.89593e-14 -4314.41 -1.2668e-13 -1052.94)
(2419.35 -1551.04 1.78889e-14 -4176.66 -4.55731e-14 -405.533)
(4106.71 -2846.33 -4.16926e-14 -3938.48 -3.98848e-14 38.8234)
(5347.57 -3450.13 2.03339e-15 -3637.66 -1.08839e-14 394.593)
(6292.5 -3683.83 7.63244e-14 -3329.16 3.16086e-14 683.847)
(7029.96 -3715.84 -5.82415e-14 -3032.32 -1.88837e-14 922.533)
(7616.3 -3638.34 1.08212e-16 -2753.28 2.84046e-17 1122.23)
(8089.42 -3503.16 -6.66742e-14 -2493.06 -2.19976e-14 1291.47)
(8473.35 -3340.84 1.77445e-17 -2251.88 -5.87472e-19 1435.72)
(8763.38 -3203.59 -5.52513e-14 -2030.25 -2.11505e-14 1553.8)
(424.882 101.754 2.64687e-14 -2022.94 -4.86204e-14 -368.783)
(3676.09 -2068.56 5.39973e-16 -3008.08 -1.00422e-15 154.155)
(5623.04 -3133.08 4.68477e-16 -3410.91 -9.4205e-16 510.491)
(6939.49 -3598.07 -9.11443e-14 -3490.55 -5.63469e-14 795.911)
(7866.39 -3745.78 4.53934e-17 -3411.81 1.56816e-14 1027.98)
(8538.54 -3723.64 -7.61856e-14 -3254.49 -3.28385e-14 1219.4)
(9036.94 -3612.01 1.3686e-13 -3059.66 5.77317e-14 1379.37)
(9412.85 -3455.67 7.55979e-17 -2849.4 4.20346e-18 1514.64)
(9696.93 -3280.83 1.44167e-14 -2637.65 1.21423e-14 1629.06)
(9882.46 -3145.33 -4.16292e-14 -2435.22 -1.72619e-14 1718.59)
(1520.54 -1124.59 1.22274e-13 135.691 -3.19035e-14 382.208)
(5172.63 -2636.28 3.39434e-14 -1838.42 -4.87522e-14 769.434)
(7273 -3327.33 -1.20593e-14 -2811.84 1.84051e-14 1029.5)
(8601.04 -3577.29 5.83378e-15 -3237.01 -1.12343e-14 1237.85)
(9470.25 -3600 -1.38628e-16 -3372.15 7.1251e-16 1407.25)
(10052.1 -3506.01 7.63702e-14 -3348.74 2.81321e-14 1546.92)
(10446.6 -3354.89 -1.26004e-14 -3237.99 -4.46196e-15 1663.52)
(10715.1 -3179.38 1.83451e-14 -3080.35 9.13753e-16 1761.87)
(10892.7 -2998.66 1.30633e-14 -2902.2 -8.73741e-16 1843.97)
(10970.2 -2874.2 4.25359e-14 -2724.86 9.93839e-15 1902.77)
(3099.12 -2567.67 4.53557e-14 2021.1 8.13905e-14 1181.59)
(6901.47 -3219.61 3.29184e-15 -726.449 1.09526e-13 1425)
(9012.69 -3428.51 7.69633e-16 -2153.53 -9.2245e-16 1582.88)
(10269.7 -3406.06 1.17447e-13 -2862.44 4.22349e-14 1709.38)
(11033.2 -3275.01 9.63385e-14 -3180.23 4.83072e-14 1812.22)
(11497.2 -3096.61 8.57447e-14 -3276.8 4.20239e-14 1897.01)
(11773.2 -2902.48 1.14576e-14 -3245.87 4.48976e-15 1967.84)
(11928 -2709.19 -1.03883e-13 -3141.57 -5.02778e-14 2027.65)
(11999 -2527.2 3.94868e-14 -2999.98 3.21042e-14 2076.69)
(11972.3 -2422.14 2.81594e-14 -2851.79 1.35408e-14 2104.73)
(5185.07 -4103.27 -8.32248e-15 3524.49 8.42699e-15 2009.9)
(8841.52 -3775.49 -2.65399e-14 279.073 2.40867e-14 2104.75)
(10797.3 -3438.85 -6.22247e-14 -1450.45 -3.41918e-14 2156.96)
(11889.2 -3111.92 2.53097e-13 -2361.28 8.55743e-14 2198.75)
(12493.9 -2812.35 1.24126e-16 -2818.89 -2.02823e-16 2232.7)
(12811.6 -2544.63 -8.80229e-14 -3015.27 -4.65312e-14 2260.69)
(12955.6 -2307.96 -6.53004e-14 -3057.2 -3.54928e-14 2284.25)
(12994.2 -2099.26 -3.65891e-14 -3006.19 -1.83336e-14 2304.91)
(12968.2 -1915.59 -3.2102e-14 -2902.83 3.54974e-15 2322.77)
(12876.1 -1824.87 6.64392e-14 -2791.24 6.72335e-15 2327.28)
(5624.68 -251.069 4.87645e-14 10.172 3.10341e-15 1300.35)
(6117.6 -222.8 3.7595e-15 191.833 5.65149e-15 1456.02)
(6561.12 -199.907 -7.83758e-14 355.119 2.44667e-15 1596.06)
(6963.02 -179.507 -2.80573e-14 507.082 -1.25174e-16 1723.87)
(7328.23 -161.096 -4.67557e-15 653.274 -8.09673e-15 1841.88)
(7660.85 -144.375 0 798.162 0 1952.08)
(7964.36 -129.109 0 945.355 0 2056.09)
(8241.73 -115.078 3.18197e-14 1097.87 2.51551e-16 2155.29)
(8495.44 -102.058 1.39137e-15 1258.37 2.30504e-15 2250.88)
(8727.51 -89.8221 6.59377e-14 1429.34 6.90648e-16 2343.89)
(8939.54 -78.1403 3.77093e-15 1613.23 5.79475e-15 2435.25)
(9132.71 -66.7757 -1.42733e-15 1812.57 -1.68961e-15 2525.83)
(9307.72 -55.4798 3.35461e-15 2030.13 4.18622e-15 2616.43)
(9464.86 -43.9846 -1.03048e-13 2268.93 -1.80024e-15 2707.8)
(9603.89 -31.9951 3.3427e-14 2532.43 3.14997e-17 2800.69)
(9724.04 -19.2118 1.22975e-16 2824.52 2.77259e-18 2895.82)
(9823.98 -5.52886 -3.41679e-14 3149.43 -8.75435e-16 2993.86)
(9901.97 8.05993 3.37451e-14 3510.91 9.69608e-16 3095.28)
(9956.93 16.6168 -6.49139e-14 3909.09 -7.20119e-15 3199.85)
(10016.1 6.65481 -3.33941e-14 4339.37 2.55289e-15 3312.8)
(5846.67 -1163.4 7.90181e-14 -185.891 3.83417e-15 1306.33)
(6302.76 -1039.41 1.12337e-14 24.5188 6.40724e-15 1460.14)
(6711.52 -938.035 -2.23205e-14 208.595 2.68443e-15 1596.95)
(7086.09 -847.904 9.67862e-14 377.977 7.45529e-15 1722.48)
(7429.08 -767.551 -2.4062e-15 538.787 -2.86081e-15 1838.74)
(7743.39 -695.805 -9.6717e-14 695.927 -4.58754e-15 1947.53)
(8031.65 -631.554 9.39718e-15 853.326 5.5882e-15 2050.38)
(8296.23 -573.722 0 1014.26 0 2148.58)
(8539.15 -521.269 3.46894e-15 1181.61 2.47065e-15 2243.25)
(8762.09 -473.194 7.96744e-15 1358.01 4.67201e-15 2335.41)
(8966.37 -428.529 5.03818e-14 1546.05 1.16643e-14 2425.94)
(9152.95 -386.321 7.15927e-16 1748.38 4.76757e-17 2515.69)
(9322.43 -345.616 -2.89694e-14 1967.79 1.45527e-15 2605.44)
(9475.03 -305.439 3.41275e-14 2207.35 1.76967e-15 2695.93)
(9610.58 -264.784 3.46983e-14 2470.48 2.04597e-15 2787.94)
(9728.58 -222.648 -3.41058e-14 2761.02 -2.27592e-15 2882.22)
(9828.17 -178.131 -3.40589e-14 3083.47 -2.58361e-15 2979.61)
(9907.95 -130.463 -6.73114e-14 3443.6 -5.80954e-15 3081.13)
(9964.51 -78.0663 -6.03428e-16 3850.94 -1.76386e-17 3188.18)
(10023.9 -15.0002 1.99054e-14 4337.85 1.46436e-14 3314.26)
(6342.01 -1891.79 2.68697e-14 -469.736 1.24929e-15 1355.14)
(6726.59 -1700.24 1.08079e-14 -224.138 3.9779e-15 1500.56)
(7063.24 -1542.15 -8.66853e-14 -12.8752 -2.87516e-15 1627.01)
(7378.24 -1399.98 1.80859e-14 181.023 -2.89345e-15 1744.45)
(7671.73 -1272.03 1.07322e-13 363.348 9.72493e-15 1854.25)
(7944.71 -1156.94 -1.00729e-13 539.024 -6.41256e-15 1957.79)
(8198.35 -1053.28 -3.4009e-14 712.16 -1.35253e-15 2056.27)
(8433.77 -959.574 6.48423e-14 886.265 2.67333e-15 2150.78)
(8652.05 -874.309 -5.15552e-14 1064.44 2.73406e-15 2242.27)
(8854.08 -795.98 -6.81147e-14 1249.54 -3.64679e-15 2331.61)
(9040.59 -723.095 6.54212e-14 1444.32 3.78597e-15 2419.6)
(9212.08 -654.169 1.00645e-13 1651.54 6.6686e-15 2506.99)
(9368.8 -587.701 7.37383e-16 1874.09 8.07775e-17 2594.51)
(9510.73 -522.156 -3.40692e-14 2115.06 -2.89293e-15 2682.88)
(9637.54 -455.946 3.34855e-14 2377.92 3.20881e-15 2772.8)
(9748.56 -387.407 1.17759e-16 2666.63 1.28456e-17 2865.04)
(9842.57 -314.691 -3.38217e-14 2986.01 -4.20115e-15 2960.44)
(9917.4 -235.269 2.92596e-14 3342.42 5.37941e-15 3059.96)
(9968.77 -144.156 1.41538e-14 3744.94 1.24359e-14 3164.7)
(10023.5 -28.6122 2.50315e-17 4218.95 -1.93445e-17 3286.72)
(7044.22 -2454.61 0 -858.411 0 1427.49)
(7330.32 -2222.15 1.35226e-14 -570.135 4.90847e-15 1560.04)
(7568.84 -2029.02 3.08583e-14 -324.191 1.79364e-15 1671.84)
(7801.17 -1852.91 3.51228e-14 -98.2999 2.0785e-15 1777.58)
(8024.97 -1692.24 0 112.834 0 1877.96)
(8239.18 -1545.96 -2.05456e-14 313.856 2.40569e-15 1973.78)
(8443.13 -1412.86 -5.20503e-14 508.861 -9.26381e-15 2065.84)
(8636.45 -1291.49 -6.54084e-14 701.501 -3.91937e-15 2154.91)
(8818.94 -1180.24 -1.20264e-14 895.087 -3.72964e-15 2241.7)
(8990.46 -1077.4 5.01508e-14 1092.69 -1.25441e-15 2326.88)
(9150.9 -981.197 1.76551e-14 1297.24 -2.89242e-15 2411.11)
(9300.09 -889.811 1.75057e-14 1511.64 5.41555e-15 2495.01)
(9437.74 -801.349 -1.09154e-14 1738.88 3.32826e-15 2579.22)
(9563.41 -713.827 2.62146e-14 1982.12 1.98436e-15 2664.35)
(9676.42 -625.127 2.72631e-14 2244.84 3.02892e-15 2751.06)
(9775.72 -532.904 -3.35134e-14 2531.04 -4.98807e-15 2840.02)
(9859.77 -434.355 -1.04876e-16 2845.45 -1.77929e-17 2931.97)
(9926.2 -325.546 9.36995e-14 3193.94 1.96371e-14 3027.72)
(9971.33 -199.438 -2.66134e-14 3583.73 -8.3964e-15 3128.09)
(10022.2 -39.5332 -3.57853e-14 4036.96 -2.0362e-14 3244.43)
(7905.47 -2831.25 3.69056e-14 -1305.28 -4.13975e-15 1523.12)
(8072.38 -2588.34 -1.88057e-14 -976.991 -6.48841e-15 1637.4)
(8195.29 -2384.5 -8.38189e-14 -695.207 -1.19743e-14 1730.79)
(8328.69 -2194.94 4.46248e-14 -435.281 7.58687e-15 1821.56)
(8468.24 -2018.59 1.13495e-13 -192.428 2.09826e-14 1909.8)
(8610.62 -1855.25 -3.46183e-14 37.2941 -2.68332e-15 1995.67)
(8753.31 -1704.37 0 257.627 0 2079.45)
(8894.3 -1565.01 3.31103e-14 472.125 2.66057e-15 2161.48)
(9031.99 -1435.84 -3.37695e-14 684.149 -1.19428e-14 2242.19)
(9165.08 -1315.29 -4.5253e-14 896.88 -7.05106e-15 2321.99)
(9292.47 -1201.58 -4.39925e-14 1113.38 2.55285e-16 2401.35)
(9413.2 -1092.77 -5.90213e-14 1336.65 -4.99182e-15 2480.73)
(9526.33 -986.738 6.77022e-14 1569.72 3.90449e-15 2560.63)
(9630.88 -881.183 9.12137e-14 1815.78 1.21734e-14 2641.54)
(9725.77 -773.544 9.05336e-15 2078.23 2.01299e-15 2724)
(9809.63 -660.878 -2.44558e-14 2360.89 -4.63172e-15 2808.58)
(9880.76 -539.586 1.59824e-14 2668.1 1.74213e-15 2895.89)
(9936.96 -404.709 7.61729e-15 3004.91 2.06878e-16 2986.59)
(9975.03 -247.769 7.76044e-14 3377.16 1.68376e-14 3081.27)
(10021.2 -49.1855 2.98594e-14 3805.87 3.18019e-14 3190.86)
(8870.28 -3003.04 3.25406e-14 -1758.53 2.96509e-15 1641.17)
(8906 -2782.72 1.98469e-15 -1404.57 4.06575e-16 1731.1)
(8905.89 -2593.99 -5.47009e-14 -1092.9 -1.1673e-14 1803)
(8931.8 -2413.04 -1.40978e-13 -802.804 -2.51743e-14 1875.92)
(8978.62 -2239.55 4.74159e-14 -530.036 9.12476e-15 1949.67)
(9040.99 -2074.65 7.02697e-14 -271.982 7.17041e-15 2023.62)
(9114.69 -1918.98 -3.38658e-14 -25.7713 -3.37594e-15 2097.44)
(9196.17 -1772.48 1.72245e-14 211.66 -2.0335e-15 2171.04)
(9282.49 -1634.52 7.95155e-14 443.434 1.89432e-14 2244.45)
(9371.17 -1503.98 -9.79346e-14 672.641 -1.12234e-14 2317.8)
(9460.11 -1379.37 -3.60014e-14 902.313 -4.7297e-15 2391.33)
(9547.49 -1258.86 1.40679e-13 1135.44 1.52237e-14 2465.29)
(9631.71 -1140.3 -2.37572e-14 1375.02 -1.18906e-14 2540.01)
(9711.23 -1021.24 -9.81243e-14 1624.11 -1.68402e-14 2615.85)
(9784.54 -898.797 -2.22958e-14 1885.93 -3.7927e-15 2693.19)
(9850.06 -769.6 -8.62661e-14 2163.95 -1.84743e-14 2772.47)
(9906.01 -629.457 -1.28089e-15 2461.96 -2.60119e-16 2854.15)
(9950.36 -472.645 1.04531e-13 2784.18 2.79937e-14 2938.74)
(9980.22 -289.527 2.33524e-14 3135.38 1.05522e-14 3026.68)
(10020.2 -57.7249 5.16174e-15 3535.27 -2.30339e-15 3128.19)
(9877.81 -2964.98 -3.50145e-14 -2164.02 -4.57638e-15 1780.11)
(9780.47 -2799.34 3.5955e-14 -1810.67 6.64694e-15 1839.19)
(9660.64 -2650.49 2.5333e-14 -1482.51 9.47223e-15 1887.26)
(9578.84 -2499.87 -3.64969e-14 -1172.24 -5.39348e-15 1939.99)
(9531 -2347.88 -4.0565e-14 -876.236 -1.52965e-14 1997.25)
(9510.38 -2197.34 1.92402e-14 -594.095 7.13936e-15 2057.61)
(9511.5 -2050.36 7.44566e-14 -324.515 1.84549e-14 2120.07)
(9529.63 -1908.16 -1.22577e-13 -65.464 -2.79624e-14 2184.04)
(9560.67 -1771.1 -7.55661e-14 185.53 -1.80047e-14 2249.12)
(9601.12 -1638.84 1.1641e-13 431.156 2.61111e-14 2315.14)
(9647.94 -1510.43 -2.99088e-14 674.187 -1.00812e-14 2382.03)
(9698.55 -1384.39 9.68252e-14 917.416 1.55089e-14 2449.84)
(9750.64 -1258.78 6.20581e-14 1163.64 1.47062e-14 2518.68)
(9802.2 -1131.13 -8.18804e-14 1415.68 -1.47792e-14 2588.74)
(9851.34 -998.478 2.37046e-14 1676.4 3.52498e-15 2660.25)
(9896.27 -857.157 2.68812e-15 1948.78 6.4102e-16 2733.47)
(9935.17 -702.575 -1.15988e-13 2235.95 -3.05214e-14 2808.72)
(9966.16 -528.431 3.10755e-14 2541.28 1.00159e-14 2886.33)
(9986.68 -324.138 4.09567e-14 2868.46 1.21128e-14 2966.57)
(10019.1 -64.9864 3.11309e-15 3234.81 -5.51679e-16 3058.6)
(10866.8 -2727.37 2.96429e-15 -2470.68 9.08934e-16 1937.57)
(10645.1 -2643.13 -3.72762e-14 -2154.66 -8.52302e-15 1959.33)
(10418.7 -2554.97 -1.34618e-14 -1830.15 2.61792e-15 1981.97)
(10236.9 -2454.02 0 -1515.17 0 2012.72)
(10099 -2340.9 0 -1207.16 0 2051.95)
(9997.57 -2220.05 -9.44797e-14 -908.912 -2.02402e-14 2097.38)
(9926.75 -2095.11 9.69857e-14 -621.491 1.43188e-14 2147.37)
(9881.08 -1968.72 1.95226e-13 -344.539 3.44747e-14 2200.74)
(9855.73 -1842.46 -1.53668e-13 -76.7407 -2.24748e-14 2256.69)
(9846.4 -1716.98 -1.22111e-13 183.793 -2.35437e-14 2314.66)
(9849.34 -1592.13 6.41684e-14 439.269 1.07738e-14 2374.29)
(9861.26 -1467.01 1.33629e-14 692.042 -3.25911e-16 2435.38)
(9879.33 -1340.04 4.87699e-14 944.522 1.57537e-14 2497.81)
(9901.04 -1208.99 1.09141e-13 1199.11 2.79365e-14 2561.57)
(9924.22 -1070.94 3.66343e-15 1458.19 9.71904e-16 2626.71)
(9946.91 -922.162 -2.27468e-14 1724.1 -7.29301e-15 2693.31)
(9967.33 -757.821 0 1999.14 0 2761.49)
(9983.77 -571.205 -2.50896e-14 2285.69 -4.42944e-15 2831.41)
(9994.14 -350.996 1.11588e-14 2586.24 1.25875e-15 2903.16)
(10017.9 -70.7822 1.05804e-14 2914.58 4.70133e-16 2984.43)
(11784.7 -2308.93 -3.46591e-15 -2631.77 -1.20712e-15 2112.22)
(11456.9 -2321.97 2.94232e-14 -2393.1 1.35433e-14 2091.64)
(11143.4 -2309.71 -3.1514e-14 -2096.63 -1.35858e-14 2087.71)
(10875.7 -2274.41 -3.02438e-14 -1796.37 -1.26226e-14 2095.24)
(10657.5 -2215.78 9.41839e-14 -1491.84 3.08552e-14 2115.16)
(10482.2 -2139.2 5.88429e-14 -1189.58 2.2825e-14 2144.44)
(10343.9 -2049.52 -8.19168e-14 -893.566 -2.51914e-14 2180.84)
(10237.1 -1950.67 -2.30087e-14 -605.654 5.51888e-15 2222.65)
(10156.9 -1845.5 1.94449e-14 -326.195 2.22238e-15 2268.61)
(10098.4 -1735.79 2.46901e-14 -54.5214 -3.42683e-15 2317.81)
(10057.4 -1622.32 -6.58571e-14 210.655 -2.35062e-14 2369.55)
(10030.3 -1504.94 2.09268e-15 470.972 5.77804e-16 2423.36)
(10013.6 -1382.65 -7.27485e-14 728.22 -1.35113e-14 2478.89)
(10004.7 -1253.64 -3.25733e-15 984.2 -9.33586e-16 2535.9)
(10000.9 -1115.24 3.10745e-14 1240.62 9.61416e-15 2594.21)
(10000.4 -963.83 -2.3186e-15 1499.03 -6.69683e-16 2653.71)
(10001.3 -794.57 1.01558e-13 1760.72 3.5133e-14 2714.32)
(10002.4 -600.523 -1.27801e-14 2026.81 -2.71334e-15 2775.97)
(10002.2 -369.862 -1.2873e-13 2298.27 -5.29904e-14 2838.56)
(10016.6 -75.0499 -2.33678e-14 2584.55 -2.97834e-14 2907.95)
(12613.7 -1724.86 -4.93128e-15 -2614.91 -3.64316e-15 2307.41)
(12205.1 -1839.6 -3.29442e-14 -2457.35 -1.801e-14 2249.47)
(11813 -1919.89 4.0507e-14 -2217.39 1.3498e-14 2214.36)
(11468.3 -1966.37 -1.12743e-13 -1961.56 -2.696e-14 2193.86)
(11176.8 -1978.36 -1.09004e-13 -1687.69 -2.8983e-14 2189.79)
(10933.3 -1961.12 7.06904e-14 -1403.56 1.06628e-14 2199.17)
(10732.4 -1920.26 7.51297e-14 -1116.01 8.40847e-15 2219.18)
(10568.9 -1860.87 9.61802e-14 -829.847 2.02755e-14 2247.47)
(10437.4 -1787.09 -8.20562e-14 -547.963 -2.3082e-14 2282.17)
(10332.9 -1701.97 1.65166e-17 -271.756 -8.08864e-16 2321.81)
(10250.9 -1607.4 -1.94355e-15 -1.54717 1.54712e-15 2365.23)
(10187.1 -1504.2 -8.79766e-14 263.031 -1.96805e-14 2411.57)
(10137.9 -1392.16 0 522.723 0 2460.14)
(10100 -1270.07 -2.83156e-14 778.399 -1.2783e-14 2510.41)
(10070.9 -1135.73 -1.13444e-16 1030.85 8.09612e-17 2561.95)
(10048.4 -985.873 -5.12666e-14 1280.58 -1.59143e-14 2614.37)
(10030.8 -815.876 2.83635e-14 1527.68 9.92167e-15 2667.34)
(10017.2 -618.876 3.07134e-14 1771.65 7.55565e-15 2720.5)
(10007.2 -382.666 1.11389e-15 2011.35 7.89317e-17 2773.51)
(10013.9 -78.3406 -8.05088e-15 2249.8 -3.56144e-15 2830.08)
(13189.5 -1221 5.11003e-14 -2551.13 1.89018e-14 2455)
(12739.5 -1394.32 -3.47996e-14 -2337.82 -2.04535e-14 2400.39)
(12291.1 -1549.05 -2.28985e-14 -2168.33 -7.52365e-15 2336.02)
(11910.7 -1652.39 3.16396e-14 -1956.4 1.7499e-14 2297.15)
(11582.8 -1714.17 -4.8271e-14 -1716.97 -3.76344e-14 2276.73)
(11301.4 -1741.32 -3.45541e-14 -1459.97 -2.39739e-14 2271.1)
(11061.9 -1739.71 -5.75643e-14 -1193.4 -2.07794e-14 2277.35)
(10859.8 -1714.49 -4.03811e-15 -923.23 5.89829e-15 2293.05)
(10690.6 -1669.97 1.02111e-13 -653.571 4.10716e-14 2316.24)
(10550.1 -1609.5 -5.58124e-15 -386.982 -1.09889e-15 2345.32)
(10433.9 -1535.38 4.8682e-14 -124.886 2.03161e-14 2379.01)
(10338.3 -1448.86 -4.15885e-15 132.049 -8.78979e-16 2416.24)
(10259.7 -1350.2 0 383.593 0 2456.16)
(10195.1 -1238.63 -1.87776e-14 629.668 -7.18142e-15 2498.03)
(10141.9 -1112.41 1.78542e-14 870.1 6.40771e-15 2541.24)
(10098.2 -968.751 -1.52745e-15 1104.39 -5.13362e-16 2585.21)
(10062.5 -803.518 -9.64404e-15 1331.46 -4.75672e-15 2629.38)
(10034.5 -610.416 2.97237e-16 1549.42 2.75329e-16 2673.2)
(10014.5 -377.903 -2.96552e-16 1755.06 1.18642e-16 2716.06)
(10012 -77.9668 -2.9158e-16 1944.87 -7.55595e-17 2759.28)
(13105.1 -862.506 4.3002e-14 -2330.3 2.01158e-14 2486.49)
(12798 -1056.41 0 -2227.98 0 2439.24)
(12413.2 -1238.07 -3.48138e-14 -2105.17 -1.16444e-14 2378.77)
(12066.5 -1373.93 6.38045e-28 -1927.79 2.26791e-28 2339.71)
(11756.7 -1466.96 7.69568e-29 -1715.96 7.96463e-29 2317.09)
(11482.4 -1523.54 4.82058e-28 -1481.6 2.36459e-28 2307.88)
(11241.7 -1549.45 5.58936e-28 -1233.58 1.95576e-28 2309.56)
(11032.1 -1549.57 -3.0226e-14 -978.601 -7.57217e-15 2320.03)
(10850.8 -1527.94 0 -721.54 0 2337.53)
(10695 -1487.74 2.89158e-14 -465.783 7.17715e-15 2360.59)
(10561.6 -1431.25 -2.26238e-28 -213.582 -3.92407e-29 2388)
(10447.6 -1359.87 -2.78556e-14 33.5885 -7.3544e-15 2418.73)
(10350.3 -1274.08 2.7403e-14 274.702 7.64615e-15 2451.92)
(10267.4 -1173.44 2.97217e-28 508.895 1.02723e-28 2486.83)
(10196.8 -1056.65 -2.66246e-14 735.191 -8.6461e-15 2522.76)
(10137.1 -921.422 -1.82365e-28 952.245 -6.49979e-29 2559.08)
(10087.5 -764.278 2.59944e-14 1158.05 1.02679e-14 2595.12)
(10048 -579.795 2.57356e-14 1349.59 1.13644e-14 2630.21)
(10020 -357.866 -1.19634e-28 1522.12 -7.28704e-29 2663.56)
(10010.2 -73.5142 -3.97945e-29 1668.74 -8.65097e-29 2695.14)
(13051.9 -516.054 1.83655e-14 -2024 -1.34447e-15 2544.89)
(12808.5 -719.029 -1.84314e-14 -1991.16 -1.55691e-14 2496.31)
(12481.4 -916.79 -5.34542e-14 -1926.81 -2.7375e-14 2435.68)
(12169.9 -1077.1 0 -1798.54 0 2393.38)
(11879.9 -1197.68 1.45023e-14 -1627.35 -3.65953e-15 2365.96)
(11615 -1282.17 -4.5056e-15 -1427.26 -1.67907e-14 2351.01)
(11376.1 -1335.12 -4.94183e-14 -1208.34 -2.11591e-14 2346.4)
(11162.6 -1360.72 -6.62306e-14 -978.099 -3.14816e-14 2350.28)
(10973.4 -1362.59 2.98801e-14 -742.203 8.09863e-15 2361.05)
(10806.6 -1343.63 -3.45569e-14 -504.851 -1.99991e-14 2377.33)
(10660.2 -1306.06 -1.70123e-14 -269.143 -9.25331e-15 2397.94)
(10532.2 -1251.31 -3.3522e-14 -37.4117 -1.70647e-14 2421.86)
(10420.4 -1180.06 -3.30561e-14 188.469 -1.568e-14 2448.2)
(10323.1 -1092.19 -1.63145e-14 406.794 -7.17943e-15 2476.12)
(10238.8 -986.805 -3.22383e-14 615.751 -1.31086e-14 2504.9)
(10166.6 -862.167 -3.18782e-14 813.135 -1.19393e-14 2533.77)
(10106 -715.505 -2.61735e-14 996.033 -1.08045e-14 2562.01)
(10057.8 -542.367 -1.5603e-14 1160.41 -4.95575e-15 2588.81)
(10023.7 -334.142 -1.54312e-14 1300.47 -4.55469e-15 2613.27)
(10008.4 -68.4717 -5.08097e-15 1407.54 -4.25671e-15 2634.45)
(12925.8 -227.131 1.60563e-13 -1748.7 7.65244e-14 2579.33)
(12730.9 -425.142 1.66259e-14 -1758.88 1.4887e-14 2532.02)
(12456.9 -625.559 -8.62804e-14 -1735.87 -3.99458e-14 2474.09)
(12185.9 -798.04 1.31989e-27 -1649.27 5.40992e-28 2431.52)
(11924.2 -936.69 4.87195e-14 -1515.85 8.1179e-15 2401.94)
(11677.8 -1042.13 0 -1349.09 0 2383.54)
(11449.4 -1117.02 1.73194e-14 -1159.42 1.22611e-14 2374.61)
(11240.4 -1164.38 -6.15258e-14 -954.863 -1.82772e-14 2373.58)
(11050.9 -1187.09 1.4773e-27 -741.603 5.14148e-28 2379.06)
(10880.2 -1187.63 5.89141e-14 -524.45 1.73808e-14 2389.79)
(10727.4 -1167.94 -1.67688e-14 -307.164 -9.40854e-15 2404.66)
(10591.1 -1129.41 -1.89156e-28 -92.7676 -5.73247e-29 2422.69)
(10470.1 -1072.8 -1.14791e-27 116.159 -3.70924e-28 2442.98)
(10363.1 -998.248 1.62871e-14 317.203 7.45056e-15 2464.68)
(10269.2 -905.233 -5.56445e-28 507.839 -2.0312e-28 2487.02)
(10188 -792.538 -5.32826e-14 685.144 -2.09853e-14 2509.19)
(10119.6 -658.115 4.59665e-28 845.475 1.90463e-28 2530.41)
(10065 -498.511 3.64456e-14 984.067 1.90534e-14 2549.79)
(10026.6 -306.612 -1.55461e-14 1094.44 -5.10686e-15 2566.4)
(10006.8 -62.7252 -5.12453e-15 1166.6 -4.89847e-15 2578.49)
(12746.7 8.4917 2.87691e-14 -1496.56 2.83992e-14 2596.19)
(12592.6 -179.869 4.98762e-14 -1536.06 2.79728e-14 2551.5)
(12365.3 -374.704 3.11371e-14 -1541.87 2.80303e-14 2497.72)
(12133.9 -549.754 1.68815e-28 -1488.33 3.39231e-29 2456.67)
(11903.8 -697.503 6.53659e-14 -1387.92 3.78725e-14 2426.73)
(11680.8 -816.33 -1.5754e-14 -1252.19 1.93616e-15 2406.59)
(11468.9 -907.012 -1.49596e-14 -1090.96 1.86559e-15 2394.9)
(11270.5 -971.258 3.312e-14 -912.193 2.29162e-14 2390.38)
(11086.9 -1011.02 3.0167e-14 -722.32 9.53569e-15 2391.82)
(10918.3 -1028.17 4.60683e-14 -526.513 1.95204e-14 2398.11)
(10764.7 -1024.29 3.28813e-14 -328.991 1.89933e-14 2408.24)
(10625.5 -1000.6 -1.21069e-14 -133.297 -5.51144e-16 2421.27)
(10500 -957.875 4.54963e-15 57.4391 6.89043e-15 2436.33)
(10387.7 -896.407 1.61621e-14 240.237 7.67571e-15 2452.61)
(10288.3 -815.999 5.92396e-14 412.005 2.46692e-14 2469.29)
(10201.6 -715.925 1.59452e-14 569.259 6.64857e-15 2485.58)
(10128.2 -594.822 5.8761e-30 707.819 2.59809e-30 2500.63)
(10069.7 -450.2 5.76203e-14 822.437 2.43131e-14 2513.56)
(10028.5 -276.399 3.11286e-14 906.233 1.12213e-14 2523.39)
(10005.4 -56.4486 1.02729e-14 948.217 1.09603e-14 2527.76)