/*--------------------------------*- C++ -*----------------------------------*\
  =========                 |
  \\      /  F ield         | OpenFOAM: The Open Source CFD Toolbox
   \\    /   O peration     | Website:  https://openfoam.org
    \\  /    A nd           | Version:  9
     \\/     M anipulation  |
\*---------------------------------------------------------------------------*/
FoamFile
{
    format      ascii;
    class       volScalarField;
    location    "80";
    object      sigmayz;
}
// * * * * * * * * * * * * * * * * * * * * * * * * * * * * * * * * * * * * * //

dimensions      [1 -1 -2 0 0 0 0];

internalField   nonuniform List<scalar> 
1000
(
6.03408e-14
8.12062e-14
-2.35081e-14
-1.91127e-14
-1.8123e-14
7.00924e-15
-8.48298e-14
5.84966e-14
-3.03136e-14
0
1.80773e-14
0
6.65646e-14
-1.22094e-13
-5.56767e-14
5.48224e-14
4.43001e-14
1.00577e-13
0
0
0
0
6.66947e-14
1.18992e-14
1.05321e-16
-5.27773e-14
4.35273e-14
-3.95282e-14
-4.17344e-15
-1.50859e-14
6.89548e-15
-1.56287e-14
-3.17967e-14
7.30981e-15
5.68542e-14
-4.72052e-14
-4.23528e-14
-9.51066e-14
-1.22464e-14
1.75475e-14
6.18756e-16
1.72787e-16
-8.54241e-14
-1.63455e-15
1.66119e-15
4.32667e-14
-1.14961e-15
3.70383e-14
-1.63896e-15
-2.39725e-14
1.09726e-14
-7.79727e-17
2.53536e-17
2.77269e-16
-4.22589e-14
1.07208e-16
3.4396e-14
7.48241e-14
1.39992e-14
-2.15504e-14
-1.46733e-14
9.74546e-15
2.03272e-14
-2.16689e-15
3.10904e-14
-2.77309e-14
8.92399e-15
-2.52825e-14
-6.82046e-15
-1.83922e-14
-2.32679e-14
-2.91586e-14
4.16252e-16
7.01374e-15
4.61085e-14
-4.63494e-15
-2.17362e-16
-2.22582e-14
3.60941e-15
6.46449e-15
-2.09396e-14
-2.8428e-14
1.261e-14
1.3335e-14
-7.10144e-15
8.30984e-15
5.92172e-15
2.26729e-14
5.19972e-15
-1.20507e-14
-2.92823e-14
-2.10354e-14
1.65246e-14
1.00202e-14
-3.35185e-16
-2.9765e-15
6.5176e-15
2.36735e-15
-8.1653e-15
-5.10044e-15
-6.68028e-14
5.20792e-15
-1.61781e-14
0
-1.75742e-15
-1.03086e-14
5.42164e-16
-7.14458e-15
3.19725e-15
8.88967e-15
-6.15632e-14
3.18251e-14
-2.06039e-14
-3.7517e-15
0
-1.18214e-14
1.61424e-15
1.90148e-18
4.19446e-16
4.55085e-15
-3.63213e-14
3.7788e-14
1.62238e-14
-6.02867e-15
0
-1.45725e-14
-1.83526e-14
1.10439e-14
-2.01014e-19
-8.03901e-15
4.22076e-14
-1.77289e-14
1.77974e-14
0
-1.12196e-14
9.92882e-15
-3.25261e-15
-1.62481e-15
6.08784e-15
1.09989e-14
-3.73313e-15
1.38303e-14
-2.12905e-14
2.02791e-14
1.87359e-16
1.46988e-14
9.49662e-15
0
-6.96095e-15
6.4517e-15
-1.26111e-13
-4.54011e-14
-3.97086e-14
-1.08327e-14
3.14651e-14
-1.8827e-14
2.80361e-17
-2.18789e-14
-6.18297e-19
-2.10621e-14
-4.84519e-14
-1.00041e-15
-9.38117e-16
-5.60947e-14
1.55904e-14
-3.26968e-14
5.74844e-14
4.01002e-18
1.21197e-14
-1.71905e-14
-3.19236e-14
-4.85646e-14
1.8327e-14
-1.11795e-14
7.08267e-16
2.80535e-14
-4.39996e-15
8.61921e-16
-9.00144e-16
9.8622e-15
8.09827e-14
1.09084e-13
-9.18444e-16
4.20715e-14
4.81089e-14
4.18546e-14
4.42224e-15
-5.00751e-14
3.20317e-14
1.34867e-14
8.39717e-15
2.3989e-14
-3.40501e-14
8.52625e-14
-2.01494e-16
-4.6342e-14
-3.54253e-14
-1.82566e-14
3.62111e-15
6.60437e-15
3.08524e-15
5.63611e-15
2.45225e-15
-1.21591e-16
-8.09145e-15
0
0
2.47939e-16
2.31159e-15
6.82987e-16
5.82887e-15
-1.70359e-15
4.23664e-15
-1.78675e-15
3.79812e-18
2.75482e-18
-8.70198e-16
9.64192e-16
-7.07581e-15
2.48029e-15
3.78671e-15
6.38869e-15
2.68882e-15
7.41213e-15
-2.85865e-15
-4.55476e-15
5.59025e-15
0
2.4764e-15
4.68804e-15
1.17058e-14
4.75743e-17
1.50055e-15
1.75635e-15
2.03204e-15
-2.26123e-15
-2.56807e-15
-5.77704e-15
-1.82314e-17
1.44779e-14
1.2268e-15
3.96466e-15
-2.81659e-15
-2.90225e-15
9.66088e-15
-6.35678e-15
-1.33368e-15
2.63722e-15
2.77859e-15
-3.6083e-15
3.74737e-15
6.60805e-15
8.0649e-17
-2.87102e-15
3.18585e-15
1.27621e-17
-4.17569e-15
5.31902e-15
1.22177e-14
-1.89028e-17
0
4.89157e-15
1.76556e-15
2.04883e-15
0
2.42363e-15
-9.23196e-15
-3.86935e-15
-3.72955e-15
-1.31593e-15
-2.93415e-15
5.43569e-15
3.3977e-15
1.93758e-15
2.9771e-15
-4.95524e-15
-1.76836e-17
1.9494e-14
-8.31849e-15
-2.03198e-14
-4.18363e-15
-6.46356e-15
-1.18789e-14
7.53963e-15
2.08719e-14
-2.64974e-15
0
2.62875e-15
-1.19387e-14
-7.01903e-15
3.3094e-16
-4.91345e-15
3.76396e-15
1.20463e-14
2.03198e-15
-4.56767e-15
1.79747e-15
2.39118e-16
1.68126e-14
3.15987e-14
2.91736e-15
4.03765e-16
-1.16007e-14
-2.50003e-14
9.06988e-15
7.08928e-15
-3.33719e-15
-2.06136e-15
1.8884e-14
-1.11075e-14
-4.68752e-15
1.50091e-14
-1.19774e-14
-1.67087e-14
-3.72993e-15
-1.84212e-14
-2.60613e-16
2.78621e-14
1.04582e-14
-2.21858e-15
-4.51957e-15
6.59069e-15
9.43427e-15
-5.34216e-15
-1.52446e-14
7.11731e-15
1.83689e-14
-2.78267e-14
-1.79291e-14
2.59979e-14
-1.00756e-14
1.53699e-14
1.46674e-14
-1.4621e-14
3.37897e-15
6.40877e-16
-3.03971e-14
9.9548e-15
1.20836e-14
-5.08748e-16
9.03686e-16
-8.45956e-15
2.63908e-15
0
0
-2.01032e-14
1.41749e-14
3.41954e-14
-2.22414e-14
-2.33747e-14
1.06731e-14
-3.72243e-16
1.57568e-14
2.78461e-14
9.70244e-16
-7.0299e-15
0
-4.48679e-15
1.2928e-15
5.96803e-16
-1.20066e-15
1.34881e-14
-1.35289e-14
-1.25704e-14
3.07005e-14
2.2735e-14
-2.50693e-14
5.57348e-15
2.18692e-15
-3.50018e-15
-2.34569e-14
5.75413e-16
-1.33454e-14
-9.30913e-16
9.63072e-15
-6.69056e-16
3.48432e-14
-2.73898e-15
-5.27173e-14
-2.96606e-14
-3.63257e-15
-1.79438e-14
1.34224e-14
-2.67565e-14
-2.8789e-14
1.05367e-14
8.2704e-15
2.01073e-14
-2.2952e-14
-8.11951e-16
1.56163e-15
-1.95121e-14
0
-1.2844e-14
8.69167e-17
-1.59538e-14
9.85711e-15
7.61107e-15
8.46353e-17
-3.63651e-15
1.8804e-14
-2.03818e-14
-7.47977e-15
1.74373e-14
-3.75461e-14
-2.39169e-14
-2.06784e-14
5.91815e-15
4.09234e-14
-1.08716e-15
2.02702e-14
-8.69066e-16
0
-7.18342e-15
6.41618e-15
-5.06492e-16
-4.66503e-15
2.69815e-16
1.1377e-16
-7.98017e-17
2.00268e-14
0
-1.15758e-14
2.2553e-28
7.95099e-29
2.35575e-28
1.94517e-28
-7.51026e-15
0
7.11487e-15
-3.86181e-29
-7.29001e-15
7.58014e-15
1.02319e-28
-8.57575e-15
-6.44988e-29
1.0192e-14
1.12847e-14
-7.21516e-29
-8.57216e-29
-1.37512e-15
-1.55261e-14
-2.72632e-14
0
-3.69292e-15
-1.67953e-14
-2.10649e-14
-3.13691e-14
8.03176e-15
-1.99726e-14
-9.24522e-15
-1.70592e-14
-1.56857e-14
-7.1879e-15
-1.31369e-14
-1.19791e-14
-1.07231e-14
-4.98641e-15
-4.5902e-15
-4.29658e-15
7.61711e-14
1.48469e-14
-3.97609e-14
5.3818e-28
8.00801e-15
0
1.22347e-14
-1.81351e-14
5.10945e-28
1.72359e-14
-9.40011e-15
-5.68085e-29
-3.67743e-28
7.45821e-15
-2.01436e-28
-2.08168e-14
1.89476e-28
1.88442e-14
-5.14119e-15
-4.93675e-15
2.83234e-14
2.78597e-14
2.79591e-14
3.35414e-29
3.77356e-14
1.98201e-15
1.91487e-15
2.2873e-14
9.4598e-15
1.94299e-14
1.8976e-14
-4.74425e-16
6.97589e-15
7.68257e-15
2.46067e-14
6.66662e-15
2.57765e-30
2.42759e-14
1.1288e-14
1.10346e-14
-1.69668e-14
-1.34449e-14
-1.30877e-14
0
1.17714e-14
2.35435e-14
-2.25555e-14
-1.03496e-14
1.00786e-14
1.01045e-14
1.62914e-28
8.94019e-15
0
-7.86238e-15
0
6.94592e-15
-1.19657e-14
8.70697e-29
4.19538e-29
-9.69305e-30
1.71669e-14
1.27654e-14
-1.32027e-14
3.49006e-28
7.73874e-31
1.19653e-14
1.15351e-14
-1.08796e-14
0
2.04964e-14
-3.16212e-28
-1.49033e-15
1.06117e-14
8.00047e-15
-1.1223e-14
7.18543e-15
1.2269e-14
1.29652e-14
-4.46881e-29
-1.4668e-28
1.19642e-14
1.21179e-14
1.2147e-14
0
1.18516e-14
0
1.12053e-14
0
0
0
9.42814e-15
0
0
8.10059e-15
0
0
0
6.9268e-15
6.83563e-15
6.87186e-15
-2.72542e-14
0
-1.15695e-14
0
-1.13743e-14
-1.1147e-14
0
0
0
-9.73702e-15
-9.32982e-15
-8.92518e-15
0
0
0
-7.55124e-15
0
-7.1797e-15
-7.12679e-15
-7.19495e-15
-4.40603e-14
-1.09447e-14
7.15942e-30
1.11684e-29
1.27751e-14
-2.32455e-14
-2.27647e-14
0
1.18888e-14
2.21984e-15
2.3099e-29
-2.05999e-14
-1.18295e-14
-8.20467e-15
1.2221e-14
-7.68269e-15
5.43911e-29
1.33284e-14
5.15369e-29
-4.79488e-29
1.31892e-14
5.37648e-29
-1.32053e-14
0
1.2892e-14
1.26958e-14
-1.25023e-14
-1.23285e-14
1.21879e-14
-2.93721e-28
-1.25475e-28
2.14066e-29
5.829e-29
3.695e-28
-3.09349e-29
6.07689e-29
-1.30211e-14
-5.20489e-29
-1.46771e-28
-5.27797e-29
-4.15227e-14
-1.47799e-28
-7.05492e-29
9.29904e-29
1.29737e-14
-1.28334e-14
-1.26861e-14
0
1.24337e-14
1.2353e-14
-6.03817e-29
-1.23232e-14
-1.23825e-14
8.58265e-29
1.26549e-14
-2.8564e-30
2.91238e-30
1.34045e-14
-1.47414e-28
-5.38837e-29
-9.62745e-16
-9.50737e-15
-1.30891e-14
0
1.30266e-14
2.24864e-14
-2.22737e-14
-3.13352e-14
1.26308e-14
8.95682e-15
1.1784e-28
8.56409e-15
-1.6743e-14
-8.19254e-15
-1.60725e-14
7.91224e-15
-1.31833e-14
0
-9.38069e-29
0
1.33376e-14
9.10809e-15
-1.3024e-14
2.35832e-29
3.15517e-29
9.20146e-15
3.49912e-14
-1.28535e-14
-2.55672e-14
2.14935e-14
-1.77627e-28
2.1169e-14
1.27541e-14
8.1632e-15
-1.29352e-14
-1.81931e-14
1.3227e-14
1.33996e-14
4.66468e-29
-4.73124e-29
-4.30249e-29
8.74517e-15
1.2254e-28
0
-1.21467e-28
-8.87887e-15
8.83473e-15
1.75334e-14
0
-8.57749e-15
-1.18128e-28
-8.3506e-15
1.64727e-14
8.12943e-15
1.60735e-14
-7.96647e-15
0
1.10045e-28
2.96279e-28
1.85228e-29
-1.24036e-14
4.36925e-29
-4.7205e-29
2.78516e-29
1.30564e-14
-1.30642e-14
-1.30435e-14
0
1.29728e-14
1.29454e-14
-1.90651e-28
-1.29434e-14
-1.29753e-14
0
1.30982e-14
6.62296e-30
-1.06288e-28
1.33474e-14
3.6181e-29
8.57725e-30
8.01814e-15
0
8.03397e-29
0
-2.42269e-29
-3.23461e-29
0
0
0
-1.01551e-28
1.01254e-29
-5.62439e-29
0
0
0
-5.495e-29
0
2.85289e-28
5.52497e-29
5.60048e-29
-2.36333e-14
4.639e-15
1.60953e-29
-2.61551e-29
1.29918e-14
-2.1164e-14
-2.1202e-14
0
1.3035e-14
4.87836e-15
-1.02996e-29
-2.11495e-14
-1.30789e-14
-8.04581e-15
1.31825e-14
-7.99103e-15
-3.51458e-29
1.32831e-14
-1.13033e-28
-1.80899e-30
4.52809e-15
-7.66481e-15
-4.89747e-15
0
2.08539e-14
1.29966e-14
-2.10374e-14
-1.30314e-14
1.30307e-14
-2.66205e-28
8.06288e-15
-2.90029e-30
-5.5261e-29
-8.03103e-15
-5.50764e-29
6.3764e-29
-1.32893e-14
7.97726e-15
7.99925e-15
8.14433e-15
-6.18058e-15
-4.11161e-15
-4.19792e-15
0
4.3003e-15
4.32546e-15
-4.33944e-15
-4.34648e-15
4.35031e-15
-5.02811e-29
3.00106e-29
8.21608e-30
1.83665e-29
4.86491e-29
1.8347e-29
4.89141e-29
-4.45652e-15
0
0
0
1.3437e-14
9.95487e-15
-6.72962e-15
2.20827e-15
-1.29427e-14
-3.60289e-15
4.26459e-14
-1.25078e-14
-1.75646e-14
0
6.28405e-15
2.93078e-14
3.01947e-14
4.17142e-14
-1.38869e-14
-2.58956e-14
-4.88155e-14
5.13184e-14
-1.94082e-14
1.89382e-14
-1.34756e-14
-2.23155e-14
-2.06048e-14
2.64793e-14
3.26241e-14
2.62918e-14
-5.57708e-15
-1.05023e-14
-1.90869e-15
1.92744e-14
-1.36693e-48
-4.22784e-15
-2.6975e-14
-3.88208e-14
2.2487e-14
-2.59687e-14
2.1125e-14
3.27177e-14
-2.85763e-15
3.89088e-14
8.06335e-16
1.91185e-14
0
-1.79681e-14
-9.15996e-15
1.30881e-14
-2.86424e-14
-3.01943e-14
-1.73439e-14
-6.43766e-14
-1.52767e-15
1.20362e-14
2.371e-14
-7.2299e-15
-1.99472e-14
2.48879e-14
1.30224e-14
-7.55859e-16
4.38476e-14
-1.71562e-14
-1.11991e-48
-2.60967e-14
1.42245e-14
6.39958e-15
-2.62551e-14
-8.22662e-15
2.25727e-14
-1.5996e-14
2.9922e-14
6.14197e-14
-8.01023e-15
-9.20624e-15
3.02692e-16
9.71858e-15
-2.94412e-14
-1.32953e-14
-9.6465e-16
-3.93896e-14
-6.20288e-14
1.73089e-14
1.79265e-14
2.49159e-14
-4.10356e-15
1.84857e-14
1.97457e-14
-3.81584e-14
4.66712e-14
1.54112e-15
-6.40693e-14
-8.10825e-14
2.77439e-14
3.31572e-14
2.32106e-15
-1.21267e-14
5.45784e-14
2.01342e-14
2.40862e-14
6.89301e-14
3.48242e-14
-1.84394e-14
-4.70456e-14
-2.14881e-14
-2.58029e-15
-6.3279e-15
-3.44408e-14
5.00831e-14
1.92173e-14
3.35678e-14
3.34982e-14
2.85714e-16
-2.0418e-14
-3.32112e-14
-3.83252e-15
-5.06354e-15
-4.49447e-14
-1.58478e-14
9.37623e-15
1.06805e-14
2.83859e-14
1.5364e-15
2.96197e-14
1.17331e-14
6.1915e-15
2.8344e-16
-2.39335e-14
-1.92905e-14
-4.39179e-15
-5.16715e-17
-5.39631e-17
1.63019e-14
-5.88655e-49
9.79615e-15
9.90491e-15
4.97251e-15
9.77341e-15
3.53671e-16
9.62459e-15
-9.96997e-15
-1.96892e-14
2.2804e-14
-5.15189e-49
0
-2.94753e-14
0
-3.22644e-14
2.08208e-14
3.57686e-14
2.04694e-14
-1.31477e-14
-4.57204e-14
-9.64096e-15
5.79875e-15
1.89367e-14
5.87725e-16
-1.2805e-14
-3.97678e-14
4.43977e-14
9.00798e-15
2.84798e-14
1.17924e-14
-4.65311e-16
-5.49312e-15
2.91707e-14
-2.02576e-14
2.89763e-14
-3.33089e-14
7.72001e-16
2.75501e-14
-9.02028e-15
-8.67148e-15
3.36817e-17
1.86761e-14
-3.77465e-14
-9.88786e-15
-1.61612e-14
0
-1.85e-14
9.2312e-15
2.03902e-14
-1.3054e-14
1.68513e-14
-5.42574e-15
8.47762e-15
1.5039e-14
-1.43556e-14
-9.08256e-15
0
-8.82192e-15
8.56388e-15
-6.53703e-17
9.11608e-15
-7.673e-15
7.84636e-15
4.2933e-15
-1.24891e-15
-5.05168e-15
6.41819e-17
-2.9415e-15
3.28557e-15
-2.3832e-15
)
;

boundaryField
{
    left
    {
        type            symmetryPlane;
    }
    right
    {
        type            calculated;
        value           nonuniform List<scalar> 
30
(
2.48029e-15
1.44779e-14
-1.89028e-17
-2.03198e-14
3.15987e-14
-2.21858e-15
-5.08748e-16
5.96803e-16
-2.96606e-14
-3.63651e-15
-7.98017e-17
-8.57216e-29
-4.29658e-15
-4.93675e-15
1.10346e-14
-9.69305e-30
-1.4668e-28
6.87186e-15
-7.19495e-15
-4.79488e-29
-5.27797e-29
-5.38837e-29
0
-4.73124e-29
1.85228e-29
8.57725e-30
5.60048e-29
-1.80899e-30
8.14433e-15
0
)
;
    }
    down
    {
        type            symmetryPlane;
    }
    up
    {
        type            calculated;
        value           nonuniform List<scalar> 
30
(
-1.61947e-17
2.05379e-17
-1.95003e-17
-8.1509e-19
1.04469e-17
-2.61112e-18
2.01814e-19
3.48967e-18
1.15112e-17
1.71619e-17
-1.06357e-17
-1.5299e-17
-1.59394e-17
0
1.71407e-17
1.76961e-17
-1.82378e-17
-1.87896e-17
1.93838e-17
-2.82257e-31
1.43588e-31
-1.38806e-32
-1.91055e-32
1.4886e-31
-2.20499e-32
1.76769e-31
-3.39688e-17
0
0
0
)
;
    }
    hole
    {
        type            calculated;
        value           nonuniform List<scalar> 
20
(
6.35647e-14
6.39856e-14
0
2.71938e-14
1.68672e-14
3.87109e-14
-4.54507e-14
-5.77739e-14
-2.07379e-14
-7.48812e-15
-6.69558e-14
-6.02898e-14
-3.40665e-14
3.40656e-14
7.76015e-15
-9.68015e-14
-4.95539e-14
-7.84106e-14
2.79199e-14
8.66278e-15
)
;
    }
    frontAndBack
    {
        type            empty;
    }
}


// ************************************************************************* //
