/*--------------------------------*- C++ -*----------------------------------*\
  =========                 |
  \\      /  F ield         | OpenFOAM: The Open Source CFD Toolbox
   \\    /   O peration     | Website:  https://openfoam.org
    \\  /    A nd           | Version:  9
     \\/     M anipulation  |
\*---------------------------------------------------------------------------*/
FoamFile
{
    format      ascii;
    class       volSymmTensorField;
    location    "80";
    object      sigma;
}
// * * * * * * * * * * * * * * * * * * * * * * * * * * * * * * * * * * * * * //

dimensions      [1 -1 -2 0 0 0 0];

internalField   nonuniform List<symmTensor> 
1000
(
(7759.84 -5587.21 -7.17461e-14 4572.14 6.03408e-14 2845.84)
(10946.2 -4254.83 -1.13173e-13 1148.25 8.12062e-14 2791.02)
(12566.9 -3362.36 1.40737e-13 -707.703 -2.35081e-14 2736.73)
(13394.1 -2728.56 2.25653e-14 -1724.13 -1.91127e-14 2693.06)
(13785.5 -2262.21 -1.31302e-13 -2270.18 -1.8123e-14 2657.39)
(13928.3 -1909.22 -9.50111e-16 -2541.45 7.00924e-15 2627.73)
(13925.7 -1635.72 -1.53431e-13 -2648.26 -8.48298e-14 2602.48)
(13837.5 -1419.41 9.19979e-14 -2657.11 5.84966e-14 2580.1)
(13708.7 -1241.3 -9.26766e-14 -2611.36 -3.03136e-14 2560.92)
(13538.6 -1013.57 0 -2532.93 0 2539.76)
(10754.4 -6875.68 -1.17518e-13 5146.85 1.80773e-14 3669.53)
(13179.8 -4611.93 0 1845.43 0 3467.35)
(14304.8 -3207.62 1.32588e-13 30.4972 6.65646e-14 3308.15)
(14780 -2294.37 -2.28466e-13 -998.146 -1.22094e-13 3180.43)
(14912.2 -1678.8 -9.87369e-14 -1581.24 -5.56767e-14 3076.37)
(14858.1 -1251.66 8.50131e-14 -1900.2 5.48224e-14 2990.29)
(14702.9 -947.512 7.76838e-14 -2058.23 4.43001e-14 2918)
(14495.6 -724.792 1.62354e-13 -2117.67 1.00577e-13 2856.44)
(14272.9 -552.925 0 -2116.07 0 2805.43)
(14028.6 -359.591 0 -2055.59 0 2763)
(14066.7 -7836.68 0 5269.16 0 4462.11)
(15470.9 -4804.36 0 2374.46 0 4118.16)
(15959.2 -2982.08 1.28853e-13 759.146 6.66947e-14 3858.08)
(16007.6 -1844.67 -2.52295e-14 -193.121 1.18992e-14 3649.49)
(15842.8 -1112.71 -1.88071e-16 -764.281 1.05321e-16 3479.65)
(15575.9 -630.829 -8.19416e-14 -1105.41 -5.27773e-14 3339.35)
(15264.6 -307.668 7.15931e-14 -1303.15 4.35273e-14 3221.88)
(14940.7 -87.1696 -6.83029e-14 -1410.32 -3.95282e-14 3122.39)
(14628 68.1749 1.57087e-14 -1458.53 -4.17344e-15 3039.12)
(14318 225.974 -1.10006e-14 -1444.8 -1.50859e-14 2970.73)
(17552.3 -8359.52 -7.24359e-14 5001.11 6.89548e-15 5204.62)
(17742.4 -4798.66 6.08612e-14 2744.12 -1.56287e-14 4727.65)
(17491.8 -2695.33 -6.25397e-14 1457.73 -3.17967e-14 4372.98)
(17062.2 -1412.75 -2.36491e-14 655.172 7.30981e-15 4088.62)
(16577.1 -610.346 8.1519e-14 137.156 5.68542e-14 3857.15)
(16089.8 -100.261 -8.26554e-14 -203.87 -4.72052e-14 3665.98)
(15623.1 226.681 -7.33129e-14 -430.595 -4.23528e-14 3505.97)
(15187.2 436.544 -1.64424e-13 -582.017 -9.51066e-14 3370.43)
(14790.3 572.675 -4.34936e-14 -681.865 -1.22464e-14 3255.8)
(14417.6 698.47 4.55647e-14 -723.861 1.75475e-14 3160.1)
(21038.6 -8368.17 -4.41619e-14 4437.48 6.18756e-16 5879.08)
(19909.2 -4574.47 -1.59439e-15 2974.74 1.72787e-16 5280.9)
(18868.6 -2357.6 -1.9107e-13 2105.85 -8.54241e-14 4840.25)
(17939.5 -1025.66 1.11115e-14 1504.29 -1.63455e-15 4487.02)
(17128.5 -207.646 -1.27475e-14 1069.53 1.66119e-15 4199.54)
(16423 299.831 7.51492e-14 746.084 4.32667e-14 3962.09)
(15807.2 614.268 1.1412e-15 500.217 -1.14961e-15 3763.25)
(15267.2 806.432 5.95435e-14 309.64 3.70383e-14 3594.65)
(14794.4 922.395 -5.78987e-14 160.146 -1.63896e-15 3451.05)
(14367.7 1019.06 -4.40784e-14 60.2024 -2.39725e-14 3329.52)
(24337.2 -7829.09 -1.38746e-13 3695.59 1.09726e-14 6469.1)
(21883.5 -4127.11 -1.41175e-15 3095.02 -7.79727e-17 5764.28)
(20059.5 -1979.62 8.58283e-16 2683.23 2.53536e-17 5248.32)
(18643.4 -701.909 9.89405e-15 2307.88 2.77269e-16 4834.91)
(17520.1 73.0963 -8.74154e-14 1973.14 -4.22589e-14 4498.45)
(16609.9 545.762 2.25027e-16 1678.88 1.07208e-16 4220.49)
(15857.5 831.431 6.742e-14 1422.07 3.4396e-14 3987.59)
(15224.7 999.478 1.53893e-13 1198.26 7.48241e-14 3789.91)
(14686.6 1094.77 2.72431e-14 1003.42 1.39992e-14 3620.77)
(14215.8 1165.95 -5.6025e-14 847.471 -2.15504e-14 3476.14)
(27257.6 -6755.76 1.7e-13 2901.77 -1.46733e-14 6959.84)
(23580.2 -3469.29 3.80799e-14 3136.98 9.74546e-15 6165.51)
(21040.1 -1572.23 6.07963e-14 3170.49 2.03272e-14 5587.06)
(19183.7 -450.501 -9.05442e-15 3019.2 -2.16689e-15 5123.75)
(17781.5 224.404 7.44631e-14 2787.36 3.10904e-14 4746.67)
(16691 631.203 -6.95727e-14 2527.44 -2.77309e-14 4435.02)
(15820.5 872.724 -1.58656e-15 2265.79 8.92399e-15 4173.76)
(15109.4 1010.82 -5.79717e-14 2015.04 -2.52825e-14 3951.8)
(14518 1085.28 7.18163e-15 1781.03 -6.82046e-15 3761.31)
(14013 1135.2 -2.73749e-14 1574.77 -1.83922e-14 3597.18)
(29620 -5208.65 2.9761e-13 2177.33 -2.32679e-14 7337.85)
(24922.7 -2632.04 -1.50354e-13 3131.18 -2.91586e-14 6473.98)
(21791.1 -1147.82 8.14245e-16 3550.31 4.16252e-16 5848.01)
(19572.8 -272.739 1.29707e-14 3595.95 7.01374e-15 5346.63)
(17942.8 251.215 1.56534e-13 3456.77 4.61085e-14 4938.35)
(16706.5 564.578 -2.71928e-15 3229.98 -4.63494e-15 4600.73)
(15742.1 748.435 1.76357e-17 2967.17 -2.17362e-16 4317.51)
(14970.1 851.642 -5.40787e-14 2695.78 -2.22582e-14 4076.74)
(14338.3 905.486 -2.51757e-15 2430.28 3.60941e-15 3869.68)
(13808.8 938.602 2.28816e-15 2182.65 6.46449e-15 3690.33)
(31264.8 -3291.5 1.75244e-13 1624.98 -2.09396e-14 7589.95)
(25847.6 -1668.56 -1.60328e-13 3104.89 -2.8428e-14 6681.35)
(22297.2 -728.655 1.18908e-14 3812.05 1.261e-14 6025.21)
(19821.7 -173.379 1.18881e-14 4006.24 1.3335e-14 5498.75)
(18030.4 158.806 -4.76615e-15 3937.21 -7.10144e-15 5069.45)
(16692.1 357.067 6.71174e-14 3735.88 8.30984e-15 4714.15)
(15662.7 473.174 -2.06908e-16 3472.92 5.92172e-15 4415.92)
(14849.6 538.35 1.08429e-13 3186.8 2.26729e-14 4162.24)
(14191.4 572.587 2.45207e-14 2898.31 5.19972e-15 3943.79)
(13646.9 593.419 1.88826e-14 2620.26 -1.20507e-14 3753.95)
(32109.6 -1145.79 1.89138e-13 1332.82 -2.92823e-14 7717.48)
(26335.6 -683.579 -5.75654e-15 3104.34 -2.10354e-14 6793.84)
(22530.3 -387.525 6.2354e-14 3952.91 1.65246e-14 6111.52)
(19900.2 -203.943 2.76161e-15 4215.81 1.00202e-14 5565.24)
(18016.1 -89.6445 -7.04835e-17 4176.64 -3.35185e-16 5121.41)
(16621.6 -17.7407 6.7083e-14 3984.38 -2.9765e-15 4755.22)
(15558.2 27.7496 -4.8023e-17 3719.02 6.5176e-15 4448.59)
(14725.1 56.5619 5.32333e-14 3423.93 2.36735e-15 4188.23)
(14056.2 75.1039 1.05258e-15 3122.21 -8.1653e-15 3964.25)
(13508.7 88.7206 -3.62767e-16 2825.62 -5.10044e-15 3769.47)
(-478.868 428.811 6.53659e-15 -11913.6 -6.68028e-14 -2859.81)
(-490.282 161.684 8.21011e-15 -7791.19 5.20792e-15 -1911.11)
(-98.3621 -43.5664 -6.84306e-15 -5213.51 -1.61781e-14 -1225.82)
(613.654 -166.687 0 -3544.19 0 -676.277)
(1436.25 -233.248 -1.32246e-14 -2432 -1.75742e-15 -229.788)
(2267.7 -265.927 -4.32068e-15 -1666.81 -1.03086e-14 138.665)
(3061.36 -278.842 2.27967e-14 -1122.72 5.42164e-16 447.379)
(3798.17 -280.344 1.04512e-14 -722.374 -7.14458e-15 709.8)
(4472.85 -275.588 1.94786e-14 -417.099 3.19725e-15 935.943)
(5086.58 -269.344 5.93029e-15 -175.852 8.88967e-15 1133.24)
(-569.702 1049.44 -3.63844e-15 -11491.3 -6.15632e-14 -2783.3)
(-329.447 -188.338 1.82425e-14 -7515.56 3.18251e-14 -1810.39)
(183.659 -843.554 -1.69895e-14 -5154.13 -2.06039e-14 -1147.03)
(949.462 -1177.8 -3.99524e-15 -3619.21 -3.7517e-15 -616.095)
(1787.06 -1333.79 0 -2581.95 0 -183.437)
(2614 -1388.68 -2.02949e-14 -1857.07 -1.18214e-14 174.677)
(3393.41 -1386.46 2.31903e-14 -1333.28 1.61424e-15 475.415)
(4110.92 -1352.73 1.01067e-16 -941.178 1.90148e-18 731.479)
(4762.99 -1302.72 -7.04369e-14 -636.271 4.19446e-16 952.319)
(5348.78 -1252.95 9.0286e-15 -389.283 4.55085e-15 1144.5)
(-652.69 1516.31 -4.57971e-15 -10307 -3.63213e-14 -2529.17)
(34.8421 -452.16 2.64755e-14 -6985.69 3.7788e-14 -1604.04)
(774.297 -1470.74 2.36999e-14 -4977.93 1.62238e-14 -970.068)
(1642.14 -1977.35 -3.00364e-15 -3651.88 -6.02867e-15 -463.787)
(2512.56 -2206.48 0 -2738.55 0 -52.1497)
(3333.86 -2280.38 -3.52132e-14 -2085.63 -1.45725e-14 288.054)
(4086.8 -2267 -4.76581e-14 -1601.82 -1.83526e-14 573.456)
(4766.98 -2205.51 4.18094e-14 -1229.91 1.10439e-14 816.245)
(5376.18 -2119.09 2.04361e-17 -933.151 -2.01014e-19 1025.31)
(5913.52 -2034.38 -4.24273e-14 -687.251 -8.03901e-15 1206.06)
(-682.833 1706.97 1.93126e-14 -8603.1 4.22076e-14 -2142.91)
(611.328 -746.712 1.79939e-15 -6213.52 -1.77289e-14 -1292.81)
(1646.08 -2009.59 3.25369e-14 -4712.87 1.77974e-14 -707.72)
(2638.28 -2628.04 0 -3679.06 0 -240.182)
(3543.49 -2899.18 -4.43904e-14 -2937.77 -1.12196e-14 139.782)
(4350.81 -2977.88 2.21948e-14 -2385.46 9.92882e-15 453.542)
(5063.45 -2949.26 -1.98448e-14 -1958.57 -3.25261e-15 716.512)
(5689.87 -2861.89 -3.91781e-14 -1616.61 -1.62481e-15 939.983)
(6238.82 -2744.46 1.70978e-14 -1333.54 6.08784e-15 1131.99)
(6708.65 -2633.13 3.24492e-14 -1092 1.09989e-14 1296.15)
(-578.306 1545.61 -3.93873e-14 -6541.39 -3.73313e-15 -1643.01)
(1404.05 -1110.91 -5.41699e-14 -5247.35 1.38303e-14 -886.916)
(2769.25 -2469.31 -4.03048e-14 -4356.88 -2.12905e-14 -366.376)
(3892.52 -3122.26 -1.77768e-16 -3675.61 2.02791e-14 50.056)
(4825.44 -3395.93 8.85021e-17 -3141.8 1.87359e-16 388.532)
(5605.8 -3461 4.6136e-14 -2711.51 1.46988e-14 667.914)
(6262.86 -3411.01 2.52026e-14 -2354.77 9.49662e-15 901.867)
(6819.61 -3298.95 0 -2051.09 0 1100.43)
(7292.43 -3156.04 -5.36183e-14 -1787.05 -6.96095e-15 1270.47)
(7678.28 -3027.08 1.73945e-14 -1553.7 6.4517e-15 1413.36)
(-239.451 1001.47 -1.90842e-14 -4285.83 -1.26111e-13 -1044.3)
(2423.06 -1555.53 1.7827e-14 -4149.32 -4.54011e-14 -398.368)
(4107.44 -2845.25 -4.16084e-14 -3912.97 -3.97086e-14 44.8779)
(5346.23 -3445.96 2.00555e-15 -3614.09 -1.08327e-14 399.724)
(6289.64 -3677.95 7.61314e-14 -3307.4 3.14651e-14 688.21)
(7025.96 -3709.08 -5.80225e-14 -3012.24 -1.8827e-14 926.242)
(7611.43 -3631.2 1.08478e-16 -2734.76 2.80361e-17 1125.39)
(8083.88 -3495.99 -6.65511e-14 -2475.99 -2.18789e-14 1294.13)
(8467.26 -3333.84 1.77643e-17 -2236.2 -6.18297e-19 1437.94)
(8756.67 -3196.88 -5.51076e-14 -2015.97 -2.10621e-14 1555.55)
(434.446 88.8707 2.63867e-14 -2002.63 -4.84519e-14 -361.888)
(3678.27 -2072.53 5.38123e-16 -2985.54 -1.00041e-15 159.862)
(5621.06 -3132.06 4.66274e-16 -3388.08 -9.38117e-16 515.302)
(6934.88 -3594.22 -9.09513e-14 -3468.26 -5.60947e-14 799.99)
(7860.06 -3740.36 1.09703e-16 -3390.44 1.55904e-14 1031.45)
(8531.07 -3717.4 -7.59984e-14 -3234.21 -3.26968e-14 1222.35)
(9028.71 -3605.42 1.36522e-13 -3040.53 5.74844e-14 1381.89)
(9404.13 -3449.03 7.57517e-17 -2831.42 4.01002e-18 1516.78)
(9687.85 -3274.36 1.4328e-14 -2620.82 1.21197e-14 1630.85)
(9872.9 -3139.17 -4.15228e-14 -2419.63 -1.71905e-14 1719.98)
(1529.82 -1134.73 1.22124e-13 148.237 -3.19236e-14 387.245)
(5172.82 -2639.26 3.3827e-14 -1820.7 -4.85646e-14 773.567)
(7268.1 -3326.31 -1.20061e-14 -2791.83 1.8327e-14 1032.99)
(8593.13 -3574.02 5.79312e-15 -3216.3 -1.11795e-14 1240.81)
(9460.52 -3595.49 -1.35231e-16 -3351.56 7.08267e-16 1409.76)
(10041.3 -3500.84 7.61067e-14 -3328.7 2.80535e-14 1549.05)
(10435.2 -3349.42 -1.26558e-14 -3218.71 -4.39996e-15 1665.34)
(10703.5 -3173.85 1.83924e-14 -3061.91 8.61921e-16 1763.43)
(10880.9 -2993.28 1.30865e-14 -2884.68 -9.00144e-16 1845.29)
(10958.1 -2869.13 4.24898e-14 -2708.41 9.8622e-15 1903.77)
(3106.7 -2573.99 4.54856e-14 2026.59 8.09827e-14 1184.61)
(6898.89 -3221.18 3.3658e-15 -713.122 1.09084e-13 1427.48)
(9004.56 -3427.47 7.66362e-16 -2136.35 -9.18444e-16 1584.97)
(10258.5 -3403.62 1.17144e-13 -2843.57 4.20715e-14 1711.13)
(11020.2 -3271.8 9.61165e-14 -3160.83 4.81089e-14 1813.69)
(11483.3 -3093.01 8.55423e-14 -3257.52 4.18546e-14 1898.25)
(11758.9 -2898.68 1.15239e-14 -3227.02 4.42224e-15 1968.9)
(11913.8 -2705.33 -1.03643e-13 -3123.33 -5.00751e-14 2028.57)
(11984.9 -2523.42 3.92929e-14 -2982.47 3.20317e-14 2077.48)
(11958.2 -2418.61 2.80929e-14 -2835.16 1.34867e-14 2105.31)
(5189.54 -4105.17 -8.29504e-15 3524.13 8.39717e-15 2010.85)
(8835.48 -3775.51 -2.64484e-14 288.406 2.3989e-14 2105.51)
(10785.7 -3437.94 -6.20897e-14 -1436.12 -3.40501e-14 2157.6)
(11874.7 -3110.56 2.52432e-13 -2344.55 8.52625e-14 2199.26)
(12477.9 -2810.8 1.22791e-16 -2801.13 -2.01494e-16 2233.09)
(12794.9 -2543.02 -8.783e-14 -2997.28 -4.6342e-14 2260.99)
(12938.9 -2306.33 -6.50261e-14 -3039.42 -3.54253e-14 2284.49)
(12977.7 -2097.65 -3.65156e-14 -2988.91 -1.82566e-14 2305.1)
(12952.2 -1913.95 -3.21795e-14 -2886.09 3.62111e-15 2322.96)
(12860.7 -1823.21 6.64492e-14 -2775.26 6.60437e-15 2327.41)
(5627.52 -250.613 4.87682e-14 16.689 3.08524e-15 1302.51)
(6119.67 -222.41 3.75293e-15 196.854 5.63611e-15 1457.66)
(6562.54 -199.563 -7.83827e-14 358.754 2.45225e-15 1597.22)
(6963.86 -179.207 -2.80579e-14 509.408 -1.21591e-16 1724.6)
(7328.59 -160.838 -4.66762e-15 654.339 -8.09145e-15 1842.21)
(7660.8 -144.159 0 797.983 0 1952.03)
(7963.98 -128.934 0 943.93 0 2055.67)
(8241.08 -114.941 3.18203e-14 1095.18 2.47939e-16 2154.52)
(8494.57 -101.958 1.38926e-15 1254.39 2.31159e-15 2249.76)
(8726.5 -89.7565 6.59423e-14 1424.02 6.82987e-16 2342.43)
(8938.44 -78.1083 3.76516e-15 1606.53 5.82887e-15 2433.45)
(9131.55 -66.7759 -1.42552e-15 1804.44 -1.70359e-15 2523.69)
(9306.57 -55.5126 3.34928e-15 2020.5 4.23664e-15 2613.94)
(9463.77 -44.0509 -1.03075e-13 2257.74 -1.78675e-15 2704.96)
(9602.92 -32.0977 3.34399e-14 2519.59 3.79812e-18 2797.5)
(9723.25 -19.3525 1.23025e-16 2809.94 2.75482e-18 2892.28)
(9823.42 -5.71171 -3.41847e-14 3133.01 -8.70198e-16 2989.95)
(9901.68 7.84181 3.3765e-14 3492.53 9.64192e-16 3090.97)
(9956.94 16.3993 -6.49651e-14 3888.66 -7.07581e-15 3195.14)
(10016.3 6.53832 -3.34089e-14 4316.88 2.48029e-15 3307.67)
(5848.81 -1160.7 7.90047e-14 -178.668 3.78671e-15 1308.49)
(6304.24 -1037.01 1.12024e-14 30.1563 6.38869e-15 1461.78)
(6712.46 -935.87 -2.23332e-14 212.788 2.68882e-15 1598.13)
(7086.55 -845.95 9.67532e-14 380.813 7.41213e-15 1723.24)
(7429.13 -765.796 -2.39409e-15 540.313 -2.85865e-15 1839.1)
(7743.09 -694.236 -9.66997e-14 696.168 -4.55476e-15 1947.52)
(8031.06 -630.158 9.37472e-15 852.282 5.59025e-15 2050)
(8295.42 -572.484 0 1011.92 0 2147.85)
(8538.16 -520.176 3.45885e-15 1177.94 2.4764e-15 2242.18)
(8760.98 -472.236 7.94787e-15 1352.98 4.68804e-15 2333.99)
(8965.18 -427.697 5.03375e-14 1539.63 1.17058e-14 2424.19)
(9151.74 -385.608 7.15913e-16 1740.5 4.75743e-17 2513.59)
(9321.24 -345.021 -2.89933e-14 1958.4 1.50055e-15 2602.99)
(9473.9 -304.959 3.41356e-14 2196.39 1.75635e-15 2693.14)
(9609.58 -264.424 3.47089e-14 2457.86 2.03204e-15 2784.79)
(9727.76 -222.415 -3.41189e-14 2746.66 -2.26123e-15 2878.71)
(9827.58 -178.031 -3.40751e-14 3067.27 -2.56807e-15 2975.73)
(9907.62 -130.495 -6.73498e-14 3425.43 -5.77704e-15 3076.86)
(9964.46 -78.2289 -6.0362e-16 3830.64 -1.82314e-17 3183.49)
(10024.2 -15.3112 1.99202e-14 4315.19 1.44779e-14 3309.08)
(6342.59 -1887.41 2.68608e-14 -461.568 1.2268e-15 1357.16)
(6726.69 -1696.32 1.07806e-14 -217.652 3.96466e-15 1502.09)
(7063.04 -1538.58 -8.66617e-14 -7.89212 -2.81659e-15 1628.11)
(7377.76 -1396.74 1.81032e-14 184.588 -2.90225e-15 1745.16)
(7671 -1269.1 1.0726e-13 365.542 9.66088e-15 1854.59)
(7943.77 -1154.29 -1.00692e-13 539.874 -6.35678e-15 1957.76)
(8197.23 -1050.91 -3.40035e-14 711.67 -1.33368e-15 2055.9)
(8432.53 -957.459 6.48355e-14 884.428 2.63722e-15 2150.07)
(8650.71 -872.43 -5.15862e-14 1061.24 2.77859e-15 2241.22)
(8852.68 -794.319 -6.81126e-14 1244.94 -3.6083e-15 2330.22)
(9039.18 -721.639 6.54235e-14 1438.29 3.74737e-15 2417.88)
(9210.68 -652.907 1.00653e-13 1644.03 6.60805e-15 2504.93)
(9367.46 -586.627 7.37198e-16 1865.04 8.0649e-17 2592.12)
(9509.48 -521.272 -3.40761e-14 2104.43 -2.87102e-15 2680.13)
(9636.44 -455.257 3.34949e-14 2365.62 3.18585e-15 2769.71)
(9747.66 -386.922 1.17801e-16 2652.58 1.27621e-17 2861.59)
(9841.92 -314.424 -3.38367e-14 2970.11 -4.17569e-15 2956.62)
(9917.01 -235.228 2.92919e-14 3324.53 5.31902e-15 3055.74)
(9968.69 -144.359 1.4246e-14 3724.92 1.22177e-14 3160.06)
(10023.7 -29.1328 2.50069e-17 4196.56 -1.89028e-17 3281.6)
(7042.62 -2449.06 0 -848.952 0 1429.31)
(7328.5 -2217.13 1.3486e-14 -562.467 4.89157e-15 1561.39)
(7567.03 -2024.4 3.08422e-14 -318.088 1.76556e-15 1672.83)
(7799.34 -1848.67 3.51053e-14 -93.6888 2.04883e-15 1778.23)
(8023.13 -1688.37 0 115.996 0 1878.26)
(8237.31 -1542.46 -2.0564e-14 315.594 2.42363e-15 1973.75)
(8441.26 -1409.7 -5.19881e-14 509.184 -9.23196e-15 2065.49)
(8634.58 -1288.65 -6.53941e-14 700.41 -3.86935e-15 2154.23)
(8817.09 -1177.7 -1.19998e-14 892.567 -3.72955e-15 2240.69)
(8988.65 -1075.15 5.01908e-14 1088.72 -1.31593e-15 2325.55)
(9149.14 -979.213 1.7699e-14 1291.79 -2.93415e-15 2409.45)
(9298.41 -888.084 1.74598e-14 1504.68 5.43569e-15 2493.02)
(9436.18 -799.873 -1.09839e-14 1730.35 3.3977e-15 2576.89)
(9561.99 -712.603 2.62413e-14 1971.97 1.93758e-15 2661.68)
(9675.18 -624.164 2.72916e-14 2233.01 2.9771e-15 2748.04)
(9774.72 -532.219 -3.35239e-14 2517.44 -4.95524e-15 2836.65)
(9859.04 -433.965 -1.04918e-16 2829.98 -1.76836e-17 2928.24)
(9925.77 -325.469 9.37699e-14 3176.48 1.9494e-14 3023.6)
(9971.23 -199.709 -2.66543e-14 3564.14 -8.31849e-15 3123.55)
(10022.4 -40.2614 -3.57913e-14 4015.03 -2.03198e-14 3239.42)
(7901.27 -2825.08 3.69313e-14 -1294.33 -4.18363e-15 1524.68)
(8068.25 -2582.7 -1.87577e-14 -967.924 -6.46356e-15 1638.54)
(8191.53 -2379.22 -8.37231e-14 -687.751 -1.18789e-14 1731.64)
(8325.23 -2190.04 4.45662e-14 -429.383 7.53963e-15 1822.12)
(8465.02 -2014.07 1.13337e-13 -188.061 2.08719e-14 1910.07)
(8607.62 -1851.1 -3.46002e-14 40.1505 -2.64974e-15 1995.64)
(8750.49 -1700.6 0 258.983 0 2079.11)
(8891.64 -1561.6 3.30989e-14 471.986 2.62875e-15 2160.84)
(9029.49 -1432.77 -3.36753e-14 682.508 -1.19387e-14 2241.23)
(9162.73 -1312.55 -4.52148e-14 893.725 -7.01903e-15 2320.72)
(9290.28 -1199.16 -4.40447e-14 1108.69 3.3094e-16 2399.76)
(9411.18 -1090.65 -5.90441e-14 1330.39 -4.91345e-15 2478.82)
(9524.49 -984.919 6.7792e-14 1561.86 3.76396e-15 2558.39)
(9629.25 -879.671 9.12504e-14 1806.26 1.20463e-14 2638.96)
(9724.37 -772.351 9.02561e-15 2067 2.03198e-15 2721.08)
(9808.5 -660.024 -2.44919e-14 2347.86 -4.56767e-15 2805.32)
(9879.95 -539.101 1.59283e-14 2653.19 1.79747e-15 2892.26)
(9936.49 -404.618 7.59053e-15 2988 2.39118e-16 2982.58)
(9974.91 -248.118 7.759e-14 3358.14 1.68126e-14 3076.86)
(10021.4 -50.1138 2.98771e-14 3784.56 3.15987e-14 3185.99)
(8863.29 -2996.84 3.25181e-14 -1746.08 2.91736e-15 1642.43)
(8899.36 -2776.95 1.98172e-15 -1394.01 4.03765e-16 1732)
(8899.98 -2588.48 -5.46149e-14 -1083.96 -1.16007e-14 1803.7)
(8926.51 -2407.82 -1.4079e-13 -795.465 -2.50003e-14 1876.4)
(8973.86 -2234.66 4.73491e-14 -524.296 9.06988e-15 1949.9)
(9036.7 -2070.11 7.02221e-14 -267.834 7.08928e-15 2023.58)
(9110.79 -1914.8 -3.38467e-14 -23.2091 -3.33719e-15 2097.13)
(9192.62 -1768.66 1.72506e-14 212.643 -2.06136e-15 2170.45)
(9279.25 -1631.06 7.93816e-14 442.835 1.8884e-14 2243.56)
(9368.22 -1500.87 -9.79063e-14 670.454 -1.11075e-14 2316.62)
(9457.42 -1376.61 -3.59909e-14 898.521 -4.68752e-15 2389.83)
(9545.07 -1256.43 1.40727e-13 1130.02 1.50091e-14 2463.48)
(9629.54 -1138.21 -2.35864e-14 1367.94 -1.19774e-14 2537.88)
(9709.34 -1019.49 -9.81273e-14 1615.33 -1.67087e-14 2613.39)
(9782.96 -897.421 -2.23332e-14 1875.4 -3.72993e-15 2690.39)
(9848.81 -768.62 -8.62109e-14 2151.6 -1.84212e-14 2769.32)
(9905.12 -628.91 -1.27908e-15 2447.7 -2.60613e-16 2850.65)
(9949.83 -472.564 1.04539e-13 2767.92 2.78621e-14 2934.87)
(9980.07 -289.968 2.34017e-14 3117.02 1.04582e-14 3022.41)
(10020.4 -58.8454 5.14941e-15 3514.69 -2.21858e-15 3123.48)
(9868.05 -2959.32 -3.49849e-14 -2150.22 -4.51957e-15 1781.04)
(9771.33 -2793.93 3.59098e-14 -1798.69 6.59069e-15 1839.84)
(9652.55 -2645.17 2.52701e-14 -1472.09 9.43427e-15 1887.8)
(9571.68 -2494.7 -3.64591e-14 -1163.41 -5.34216e-15 1940.37)
(9524.64 -2342.93 -4.04583e-14 -869.053 -1.52446e-14 1997.44)
(9504.72 -2192.66 1.91892e-14 -588.563 7.11731e-15 2057.58)
(9506.44 -2046 7.43291e-14 -320.643 1.83689e-14 2119.8)
(9525.1 -1904.13 -1.2239e-13 -63.247 -2.78267e-14 2183.5)
(9556.61 -1767.42 -7.54457e-14 186.085 -1.79291e-14 2248.31)
(9597.48 -1635.51 1.16246e-13 430.051 2.59979e-14 2314.05)
(9644.69 -1507.45 -2.98228e-14 671.404 -1.00756e-14 2380.64)
(9695.66 -1381.77 9.68043e-14 912.944 1.53699e-14 2448.14)
(9748.12 -1256.51 6.19681e-14 1157.45 1.46674e-14 2516.67)
(9800.04 -1129.24 -8.19197e-14 1407.73 -1.4621e-14 2586.41)
(9849.54 -996.991 2.38332e-14 1666.66 3.37897e-15 2657.58)
(9894.85 -856.11 2.68383e-15 1937.19 6.40877e-16 2730.47)
(9934.16 -702.018 -1.15935e-13 2222.43 -3.03971e-14 2805.37)
(9965.55 -528.405 3.10874e-14 2525.77 9.9548e-15 2882.61)
(9986.47 -324.7 4.09326e-14 2850.86 1.20836e-14 2962.46)
(10019.3 -66.2913 3.10559e-15 3215.06 -5.08748e-16 3054.08)
(10854.6 -2722.75 2.9592e-15 -2455.91 9.03686e-16 1938.16)
(10633.6 -2638.54 -3.72251e-14 -2141.49 -8.45956e-15 1959.73)
(10408.5 -2550.24 -1.34769e-14 -1818.38 2.63908e-15 1982.35)
(10228 -2449.25 0 -1504.94 0 2013.01)
(10091 -2336.19 0 -1198.54 0 2052.11)
(9990.54 -2215.49 -9.43526e-14 -901.988 -2.01032e-14 2097.36)
(9920.51 -2090.77 9.69101e-14 -616.254 1.41749e-14 2147.14)
(9875.53 -1964.65 1.95042e-13 -341.034 3.41954e-14 2200.27)
(9850.81 -1838.69 -1.53585e-13 -74.9443 -2.22414e-14 2255.97)
(9842.03 -1713.55 -1.22003e-13 183.84 -2.33747e-14 2313.66)
(9845.48 -1589.05 6.41433e-14 437.588 1.06731e-14 2373.02)
(9857.88 -1464.28 1.34053e-14 688.585 -3.72243e-16 2433.8)
(9876.41 -1337.68 4.86236e-14 939.299 1.57568e-14 2495.93)
(9898.57 -1207.03 1.0899e-13 1192.06 2.78461e-14 2559.38)
(9922.19 -1069.41 3.65716e-15 1449.32 9.70244e-16 2624.19)
(9945.32 -921.101 -2.29923e-14 1713.32 -7.0299e-15 2690.45)
(9966.19 -757.291 0 1986.45 0 2758.3)
(9983.05 -571.258 -2.4996e-14 2271 -4.48679e-15 2827.86)
(9993.83 -351.69 1.1114e-14 2569.54 1.2928e-15 2899.24)
(10018 -72.2565 1.05544e-14 2895.67 5.96803e-16 2980.09)
(11770.6 -2305.76 -3.45996e-15 -2616.54 -1.20066e-15 2112.47)
(11443.7 -2318.49 2.93513e-14 -2379.01 1.34881e-14 2091.84)
(11131.6 -2305.84 -3.1438e-14 -2083.73 -1.35289e-14 2087.96)
(10865.2 -2270.27 -3.01696e-14 -1784.85 -1.25704e-14 2095.47)
(10648.2 -2211.52 9.39985e-14 -1481.88 3.07005e-14 2115.3)
(10473.9 -2134.93 5.86975e-14 -1181.25 2.2735e-14 2144.45)
(10336.5 -2045.35 -8.17585e-14 -886.96 -2.50693e-14 2180.66)
(10230.6 -1946.68 -2.30753e-14 -600.789 5.57348e-15 2222.26)
(10151.1 -1841.75 1.94435e-14 -323.118 2.18692e-15 2267.99)
(10093.2 -1732.33 2.4767e-14 -53.2291 -3.50018e-15 2316.93)
(10052.9 -1619.18 -6.56739e-14 210.122 -2.34569e-14 2368.4)
(10026.4 -1502.15 2.08925e-15 468.619 5.75413e-16 2421.92)
(10010.3 -1380.24 -7.27815e-14 724 -1.33454e-14 2477.15)
(10001.9 -1251.62 -3.25148e-15 978.114 -9.30913e-16 2533.85)
(9998.67 -1113.66 3.09695e-14 1232.62 9.63072e-15 2591.84)
(9998.62 -962.735 -2.3137e-15 1489.11 -6.69056e-16 2651.02)
(10000 -794.023 1.01637e-13 1748.85 3.48432e-14 2711.28)
(10001.6 -600.584 -1.27297e-14 2013.01 -2.73898e-15 2772.59)
(10001.8 -370.622 -1.28726e-13 2282.44 -5.27173e-14 2834.82)
(10016.7 -76.7008 -2.33632e-14 2566.44 -2.96606e-14 2903.8)
(12598.3 -1723.38 -4.91466e-15 -2600.14 -3.63257e-15 2307.26)
(12190.7 -1837.43 -3.28573e-14 -2443.18 -1.79438e-14 2249.43)
(11800 -1917.08 4.04402e-14 -2204.06 1.34224e-14 2214.44)
(11456.6 -1963.06 -1.1261e-13 -1949.32 -2.67565e-14 2193.98)
(11166.3 -1974.71 -1.08852e-13 -1676.8 -2.8789e-14 2189.88)
(10923.9 -1957.28 7.06474e-14 -1394.19 1.05367e-14 2199.17)
(10724.1 -1916.36 7.5112e-14 -1108.29 8.2704e-15 2219.03)
(10561.5 -1857.03 9.60869e-14 -823.848 2.01073e-14 2247.15)
(10430.8 -1783.4 -8.19252e-14 -543.763 -2.2952e-14 2281.63)
(10327.2 -1698.5 2.59131e-17 -269.382 -8.11951e-16 2321.02)
(10245.8 -1604.21 -1.96934e-15 -1.05243 1.56163e-15 2364.18)
(10182.7 -1501.33 -8.79326e-14 261.637 -1.95121e-14 2410.24)
(10134.2 -1389.65 0 519.393 0 2458.51)
(10096.9 -1267.96 -2.81247e-14 773.133 -1.2844e-14 2508.48)
(10068.4 -1134.05 -1.21151e-16 1023.6 8.69167e-17 2559.69)
(10046.4 -984.68 -5.10747e-14 1271.38 -1.59538e-14 2611.8)
(10029.4 -815.221 2.83611e-14 1516.51 9.85711e-15 2664.43)
(10016.3 -618.847 3.05845e-14 1758.57 7.61107e-15 2717.28)
(10006.8 -383.424 1.10619e-15 1996.28 8.46353e-17 2769.94)
(10014 -80.1355 -8.02957e-15 2232.51 -3.63651e-15 2826.11)
(13174.5 -1220.46 5.10318e-14 -2536.83 1.8804e-14 2454.84)
(12725.3 -1393.02 -3.47068e-14 -2324.26 -2.03818e-14 2400.25)
(12277.8 -1547.1 -2.28663e-14 -2155.48 -7.47977e-15 2335.92)
(11898.5 -1649.9 3.15475e-14 -1944.51 1.74373e-14 2297.08)
(11571.7 -1711.26 -4.80462e-14 -1706.24 -3.75461e-14 2276.64)
(11291.4 -1738.11 -3.4402e-14 -1450.62 -2.39169e-14 2270.94)
(11052.9 -1736.33 -5.74466e-14 -1185.54 -2.06784e-14 2277.07)
(10851.7 -1711.07 -4.09678e-15 -917.025 5.91815e-15 2292.61)
(10683.4 -1666.61 1.01838e-13 -649.071 4.09234e-14 2315.62)
(10543.7 -1606.29 -5.57924e-15 -384.281 -1.08716e-15 2344.48)
(10428.4 -1532.39 4.85229e-14 -124.01 2.02702e-14 2377.93)
(10333.5 -1446.15 -4.15913e-15 131.026 -8.69066e-16 2414.89)
(10255.6 -1347.81 0 380.668 0 2454.53)
(10191.7 -1236.61 -1.87036e-14 624.778 -7.18342e-15 2496.11)
(10139.2 -1110.81 1.77815e-14 863.262 6.41618e-15 2539.03)
(10096.1 -967.609 -1.53114e-15 1095.57 -5.06492e-16 2582.68)
(10061 -802.888 -9.7191e-15 1320.73 -4.66503e-15 2626.56)
(10033.5 -610.388 3.02111e-16 1536.8 2.69815e-16 2670.07)
(10014.1 -378.689 -2.91186e-16 1740.6 1.1377e-16 2712.63)
(10012.1 -79.9096 -2.90471e-16 1928.42 -7.98017e-17 2755.5)
(13090.8 -862.601 4.2927e-14 -2316.62 2.00268e-14 2486.35)
(12784.6 -1055.74 0 -2215.05 0 2439.13)
(12400.5 -1236.77 -3.47703e-14 -2092.9 -1.15758e-14 2378.68)
(12054.7 -1372.09 6.37086e-28 -1916.35 2.2553e-28 2339.62)
(11745.7 -1464.67 7.64674e-29 -1705.56 7.95099e-29 2316.97)
(11472.4 -1520.93 4.80728e-28 -1472.44 2.35575e-28 2307.68)
(11232.6 -1546.62 5.57948e-28 -1225.82 1.94517e-28 2309.25)
(11023.9 -1546.64 -3.0199e-14 -972.368 -7.51026e-15 2319.57)
(10843.5 -1525.02 0 -716.944 0 2336.89)
(10688.4 -1484.92 2.8896e-14 -462.907 7.11487e-15 2359.74)
(10555.8 -1428.61 -2.26385e-28 -212.495 -3.86181e-29 2386.91)
(10442.5 -1357.48 -2.78428e-14 32.8288 -7.29001e-15 2417.39)
(10346 -1271.98 2.73937e-14 272.049 7.58014e-15 2450.32)
(10263.8 -1171.7 2.96627e-28 504.316 1.02319e-28 2484.95)
(10193.9 -1055.31 -2.66222e-14 728.666 -8.57575e-15 2520.6)
(10134.9 -920.515 -1.82363e-28 943.776 -6.44988e-29 2556.62)
(10085.9 -763.84 2.59985e-14 1147.68 1.0192e-14 2592.37)
(10047.1 -579.932 2.57429e-14 1337.4 1.12847e-14 2627.19)
(10019.6 -358.802 -1.19992e-28 1508.19 -7.21516e-29 2660.26)
(10010.3 -75.5884 -3.98665e-29 1653.09 -8.57216e-29 2691.55)
(13038.3 -516.743 1.83901e-14 -2011.16 -1.37512e-15 2544.73)
(12795.8 -718.957 -1.83579e-14 -1978.91 -1.55261e-14 2496.2)
(12469.4 -916.084 -5.33369e-14 -1915.16 -2.72632e-14 2435.59)
(12158.6 -1075.86 0 -1787.64 0 2393.29)
(11869.3 -1196 1.45463e-14 -1617.38 -3.69292e-15 2365.84)
(11605.3 -1280.15 -4.37565e-15 -1418.41 -1.67953e-14 2350.81)
(11367.1 -1332.86 -4.93059e-14 -1200.76 -2.10649e-14 2346.09)
(11154.5 -1358.33 -6.60374e-14 -971.935 -3.13691e-14 2349.82)
(10966 -1360.17 2.98568e-14 -737.572 8.03176e-15 2360.42)
(10800 -1341.28 -3.43893e-14 -501.854 -1.99726e-14 2376.5)
(10654.4 -1303.87 -1.69285e-14 -267.864 -9.24522e-15 2396.89)
(10527.1 -1249.34 -3.33548e-14 -37.9245 -1.70592e-14 2420.57)
(10416 -1178.37 -3.28895e-14 186.106 -1.56857e-14 2446.65)
(10319.5 -1090.85 -1.62314e-14 402.536 -7.1879e-15 2474.31)
(10235.9 -985.847 -3.20728e-14 609.573 -1.31369e-14 2502.8)
(10164.4 -861.619 -3.17133e-14 805.036 -1.19791e-14 2531.4)
(10104.5 -715.39 -2.61775e-14 986.057 -1.07231e-14 2559.36)
(10056.8 -542.771 -1.55211e-14 1148.65 -4.98641e-15 2585.88)
(10023.4 -335.295 -1.53495e-14 1287.06 -4.5902e-15 2610.1)
(10008.5 -70.6802 -5.06537e-15 1392.63 -4.29658e-15 2631.04)
(12913.3 -228.381 1.60304e-13 -1736.86 7.61711e-14 2579.17)
(12719 -425.631 1.65545e-14 -1747.41 1.48469e-14 2531.91)
(12445.7 -625.41 -8.61284e-14 -1724.9 -3.97609e-14 2474.03)
(12175.2 -797.363 1.31786e-27 -1638.96 5.3818e-28 2431.45)
(11914.3 -935.574 4.87305e-14 -1506.37 8.00801e-15 2401.83)
(11668.5 -1040.67 0 -1340.61 0 2383.35)
(11440.8 -1115.3 1.72366e-14 -1152.1 1.22347e-14 2374.32)
(11232.5 -1162.51 -6.1474e-14 -948.835 -1.81351e-14 2373.15)
(11043.7 -1185.18 1.47519e-27 -736.999 5.10945e-28 2378.46)
(10873.7 -1185.77 5.88746e-14 -521.382 1.72359e-14 2389)
(10721.6 -1166.22 -1.66832e-14 -305.732 -9.40011e-15 2403.66)
(10586 -1127.91 -1.89093e-28 -93.0609 -5.68085e-29 2421.46)
(10465.7 -1071.58 -1.1475e-27 114.066 -3.67743e-28 2441.49)
(10359.5 -997.37 1.62017e-14 313.252 7.45821e-15 2462.93)
(10266.3 -904.733 -5.56383e-28 501.993 -2.01436e-28 2485)
(10185.9 -792.431 -5.32834e-14 677.397 -2.08168e-14 2506.9)
(10118.1 -658.403 4.59132e-28 835.864 1.89476e-28 2527.84)
(10064.2 -499.268 3.65437e-14 972.709 1.88442e-14 2546.98)
(10026.3 -308.032 -1.54618e-14 1081.49 -5.14119e-15 2563.34)
(10006.9 -65.0523 -5.10842e-15 1152.29 -4.93675e-15 2575.21)
(12735.4 6.76963 2.86383e-14 -1485.75 2.83234e-14 2596.07)
(12581.7 -180.847 4.97695e-14 -1525.44 2.78597e-14 2551.45)
(12355 -375.046 3.09915e-14 -1531.63 2.79591e-14 2497.7)
(12124.1 -549.566 1.68851e-28 -1478.65 3.35414e-29 2456.64)
(11894.5 -696.875 6.51766e-14 -1378.97 3.77356e-14 2426.67)
(11672.1 -815.35 -1.58056e-14 -1244.13 1.98201e-15 2406.46)
(11460.8 -905.775 -1.50155e-14 -1083.92 1.91487e-15 2394.66)
(11263 -969.865 3.29506e-14 -906.337 2.2873e-14 2390.01)
(11080 -1009.58 3.0145e-14 -717.774 9.4598e-15 2391.28)
(10912.1 -1026.77 4.59623e-14 -523.398 1.94299e-14 2397.38)
(10759.1 -1023.04 3.27066e-14 -327.422 1.8976e-14 2407.3)
(10620.5 -999.571 -1.21813e-14 -133.379 -4.74425e-16 2420.1)
(10495.7 -957.136 4.38421e-15 55.6125 6.97589e-15 2434.92)
(10384.1 -896.016 1.60745e-14 236.59 7.68257e-15 2450.94)
(10285.4 -815.989 5.90615e-14 406.484 2.46067e-14 2467.35)
(10199.4 -716.299 1.5858e-14 561.846 6.66662e-15 2483.37)
(10126.8 -595.561 5.87688e-30 698.549 2.57765e-30 2498.15)
(10068.8 -451.339 5.74534e-14 811.409 2.42759e-14 2510.82)
(10028.2 -278.107 3.09555e-14 893.64 1.1288e-14 2520.42)
(10005.5 -58.8994 1.02398e-14 934.327 1.10346e-14 2524.58)