/*--------------------------------*- C++ -*----------------------------------*\
  =========                 |
  \\      /  F ield         | OpenFOAM: The Open Source CFD Toolbox
   \\    /   O peration     | Website:  https://openfoam.org
    \\  /    A nd           | Version:  9
     \\/     M anipulation  |
\*---------------------------------------------------------------------------*/
FoamFile
{
    format      ascii;
    class       volScalarField;
    location    "80";
    object      sigmaxz;
}
// * * * * * * * * * * * * * * * * * * * * * * * * * * * * * * * * * * * * * //

dimensions      [1 -1 -2 0 0 0 0];

internalField   nonuniform List<scalar> 
1000
(
-7.17461e-14
-1.13173e-13
1.40737e-13
2.25653e-14
-1.31302e-13
-9.50111e-16
-1.53431e-13
9.19979e-14
-9.26766e-14
0
-1.17518e-13
0
1.32588e-13
-2.28466e-13
-9.87369e-14
8.50131e-14
7.76838e-14
1.62354e-13
0
0
0
0
1.28853e-13
-2.52295e-14
-1.88071e-16
-8.19416e-14
7.15931e-14
-6.83029e-14
1.57087e-14
-1.10006e-14
-7.24359e-14
6.08612e-14
-6.25397e-14
-2.36491e-14
8.1519e-14
-8.26554e-14
-7.33129e-14
-1.64424e-13
-4.34936e-14
4.55647e-14
-4.41619e-14
-1.59439e-15
-1.9107e-13
1.11115e-14
-1.27475e-14
7.51492e-14
1.1412e-15
5.95435e-14
-5.78987e-14
-4.40784e-14
-1.38746e-13
-1.41175e-15
8.58283e-16
9.89405e-15
-8.74154e-14
2.25027e-16
6.742e-14
1.53893e-13
2.72431e-14
-5.6025e-14
1.7e-13
3.80799e-14
6.07963e-14
-9.05442e-15
7.44631e-14
-6.95727e-14
-1.58656e-15
-5.79717e-14
7.18163e-15
-2.73749e-14
2.9761e-13
-1.50354e-13
8.14245e-16
1.29707e-14
1.56534e-13
-2.71928e-15
1.76357e-17
-5.40787e-14
-2.51757e-15
2.28816e-15
1.75244e-13
-1.60328e-13
1.18908e-14
1.18881e-14
-4.76615e-15
6.71174e-14
-2.06908e-16
1.08429e-13
2.45207e-14
1.88826e-14
1.89138e-13
-5.75654e-15
6.2354e-14
2.76161e-15
-7.04835e-17
6.7083e-14
-4.8023e-17
5.32333e-14
1.05258e-15
-3.62767e-16
6.53659e-15
8.21011e-15
-6.84306e-15
0
-1.32246e-14
-4.32068e-15
2.27967e-14
1.04512e-14
1.94786e-14
5.93029e-15
-3.63844e-15
1.82425e-14
-1.69895e-14
-3.99524e-15
0
-2.02949e-14
2.31903e-14
1.01067e-16
-7.04369e-14
9.0286e-15
-4.57971e-15
2.64755e-14
2.36999e-14
-3.00364e-15
0
-3.52132e-14
-4.76581e-14
4.18094e-14
2.04361e-17
-4.24273e-14
1.93126e-14
1.79939e-15
3.25369e-14
0
-4.43904e-14
2.21948e-14
-1.98448e-14
-3.91781e-14
1.70978e-14
3.24492e-14
-3.93873e-14
-5.41699e-14
-4.03048e-14
-1.77768e-16
8.85021e-17
4.6136e-14
2.52026e-14
0
-5.36183e-14
1.73945e-14
-1.90842e-14
1.7827e-14
-4.16084e-14
2.00555e-15
7.61314e-14
-5.80225e-14
1.08478e-16
-6.65511e-14
1.77643e-17
-5.51076e-14
2.63867e-14
5.38123e-16
4.66274e-16
-9.09513e-14
1.09703e-16
-7.59984e-14
1.36522e-13
7.57517e-17
1.4328e-14
-4.15228e-14
1.22124e-13
3.3827e-14
-1.20061e-14
5.79312e-15
-1.35231e-16
7.61067e-14
-1.26558e-14
1.83924e-14
1.30865e-14
4.24898e-14
4.54856e-14
3.3658e-15
7.66362e-16
1.17144e-13
9.61165e-14
8.55423e-14
1.15239e-14
-1.03643e-13
3.92929e-14
2.80929e-14
-8.29504e-15
-2.64484e-14
-6.20897e-14
2.52432e-13
1.22791e-16
-8.783e-14
-6.50261e-14
-3.65156e-14
-3.21795e-14
6.64492e-14
4.87682e-14
3.75293e-15
-7.83827e-14
-2.80579e-14
-4.66762e-15
0
0
3.18203e-14
1.38926e-15
6.59423e-14
3.76516e-15
-1.42552e-15
3.34928e-15
-1.03075e-13
3.34399e-14
1.23025e-16
-3.41847e-14
3.3765e-14
-6.49651e-14
-3.34089e-14
7.90047e-14
1.12024e-14
-2.23332e-14
9.67532e-14
-2.39409e-15
-9.66997e-14
9.37472e-15
0
3.45885e-15
7.94787e-15
5.03375e-14
7.15913e-16
-2.89933e-14
3.41356e-14
3.47089e-14
-3.41189e-14
-3.40751e-14
-6.73498e-14
-6.0362e-16
1.99202e-14
2.68608e-14
1.07806e-14
-8.66617e-14
1.81032e-14
1.0726e-13
-1.00692e-13
-3.40035e-14
6.48355e-14
-5.15862e-14
-6.81126e-14
6.54235e-14
1.00653e-13
7.37198e-16
-3.40761e-14
3.34949e-14
1.17801e-16
-3.38367e-14
2.92919e-14
1.4246e-14
2.50069e-17
0
1.3486e-14
3.08422e-14
3.51053e-14
0
-2.0564e-14
-5.19881e-14
-6.53941e-14
-1.19998e-14
5.01908e-14
1.7699e-14
1.74598e-14
-1.09839e-14
2.62413e-14
2.72916e-14
-3.35239e-14
-1.04918e-16
9.37699e-14
-2.66543e-14
-3.57913e-14
3.69313e-14
-1.87577e-14
-8.37231e-14
4.45662e-14
1.13337e-13
-3.46002e-14
0
3.30989e-14
-3.36753e-14
-4.52148e-14
-4.40447e-14
-5.90441e-14
6.7792e-14
9.12504e-14
9.02561e-15
-2.44919e-14
1.59283e-14
7.59053e-15
7.759e-14
2.98771e-14
3.25181e-14
1.98172e-15
-5.46149e-14
-1.4079e-13
4.73491e-14
7.02221e-14
-3.38467e-14
1.72506e-14
7.93816e-14
-9.79063e-14
-3.59909e-14
1.40727e-13
-2.35864e-14
-9.81273e-14
-2.23332e-14
-8.62109e-14
-1.27908e-15
1.04539e-13
2.34017e-14
5.14941e-15
-3.49849e-14
3.59098e-14
2.52701e-14
-3.64591e-14
-4.04583e-14
1.91892e-14
7.43291e-14
-1.2239e-13
-7.54457e-14
1.16246e-13
-2.98228e-14
9.68043e-14
6.19681e-14
-8.19197e-14
2.38332e-14
2.68383e-15
-1.15935e-13
3.10874e-14
4.09326e-14
3.10559e-15
2.9592e-15
-3.72251e-14
-1.34769e-14
0
0
-9.43526e-14
9.69101e-14
1.95042e-13
-1.53585e-13
-1.22003e-13
6.41433e-14
1.34053e-14
4.86236e-14
1.0899e-13
3.65716e-15
-2.29923e-14
0
-2.4996e-14
1.1114e-14
1.05544e-14
-3.45996e-15
2.93513e-14
-3.1438e-14
-3.01696e-14
9.39985e-14
5.86975e-14
-8.17585e-14
-2.30753e-14
1.94435e-14
2.4767e-14
-6.56739e-14
2.08925e-15
-7.27815e-14
-3.25148e-15
3.09695e-14
-2.3137e-15
1.01637e-13
-1.27297e-14
-1.28726e-13
-2.33632e-14
-4.91466e-15
-3.28573e-14
4.04402e-14
-1.1261e-13
-1.08852e-13
7.06474e-14
7.5112e-14
9.60869e-14
-8.19252e-14
2.59131e-17
-1.96934e-15
-8.79326e-14
0
-2.81247e-14
-1.21151e-16
-5.10747e-14
2.83611e-14
3.05845e-14
1.10619e-15
-8.02957e-15
5.10318e-14
-3.47068e-14
-2.28663e-14
3.15475e-14
-4.80462e-14
-3.4402e-14
-5.74466e-14
-4.09678e-15
1.01838e-13
-5.57924e-15
4.85229e-14
-4.15913e-15
0
-1.87036e-14
1.77815e-14
-1.53114e-15
-9.7191e-15
3.02111e-16
-2.91186e-16
-2.90471e-16
4.2927e-14
0
-3.47703e-14
6.37086e-28
7.64674e-29
4.80728e-28
5.57948e-28
-3.0199e-14
0
2.8896e-14
-2.26385e-28
-2.78428e-14
2.73937e-14
2.96627e-28
-2.66222e-14
-1.82363e-28
2.59985e-14
2.57429e-14
-1.19992e-28
-3.98665e-29
1.83901e-14
-1.83579e-14
-5.33369e-14
0
1.45463e-14
-4.37565e-15
-4.93059e-14
-6.60374e-14
2.98568e-14
-3.43893e-14
-1.69285e-14
-3.33548e-14
-3.28895e-14
-1.62314e-14
-3.20728e-14
-3.17133e-14
-2.61775e-14
-1.55211e-14
-1.53495e-14
-5.06537e-15
1.60304e-13
1.65545e-14
-8.61284e-14
1.31786e-27
4.87305e-14
0
1.72366e-14
-6.1474e-14
1.47519e-27
5.88746e-14
-1.66832e-14
-1.89093e-28
-1.1475e-27
1.62017e-14
-5.56383e-28
-5.32834e-14
4.59132e-28
3.65437e-14
-1.54618e-14
-5.10842e-15
2.86383e-14
4.97695e-14
3.09915e-14
1.68851e-28
6.51766e-14
-1.58056e-14
-1.50155e-14
3.29506e-14
3.0145e-14
4.59623e-14
3.27066e-14
-1.21813e-14
4.38421e-15
1.60745e-14
5.90615e-14
1.5858e-14
5.87688e-30
5.74534e-14
3.09555e-14
1.02398e-14
-1.57388e-14
-1.36085e-14
-3.36773e-14
0
3.25507e-14
4.7377e-14
-4.69789e-14
-3.07109e-14
3.01177e-14
1.59541e-14
3.16345e-28
1.59575e-14
0
-1.58733e-14
0
1.573e-14
-2.65764e-14
1.97416e-28
1.06104e-28
5.25601e-30
3.59581e-14
1.2459e-14
-3.3071e-14
7.0666e-28
-1.84569e-28
1.46055e-14
1.49192e-14
-3.05382e-14
0
4.49467e-14
-8.04693e-28
-1.28897e-14
2.80507e-14
1.56196e-14
-2.72675e-14
1.55425e-14
2.66629e-14
2.64464e-14
-1.05242e-28
-9.49739e-29
1.07052e-14
1.15068e-14
1.22237e-14
0
1.33991e-14
0
1.4243e-14
0
0
0
1.51372e-14
0
0
1.53328e-14
0
0
0
1.52027e-14
1.51185e-14
5.01947e-15
-4.34124e-14
0
-1.14674e-14
0
-1.27056e-14
-1.32102e-14
0
0
0
-1.45401e-14
-1.47275e-14
-1.48682e-14
0
0
0
-1.50598e-14
0
-1.49852e-14
-1.49173e-14
-4.95859e-15
-9.58137e-14
-1.01322e-14
6.49078e-29
1.2616e-28
3.05843e-14
-4.29552e-14
-4.30946e-14
0
2.92704e-14
1.47852e-14
6.67411e-31
-4.27085e-14
-2.786e-14
-1.47259e-14
2.72607e-14
-1.47954e-14
1.07527e-28
2.66469e-14
1.02815e-28
-2.92783e-29
3.03657e-14
-7.23845e-29
-3.03248e-14
0
3.00124e-14
2.97893e-14
-2.95329e-14
-2.92517e-14
2.89539e-14
-5.80128e-28
-1.9581e-28
9.24293e-29
9.84331e-29
7.71969e-28
-8.77402e-29
1.35917e-28
-2.68167e-14
-9.99238e-29
-2.82434e-28
-3.3199e-29
-8.99398e-14
-1.98675e-28
-7.26515e-29
2.10046e-28
2.94391e-14
-2.92771e-14
-2.90823e-14
0
2.86224e-14
2.83712e-14
-9.26848e-29
-2.7859e-14
-2.76106e-14
1.88062e-28
2.71606e-14
-5.98909e-30
5.95492e-30
2.67069e-14
-2.81207e-28
-3.27343e-29
-3.01538e-16
-9.20106e-15
-2.89692e-14
0
2.88749e-14
4.03936e-14
-4.07285e-14
-5.34914e-14
2.8287e-14
1.31753e-14
1.78684e-28
1.36345e-14
-2.759e-14
-1.39147e-14
-2.79958e-14
1.40489e-14
-2.68106e-14
0
-1.83241e-28
0
2.81741e-14
9.15887e-15
-2.83251e-14
1.17259e-28
9.86864e-29
1.14821e-14
6.83265e-14
-2.80872e-14
-5.59154e-14
4.0791e-14
-2.72732e-28
4.09192e-14
2.73303e-14
1.37021e-14
-2.70264e-14
-3.99563e-14
2.67949e-14
2.67239e-14
9.16808e-29
-3.05548e-29
-9.42968e-29
9.24624e-15
1.36901e-28
0
-1.4973e-28
-1.14409e-14
1.18666e-14
2.44835e-14
0
-1.28447e-14
-2.86958e-28
-1.32646e-14
2.68256e-14
1.35246e-14
2.72087e-14
-1.3657e-14
0
1.90156e-28
5.57008e-28
2.45948e-30
-2.67967e-14
9.28815e-29
-1.74798e-29
1.08822e-28
2.73267e-14
-2.73756e-14
-2.73946e-14
0
2.73548e-14
2.73031e-14
-3.69996e-28
-2.71566e-14
-2.70703e-14
0
2.6894e-14
-5.30596e-30
-1.79958e-28
2.67089e-14
8.85943e-29
1.63376e-31
9.23686e-15
0
1.1928e-28
0
-4.86835e-29
-1.05151e-28
0
0
0
-1.80835e-28
-6.79351e-30
-9.00201e-29
0
0
0
-9.20656e-29
0
5.53714e-28
9.23966e-29
3.09922e-29
-4.90028e-14
1.55317e-14
3.35948e-29
-3.5654e-29
2.65106e-14
-3.85677e-14
-3.89499e-14
0
2.68882e-14
1.41234e-14
4.88723e-30
-3.99403e-14
-2.68701e-14
-1.32069e-14
2.6797e-14
-1.32834e-14
-8.96137e-29
2.66819e-14
-1.87359e-28
-9.91578e-31
1.44864e-14
-1.10377e-14
-1.42703e-14
0
3.8254e-14
2.63964e-14
-3.90106e-14
-2.66559e-14
2.67325e-14
-5.47053e-28
1.29552e-14
-5.95219e-30
-9.00326e-29
-1.31639e-14
-9.07378e-29
1.38627e-28
-2.67224e-14
1.32057e-14
1.31447e-14
4.41226e-15
-3.43826e-14
-2.50041e-14
-2.5386e-14
0
2.60034e-14
2.62357e-14
-2.64182e-14
-2.65542e-14
2.66485e-14
-3.20154e-28
1.84042e-28
3.88549e-29
8.98924e-29
2.74249e-28
9.05906e-29
2.74883e-28
-2.67444e-14
0
0
0
4.58153e-14
-3.97468e-15
-4.22009e-14
7.02924e-15
-1.21694e-14
2.81833e-14
5.18926e-14
-1.76142e-14
-3.14974e-14
0
1.18773e-15
5.30101e-14
5.51535e-14
4.9469e-14
-1.25073e-14
-6.39851e-14
-4.71129e-14
7.74374e-14
-2.13328e-14
3.86387e-14
-2.09676e-15
-4.76636e-14
-4.72799e-14
6.77447e-14
5.53464e-14
6.59414e-14
-6.73327e-15
-4.89516e-14
-2.42201e-15
7.9363e-15
-5.41318e-47
1.74207e-14
-1.49271e-14
-4.19337e-14
3.23357e-14
-5.13105e-14
-2.4459e-14
5.84396e-14
-3.84228e-15
8.51342e-14
1.95284e-14
2.48877e-14
0
-2.78175e-14
-2.20541e-14
9.79303e-15
-2.29877e-14
-1.06714e-14
-1.63605e-14
-7.62868e-14
-3.85096e-14
2.26172e-14
6.36504e-14
-2.12447e-14
-2.88955e-14
1.76069e-14
2.57068e-14
1.44334e-14
3.78129e-14
-3.49251e-14
-5.10876e-47
-6.92363e-15
2.38393e-14
2.02825e-14
-6.62656e-14
-2.02442e-14
6.36491e-14
-4.53784e-14
1.07902e-14
1.04522e-13
1.80131e-14
-2.47765e-15
4.27573e-16
4.44242e-15
-3.36171e-14
7.81662e-15
-1.34013e-15
-7.8223e-14
-4.8156e-14
4.67292e-14
1.45064e-15
-1.23665e-14
-1.90263e-14
6.08819e-14
9.7357e-15
-7.23489e-14
4.8931e-14
4.98887e-14
-5.2086e-14
-1.18871e-13
2.17025e-15
4.36796e-14
5.31911e-14
-4.05943e-14
3.22797e-14
1.09547e-14
5.15421e-14
1.29547e-13
2.71753e-14
-5.35099e-14
-3.61899e-15
4.8606e-14
3.3068e-14
-5.37135e-14
-5.1683e-14
6.46267e-14
4.45382e-14
2.49238e-14
2.62492e-14
2.34025e-16
-3.69937e-14
-4.22486e-14
-1.86133e-14
-1.88224e-14
-5.84891e-14
-4.13723e-14
3.86807e-14
3.87252e-14
7.16095e-14
1.22835e-14
1.97429e-14
1.97943e-14
-1.46837e-14
5.36928e-16
-4.67585e-14
-1.10957e-14
4.18318e-14
-4.02477e-17
-4.43077e-17
-3.55398e-15
-4.45184e-47
2.31894e-15
3.75795e-15
1.87015e-14
5.46858e-15
7.84572e-16
6.69874e-15
-2.25146e-14
-1.68807e-14
3.69998e-14
-4.34147e-47
0
-1.17289e-14
0
-5.1199e-14
1.62104e-14
7.11179e-14
6.00186e-14
-2.76405e-14
-8.46204e-14
-8.64942e-16
5.02061e-14
7.2695e-15
1.32522e-15
-3.93329e-14
-7.12641e-14
7.8334e-14
7.77505e-15
2.8327e-14
2.46602e-14
-1.60292e-14
-4.87373e-14
1.3811e-14
1.63492e-14
2.15253e-14
-5.49302e-14
1.5968e-15
5.13207e-14
-9.55704e-15
-9.55741e-15
3.52625e-18
5.80563e-15
2.50752e-14
-7.4626e-15
-5.16503e-14
0
-1.91682e-14
2.11601e-14
4.43691e-14
-2.7997e-14
-4.3081e-14
2.77589e-14
4.58385e-14
-2.72536e-14
-2.50795e-14
-9.63329e-15
0
-1.10167e-14
1.12254e-14
-8.86921e-17
4.5837e-14
1.86504e-14
2.26362e-15
2.31134e-14
6.53839e-15
-2.76644e-14
4.55969e-16
-1.26855e-14
2.11894e-14
-6.08149e-15
)
;

boundaryField
{
    left
    {
        type            symmetryPlane;
    }
    right
    {
        type            calculated;
        value           nonuniform List<scalar> 
30
(
1.60321e-17
-1.60702e-17
2.70341e-20
6.35985e-18
-1.92887e-17
1.36202e-17
8.29084e-18
2.88302e-17
-5.25266e-18
-2.38034e-17
-1.2257e-18
7.88553e-32
-1.72771e-17
-1.78376e-17
3.66447e-17
1.37164e-31
-1.17256e-31
1.98475e-17
-2.04764e-17
1.27008e-32
-1.51465e-31
-1.5798e-31
0
9.76886e-33
4.05006e-31
2.20087e-31
2.50947e-31
-1.0763e-32
7.75667e-17
0
)
;
    }
    down
    {
        type            symmetryPlane;
    }
    up
    {
        type            calculated;
        value           nonuniform List<scalar> 
30
(
4.5837e-14
1.86504e-14
2.26362e-15
2.31134e-14
6.53839e-15
-2.76644e-14
4.55969e-16
-1.26855e-14
2.11894e-14
-6.08149e-15
-3.43826e-14
-2.50041e-14
-2.5386e-14
0
2.60034e-14
2.62357e-14
-2.64182e-14
-2.65542e-14
2.66485e-14
-3.20154e-28
1.84042e-28
3.88549e-29
8.98924e-29
2.74249e-28
9.05906e-29
2.74883e-28
-2.67444e-14
0
0
0
)
;
    }
    hole
    {
        type            calculated;
        value           nonuniform List<scalar> 
20
(
-6.8766e-14
-8.13272e-14
0
-6.26155e-14
-3.66712e-14
-1.2961e-13
1.61319e-13
2.90747e-13
1.75268e-13
1.89995e-13
2.64487e-15
7.12021e-15
6.75593e-15
-9.55658e-15
-5.21302e-15
4.44922e-14
2.72096e-14
5.25513e-14
-2.18241e-14
-8.0077e-15
)
;
    }
    frontAndBack
    {
        type            empty;
    }
}


// ************************************************************************* //
