/*--------------------------------*- C++ -*----------------------------------*\
  =========                 |
  \\      /  F ield         | OpenFOAM: The Open Source CFD Toolbox
   \\    /   O peration     | Website:  https://openfoam.org
    \\  /    A nd           | Version:  9
     \\/     M anipulation  |
\*---------------------------------------------------------------------------*/
FoamFile
{
    format      ascii;
    class       volScalarField;
    location    "78";
    object      ddt0(h);
}
// * * * * * * * * * * * * * * * * * * * * * * * * * * * * * * * * * * * * * //

dimensions      [0 1 -1 0 0 0 0];

internalField   nonuniform List<scalar> 
400
(
1.87202e-08
-8.25756e-09
-2.51841e-08
-2.11579e-08
6.89876e-09
7.3638e-09
2.3355e-10
7.58797e-09
8.29669e-09
2.84205e-09
6.38838e-09
-1.68003e-08
-4.68731e-09
-2.89659e-08
-2.06242e-08
4.81163e-09
2.5508e-09
-1.32946e-08
-2.72533e-08
-1.42414e-08
-1.52184e-09
-1.3933e-08
-1.06165e-08
6.26198e-09
5.51975e-09
-1.47055e-08
1.82965e-09
-1.40249e-08
8.64685e-09
-1.6342e-08
-8.95006e-09
-1.64365e-09
-1.08544e-08
3.60591e-09
-4.87983e-09
2.22565e-09
1.21917e-08
1.44727e-08
6.22056e-09
-4.94331e-09
-1.98611e-08
-9.988e-09
1.20229e-08
2.23246e-08
-1.99164e-08
-1.44122e-08
-5.80438e-09
-1.55508e-08
-1.47816e-08
8.2516e-09
-2.69347e-08
2.17874e-08
-3.11477e-09
1.38725e-08
1.95358e-08
-2.80453e-09
4.09066e-09
1.40113e-08
6.32361e-09
2.39586e-09
-2.3265e-08
-2.67574e-09
2.05603e-08
5.07073e-09
-1.89562e-08
8.80101e-09
-2.46667e-08
-7.36549e-09
-2.94399e-08
5.22086e-09
2.6008e-08
-3.69574e-08
3.67733e-08
1.85413e-08
1.30103e-08
-8.16754e-10
-2.40379e-09
1.05323e-08
1.8429e-08
9.69907e-09
-1.32562e-08
-1.01464e-10
7.7492e-09
-1.29813e-08
3.15585e-09
4.68746e-09
-3.84231e-09
-3.84091e-08
5.08666e-08
-7.99774e-08
4.13477e-08
1.42754e-08
-5.31217e-08
4.38712e-08
2.14133e-08
-1.67503e-08
-1.33954e-08
6.00871e-09
1.9367e-08
1.1711e-08
-3.02589e-09
1.69334e-10
-5.36826e-09
-1.58007e-08
5.35927e-09
2.39142e-08
-3.29451e-08
5.16939e-08
-8.16631e-08
1.09295e-07
-1.50726e-07
1.3626e-07
-5.64435e-09
-5.75054e-08
5.60762e-09
-4.09916e-09
-1.95506e-08
-1.25905e-08
-6.9521e-11
3.00348e-09
2.24073e-09
1.06578e-09
-7.84695e-09
-1.56862e-08
1.86144e-08
-1.48035e-10
1.2068e-08
-1.20288e-08
-2.0179e-08
7.20538e-08
-1.36907e-07
-2.32991e-07
1.05119e-07
1.76453e-08
-2.96118e-08
-1.54631e-08
-2.04715e-08
-2.32756e-08
-1.53061e-08
-5.22562e-09
3.28748e-09
1.20211e-09
-4.81041e-09
-2.58442e-09
1.01387e-08
1.09669e-08
-2.82315e-08
-1.18175e-09
8.83759e-08
-3.83187e-07
-3.48036e-07
-3.29551e-07
-8.45492e-08
3.62173e-08
1.37158e-08
-4.59036e-09
-1.7819e-08
-2.77958e-08
-2.40059e-08
-9.40574e-09
1.8859e-09
2.25739e-10
1.52737e-09
7.20856e-09
9.79441e-09
-1.62489e-08
-8.61456e-09
-1.61021e-08
-5.56859e-08
4.51336e-07
3.26216e-07
3.89305e-07
1.51295e-07
2.27325e-08
3.0651e-08
1.7007e-08
-2.35834e-08
-1.66607e-08
-2.15185e-08
1.49758e-08
3.78462e-09
-2.23468e-09
6.44602e-09
1.44908e-08
-9.76876e-09
-1.78043e-08
-2.25098e-08
4.92383e-08
4.35781e-08
-6.58145e-08
1.74313e-07
1.60042e-07
-1.15803e-07
3.47828e-09
2.91889e-08
2.73862e-08
4.679e-08
8.42921e-09
-7.62318e-09
-3.10763e-08
9.56318e-09
-1.77664e-09
7.36339e-10
1.3567e-08
-1.94018e-08
-3.06823e-08
3.5849e-08
1.13035e-08
1.07692e-07
-3.48208e-07
3.1055e-07
-2.18764e-07
-1.19163e-07
-8.93744e-09
-1.17062e-08
2.02018e-08
3.89238e-08
2.16631e-08
-1.75967e-09
-4.61647e-09
1.55618e-08
5.59512e-11
-1.01977e-08
6.13035e-10
-6.50604e-09
-2.36737e-08
2.16494e-08
7.23234e-08
-1.32746e-07
4.01147e-07
-3.68805e-06
9.51259e-08
-4.70732e-09
-6.74203e-08
-2.01717e-08
2.96756e-08
3.15668e-08
1.27155e-08
-5.79791e-09
-6.26656e-09
1.34912e-08
4.00442e-09
-1.95453e-08
-1.0432e-08
1.0451e-08
7.25565e-09
-6.55725e-09
-2.40535e-08
1.18278e-07
-3.75042e-07
3.8522e-06
-1.6463e-07
1.98211e-08
4.74726e-08
1.66865e-08
-4.36056e-09
-1.00089e-08
-1.29504e-08
-1.06212e-08
-5.37165e-09
2.04752e-09
5.20104e-09
-1.4172e-08
-2.32591e-08
2.2771e-08
2.79836e-08
-1.15328e-08
-5.75605e-08
-3.67131e-08
3.25052e-07
-4.95607e-07
1.5994e-07
1.3511e-07
4.21758e-08
3.11361e-09
-2.36428e-08
-3.49631e-08
-1.85866e-08
5.68954e-09
7.35378e-09
-9.79733e-09
2.80748e-09
-7.263e-10
-1.93464e-08
-4.5711e-10
4.67029e-08
7.00611e-11
-5.04144e-08
-4.97741e-08
-3.144e-08
5.62053e-08
7.06378e-08
2.20805e-08
-1.55817e-09
-2.02815e-08
-4.18526e-08
-3.85792e-08
1.16371e-10
3.41945e-08
2.1982e-08
-1.21562e-08
-1.2888e-10
4.17235e-09
-8.36941e-09
-2.02394e-08
1.75427e-08
2.56173e-08
-1.82685e-08
-5.44461e-08
-3.63668e-08
4.50455e-08
-1.85353e-08
-2.56177e-08
-2.55399e-08
-2.84705e-08
-3.85253e-08
-1.17905e-08
3.04352e-08
4.6847e-08
2.2893e-08
-5.61284e-09
-2.66837e-09
-2.05416e-09
-2.75557e-09
-2.37766e-08
-1.11741e-08
1.75819e-08
1.55236e-08
-9.82166e-09
-1.52735e-08
-2.48963e-08
-2.36288e-08
-3.02715e-08
-1.59303e-08
-1.35391e-08
-6.55632e-09
2.07068e-08
3.80531e-08
3.02442e-08
1.07253e-08
-1.33882e-09
-4.60467e-09
-6.72452e-09
8.49095e-10
-1.36373e-08
-2.45773e-08
-3.27126e-11
1.41506e-08
1.5064e-08
4.32423e-09
3.12761e-09
1.0196e-09
-7.0977e-09
1.70162e-09
9.38064e-09
2.01852e-08
2.98087e-08
1.84947e-08
-7.48994e-10
-4.1801e-09
-7.64499e-09
-5.1055e-09
1.81725e-09
2.83376e-09
-4.73e-09
-2.11641e-08
-8.5994e-09
3.66519e-09
1.14393e-08
2.21791e-09
1.09252e-08
1.08392e-08
1.61483e-09
-4.48398e-09
7.7234e-09
2.54249e-08
1.4166e-08
-1.2207e-08
-2.07082e-08
-9.27302e-09
-1.82088e-08
-7.11016e-09
1.2957e-08
7.79418e-09
-4.63687e-09
-1.22231e-08
-1.07383e-08
2.42302e-09
2.8628e-09
-5.97614e-09
-4.04238e-09
3.43586e-09
-4.21746e-09
-2.4012e-08
-2.44046e-09
2.27084e-08
-8.25849e-10
-3.00685e-08
-2.57613e-08
-7.8619e-09
)
;

boundaryField
{
    sides
    {
        type            calculated;
        value           nonuniform List<scalar> 
40
(
-1.82088e-08
-7.11016e-09
1.2957e-08
7.79418e-09
-4.63687e-09
-1.22231e-08
-1.07383e-08
2.42302e-09
2.8628e-09
-5.97614e-09
-4.04238e-09
3.43586e-09
-4.21746e-09
-2.4012e-08
-2.44046e-09
2.27084e-08
-8.25849e-10
-3.00685e-08
-2.57613e-08
-7.8619e-09
1.87202e-08
-8.25756e-09
-2.51841e-08
-2.11579e-08
6.89876e-09
7.3638e-09
2.3355e-10
7.58797e-09
8.29669e-09
2.84205e-09
6.38838e-09
-1.68003e-08
-4.68731e-09
-2.89659e-08
-2.06242e-08
4.81163e-09
2.5508e-09
-1.32946e-08
-2.72533e-08
-1.42414e-08
)
;
    }
    inlet
    {
        type            calculated;
        value           nonuniform List<scalar> 
20
(
1.87202e-08
-1.52184e-09
-1.98611e-08
-2.3265e-08
-1.32562e-08
-3.02589e-09
2.24073e-09
3.28748e-09
1.8859e-09
3.78462e-09
9.56318e-09
1.55618e-08
1.34912e-08
2.04752e-09
-9.79733e-09
-1.21562e-08
-5.61284e-09
-1.33882e-09
-7.64499e-09
-1.82088e-08
)
;
    }
    outlet
    {
        type            calculated;
        value           uniform 0;
    }
    frontAndBack
    {
        type            empty;
    }
}


// ************************************************************************* //
