/*--------------------------------*- C++ -*----------------------------------*\
  =========                 |
  \\      /  F ield         | OpenFOAM: The Open Source CFD Toolbox
   \\    /   O peration     | Website:  https://openfoam.org
    \\  /    A nd           | Version:  9
     \\/     M anipulation  |
\*---------------------------------------------------------------------------*/
FoamFile
{
    format      ascii;
    class       volVectorField;
    location    "78";
    object      ddt0(hU);
}
// * * * * * * * * * * * * * * * * * * * * * * * * * * * * * * * * * * * * * //

dimensions      [0 2 -2 0 0 0 0];

internalField   nonuniform List<vector> 
400
(
(1.94469e-09 6.51247e-10 0)
(2.62135e-09 1.28829e-09 0)
(5.29066e-09 7.23168e-10 0)
(3.92314e-09 -2.17246e-09 0)
(-1.70633e-10 -4.19479e-09 0)
(-2.80448e-09 -1.45861e-09 0)
(-2.79839e-09 -4.814e-10 0)
(-6.77581e-10 1.21038e-09 0)
(-1.31686e-09 9.62448e-10 0)
(-2.92031e-09 3.57844e-09 0)
(-5.83847e-10 2.57851e-09 0)
(-2.18951e-09 3.78397e-09 0)
(2.58266e-09 2.39943e-09 0)
(5.17926e-10 1.09938e-09 0)
(-2.26872e-09 1.13914e-09 0)
(-2.01285e-09 -7.98919e-11 0)
(-4.83802e-09 1.01086e-09 0)
(-5.66915e-09 4.3918e-09 0)
(-9.64418e-10 5.39125e-09 0)
(6.64711e-09 3.01803e-09 0)
(8.30699e-10 3.05816e-09 0)
(2.701e-09 3.64085e-09 0)
(3.05131e-09 6.01117e-10 0)
(1.81032e-09 -5.99901e-09 0)
(7.39672e-10 -8.03282e-09 0)
(-1.04779e-09 -2.21455e-09 0)
(-2.35895e-10 -1.73095e-09 0)
(-1.73969e-09 3.43266e-09 0)
(9.17126e-10 2.36433e-09 0)
(-2.88573e-09 7.04306e-09 0)
(-1.65643e-09 5.33675e-09 0)
(-7.45471e-10 5.47221e-09 0)
(-1.05307e-09 6.7672e-09 0)
(2.21737e-09 2.2357e-09 0)
(-1.78513e-09 1.9627e-09 0)
(-2.07869e-09 9.86855e-10 0)
(8.82241e-10 1.76676e-09 0)
(1.41364e-09 7.19227e-09 0)
(1.11581e-09 1.04066e-08 0)
(7.44678e-10 5.23942e-09 0)
(-7.98526e-10 4.13676e-09 0)
(7.0509e-10 3.71843e-09 0)
(-1.13795e-09 -6.04373e-10 0)
(-2.44678e-10 -5.04125e-09 0)
(1.84284e-09 -3.50812e-09 0)
(1.95189e-09 -3.32074e-09 0)
(1.56576e-09 -1.79028e-09 0)
(3.0668e-10 1.48297e-09 0)
(-4.898e-10 4.69853e-09 0)
(1.3565e-09 1.1393e-09 0)
(-4.75517e-09 6.49873e-09 0)
(3.25184e-09 1.44935e-09 0)
(-1.11097e-09 3.86607e-09 0)
(-8.46779e-10 3.95671e-09 0)
(6.2901e-10 1.50753e-09 0)
(-2.09808e-09 2.06793e-09 0)
(2.29525e-09 1.96363e-09 0)
(5.40079e-09 3.3997e-09 0)
(2.44108e-10 5.75535e-09 0)
(-5.04132e-09 3.10269e-09 0)
(-1.58445e-09 1.73446e-09 0)
(-1.39737e-09 1.2631e-09 0)
(-3.31093e-09 -2.25413e-10 0)
(-9.1311e-10 1.24359e-09 0)
(1.4922e-09 1.6088e-09 0)
(3.66871e-09 -3.64304e-09 0)
(1.12088e-09 -1.67905e-09 0)
(4.10416e-09 -5.01217e-10 0)
(-3.65237e-09 2.88939e-10 0)
(1.71111e-09 1.47377e-09 0)
(3.64626e-09 -7.74854e-09 0)
(-6.94274e-09 4.67834e-09 0)
(5.35667e-09 -2.67657e-09 0)
(3.28405e-10 -6.69039e-10 0)
(-1.89537e-09 2.11426e-09 0)
(-5.66287e-10 2.27335e-09 0)
(1.93212e-09 3.66657e-10 0)
(4.21231e-09 -2.64883e-09 0)
(1.11605e-09 -2.31453e-09 0)
(-5.55201e-09 -7.091e-11 0)
(-1.06509e-09 -1.30459e-09 0)
(-2.08093e-09 -9.32085e-10 0)
(-2.64556e-09 1.5511e-09 0)
(-1.25921e-09 5.34645e-09 0)
(1.09602e-09 3.21966e-09 0)
(1.23369e-09 -1.7095e-09 0)
(3.98495e-09 -1.77996e-09 0)
(-1.72797e-09 -4.69208e-10 0)
(7.4639e-09 -8.11331e-09 0)
(-1.43505e-08 6.62751e-09 0)
(6.41864e-09 -7.0326e-09 0)
(8.41322e-09 -7.2622e-09 0)
(-1.31322e-08 4.0471e-09 0)
(5.74173e-09 -3.80598e-09 0)
(3.93578e-09 -2.15819e-09 0)
(-3.55544e-09 1.11595e-09 0)
(-2.86971e-09 -1.49489e-09 0)
(9.46497e-10 -6.30813e-09 0)
(2.45527e-09 -6.38134e-09 0)
(-1.05292e-09 -2.37425e-09 0)
(-1.28872e-10 -2.9116e-09 0)
(-7.76365e-10 -1.33271e-09 0)
(-9.51959e-10 2.46207e-09 0)
(-4.4695e-10 5.15553e-09 0)
(-1.20025e-09 2.34986e-09 0)
(9.80333e-10 -1.12685e-09 0)
(4.58944e-10 -3.1052e-10 0)
(1.89029e-09 -6.03382e-09 0)
(-2.8959e-09 6.75201e-09 0)
(1.51058e-08 -1.94201e-08 0)
(-2.68692e-08 3.5934e-08 0)
(2.18791e-08 -1.73399e-08 0)
(3.62537e-09 -8.30657e-09 0)
(-1.53494e-08 3.47053e-09 0)
(2.50591e-09 -2.9354e-10 0)
(1.77033e-09 -2.37946e-10 0)
(-5.5228e-09 -1.66856e-09 0)
(-4.18963e-09 -4.62144e-09 0)
(6.54797e-10 -4.50585e-09 0)
(1.83949e-09 -1.73049e-09 0)
(9.0036e-10 -2.55937e-09 0)
(9.5412e-10 -7.0484e-10 0)
(8.20166e-10 2.18441e-09 0)
(-7.46121e-10 2.63257e-09 0)
(-1.72238e-09 -1.91387e-10 0)
(-1.06873e-09 -1.00185e-09 0)
(-3.36193e-10 -1.45076e-09 0)
(5.72525e-09 6.74847e-10 0)
(-1.31351e-08 4.94545e-09 0)
(2.98205e-08 -1.17407e-08 0)
(-5.13706e-09 1.60924e-07 0)
(-6.26797e-08 4.0661e-08 0)
(2.29425e-08 -1.10571e-08 0)
(1.0045e-08 -1.41531e-09 0)
(-5.04355e-09 4.9027e-09 0)
(-2.85889e-09 1.98687e-09 0)
(-6.22434e-09 -4.86034e-10 0)
(-5.93083e-09 -1.28759e-09 0)
(-9.44207e-10 -7.86281e-10 0)
(2.1684e-09 8.78201e-11 0)
(1.36311e-09 -1.39431e-09 0)
(2.09993e-09 -1.88878e-10 0)
(1.05501e-09 1.28276e-09 0)
(-7.17313e-10 -1.47793e-10 0)
(-2.62819e-09 -2.02213e-09 0)
(-7.36264e-10 -1.28686e-10 0)
(1.506e-09 -2.4875e-10 0)
(1.24608e-09 5.51803e-09 0)
(9.5956e-10 -2.72289e-09 0)
(1.19692e-07 2.2368e-08 0)
(1.41026e-08 -1.90314e-07 0)
(-2.01766e-07 -3.43071e-08 0)
(-4.81171e-08 4.18467e-09 0)
(9.7799e-09 -3.73197e-09 0)
(6.99155e-09 -5.46262e-10 0)
(-2.11737e-09 2.00298e-09 0)
(-7.0877e-09 1.559e-09 0)
(-6.92358e-09 1.62697e-09 0)
(-2.72061e-09 1.81323e-09 0)
(9.73241e-10 1.48587e-09 0)
(1.46908e-09 -6.8908e-10 0)
(2.15654e-09 -3.36549e-10 0)
(6.96287e-10 1.59264e-10 0)
(-1.17654e-09 -1.83262e-09 0)
(-1.20897e-09 -1.8496e-09 0)
(-1.92177e-10 2.22563e-09 0)
(2.29767e-09 3.62997e-09 0)
(1.67621e-09 1.82355e-09 0)
(-6.48212e-10 -7.17202e-09 0)
(-1.14896e-07 1.4404e-08 0)
(-2.33809e-08 -1.89231e-07 0)
(2.0092e-07 -3.06592e-08 0)
(5.6716e-08 2.96472e-09 0)
(3.89826e-09 -6.07541e-09 0)
(7.03807e-09 -6.21864e-09 0)
(3.88565e-09 -3.68908e-09 0)
(-5.74723e-09 -3.22671e-10 0)
(-5.70192e-09 2.60035e-09 0)
(-3.39987e-09 3.11257e-09 0)
(1.47643e-09 7.68794e-10 0)
(1.45394e-09 -3.66047e-10 0)
(1.6381e-09 -1.07019e-09 0)
(1.90308e-11 -7.8671e-10 0)
(-6.48924e-10 -1.54781e-09 0)
(3.60302e-10 -4.00388e-10 0)
(2.3838e-09 4.42043e-09 0)
(1.10221e-09 3.29238e-09 0)
(-5.54901e-09 -3.38025e-09 0)
(9.18899e-09 -9.62536e-09 0)
(-2.53386e-08 -9.63831e-09 0)
(1.38616e-08 1.26803e-07 0)
(4.79496e-08 5.93635e-08 0)
(-2.71677e-08 -7.11521e-09 0)
(-3.83127e-09 -5.66017e-09 0)
(1.10738e-08 -5.86401e-09 0)
(7.8422e-09 -8.22727e-09 0)
(6.4429e-09 -4.39518e-09 0)
(-2.68172e-10 5.69437e-12 0)
(-3.54537e-09 1.06882e-09 0)
(-3.68022e-09 -7.52874e-11 0)
(1.4141e-09 5.28283e-10 0)
(9.14289e-10 -1.34168e-09 0)
(3.2846e-11 -1.50561e-09 0)
(2.6119e-11 5.03297e-10 0)
(2.18614e-09 1.11722e-09 0)
(2.37462e-09 1.75001e-09 0)
(-1.38525e-09 1.40311e-09 0)
(-8.74497e-09 -6.49123e-09 0)
(7.88929e-09 -2.27403e-10 0)
(-4.67416e-08 -1.47185e-10 0)
(5.21933e-08 1.13615e-07 0)
(-1.11852e-08 -2.57999e-08 0)
(-3.80146e-08 5.00252e-09 0)
(2.65974e-09 4.14448e-09 0)
(5.52856e-10 -3.10061e-09 0)
(5.9953e-09 -4.96932e-09 0)
(9.03722e-09 -2.49027e-09 0)
(3.3837e-09 -1.90065e-09 0)
(-1.59496e-09 -2.30295e-09 0)
(-2.81579e-10 -4.93306e-10 0)
(9.8379e-10 2.04506e-09 0)
(-1.97229e-10 -5.08582e-10 0)
(6.84847e-10 -1.71933e-09 0)
(6.43337e-10 1.37252e-09 0)
(1.63028e-09 2.0422e-09 0)
(1.92356e-09 -3.28234e-09 0)
(-2.52836e-09 -4.17986e-09 0)
(-5.34638e-09 3.69072e-09 0)
(-1.69249e-09 1.00624e-08 0)
(1.45391e-07 -1.59994e-08 0)
(-3.99939e-07 -6.68215e-08 0)
(-8.75181e-08 -7.48979e-09 0)
(1.80363e-08 -1.30361e-09 0)
(-1.86976e-08 4.9977e-09 0)
(-2.86825e-09 6.29298e-09 0)
(8.68564e-09 5.70898e-09 0)
(7.80548e-09 2.39998e-09 0)
(3.53809e-10 -8.92133e-10 0)
(-1.96966e-09 -3.02966e-09 0)
(1.5461e-09 -1.51637e-09 0)
(-5.88472e-11 3.20818e-09 0)
(-1.38137e-09 1.17123e-09 0)
(9.23042e-10 -1.92176e-09 0)
(1.25325e-09 -3.5552e-10 0)
(-2.905e-10 1.44322e-09 0)
(-7.05089e-10 -4.55376e-09 0)
(1.61756e-09 -7.16701e-09 0)
(2.97557e-09 3.4936e-09 0)
(-1.10874e-08 1.6869e-08 0)
(-1.29213e-07 -1.0121e-08 0)
(4.18994e-07 -9.13788e-08 0)
(6.30957e-08 1.4147e-09 0)
(-1.22891e-08 -2.0575e-09 0)
(1.68434e-08 9.91766e-09 0)
(4.29819e-09 1.08497e-08 0)
(-9.40564e-10 7.53974e-09 0)
(-3.23916e-09 2.38033e-09 0)
(-5.1701e-09 9.6476e-11 0)
(-2.5695e-09 -1.26023e-09 0)
(3.29885e-09 -7.65089e-10 0)
(-1.32631e-09 3.4227e-09 0)
(-2.81817e-09 2.33789e-09 0)
(2.14081e-10 -1.70784e-09 0)
(1.23478e-09 -4.1136e-09 0)
(-8.82742e-10 -3.91842e-10 0)
(-2.37612e-09 -1.24948e-09 0)
(2.66183e-09 -4.15636e-09 0)
(6.89521e-09 -4.49302e-09 0)
(-5.11184e-09 -4.58378e-10 0)
(2.92972e-08 2.97711e-08 0)
(-6.86808e-08 9.10567e-08 0)
(1.10335e-08 -6.88576e-10 0)
(4.02857e-08 2.02205e-08 0)
(6.84118e-09 8.81496e-09 0)
(-2.84173e-09 1.77388e-09 0)
(-6.31062e-09 -9.50722e-10 0)
(-7.6212e-09 -7.64881e-10 0)
(-5.71922e-09 1.05973e-09 0)
(-2.60165e-10 1.99625e-09 0)
(4.4129e-09 1.15034e-09 0)
(-2.26453e-09 2.36405e-09 0)
(-3.93951e-09 1.81477e-09 0)
(-1.88601e-09 -1.25533e-09 0)
(1.02266e-09 -5.71012e-09 0)
(-1.2259e-10 -3.49001e-09 0)
(-1.41435e-09 3.31473e-09 0)
(-1.41243e-10 1.12156e-09 0)
(5.34474e-09 -4.76628e-09 0)
(6.62808e-09 -9.85457e-09 0)
(-4.13968e-09 3.04386e-09 0)
(4.85618e-09 -3.34764e-09 0)
(1.24786e-08 2.69537e-08 0)
(1.20281e-09 6.13531e-09 0)
(-5.5369e-09 -2.72911e-09 0)
(-9.03782e-09 -6.42138e-09 0)
(-8.69264e-09 -6.82711e-09 0)
(-5.62932e-09 -2.92858e-09 0)
(-1.84128e-10 2.25114e-09 0)
(4.17869e-09 4.37744e-09 0)
(3.47617e-09 2.28035e-09 0)
(-2.34724e-09 2.51703e-10 0)
(-4.43205e-09 -5.62879e-11 0)
(-3.58576e-09 -8.68773e-10 0)
(-2.36405e-10 -3.27878e-09 0)
(1.8984e-09 -3.8861e-09 0)
(4.09888e-10 3.64003e-09 0)
(-7.71793e-10 6.67503e-09 0)
(1.44874e-09 6.6422e-10 0)
(1.06273e-09 -8.02544e-09 0)
(-1.49058e-09 -1.02021e-08 0)
(7.32484e-09 -3.55688e-09 0)
(3.58863e-09 -6.51763e-09 0)
(-4.76198e-09 -7.17353e-09 0)
(-1.07321e-08 -9.79828e-09 0)
(-9.94582e-09 -9.56099e-09 0)
(-6.01726e-09 -6.83538e-09 0)
(2.10571e-09 -1.16309e-09 0)
(7.56943e-09 3.22842e-09 0)
(6.16637e-09 3.57812e-09 0)
(2.00648e-10 1.42277e-09 0)
(-1.69525e-09 -2.20033e-09 0)
(-3.71135e-09 -1.60516e-09 0)
(-3.47917e-09 -1.06532e-10 0)
(-9.14321e-10 6.42254e-10 0)
(2.39826e-09 -7.6866e-10 0)
(2.52579e-09 1.53274e-09 0)
(-2.81818e-10 5.76467e-09 0)
(-1.1384e-09 3.96192e-09 0)
(5.38891e-11 -1.81289e-09 0)
(5.64443e-10 -4.09076e-09 0)
(-1.11363e-09 -2.07416e-09 0)
(-9.20918e-10 -5.15239e-09 0)
(-5.61263e-09 -8.36026e-09 0)
(-7.74566e-09 -7.0756e-09 0)
(-5.30428e-09 -4.06708e-09 0)
(1.52243e-09 -8.06462e-10 0)
(8.74072e-09 1.99936e-09 0)
(9.41969e-09 2.38037e-09 0)
(3.64483e-09 6.14356e-10 0)
(-2.98601e-09 -2.88179e-10 0)
(-6.98402e-10 -4.00949e-09 0)
(-1.31134e-09 -1.75984e-09 0)
(-1.04788e-09 7.29248e-10 0)
(-3.64351e-10 3.02974e-09 0)
(1.60034e-09 2.70038e-09 0)
(1.83039e-09 4.82086e-10 0)
(1.01437e-10 9.83405e-10 0)
(-1.36548e-09 1.18252e-09 0)
(2.79402e-10 7.81288e-10 0)
(1.09163e-09 5.14725e-12 0)
(6.09908e-10 1.49384e-09 0)
(-9.4621e-10 5.49532e-11 0)
(-3.41534e-09 -2.10302e-09 0)
(-2.17653e-09 5.98829e-10 0)
(2.06999e-10 4.08782e-09 0)
(4.39207e-09 4.23368e-09 0)
(7.98164e-09 1.83948e-09 0)
(5.90135e-09 -7.27132e-10 0)
(-4.05616e-10 -2.39493e-09 0)
(-4.79335e-09 -1.52497e-09 0)
(1.43485e-11 -4.59528e-09 0)
(2.28703e-09 -1.23519e-09 0)
(2.56319e-09 1.39389e-09 0)
(1.32581e-09 3.01347e-09 0)
(3.27171e-10 4.1161e-09 0)
(-9.7597e-10 4.98946e-10 0)
(-1.41658e-09 -1.6931e-09 0)
(-1.28052e-09 -2.54735e-09 0)
(1.30037e-09 -1.14116e-09 0)
(1.99128e-09 -3.31418e-10 0)
(1.35766e-09 1.90996e-09 0)
(-1.17674e-09 1.06531e-09 0)
(-7.51002e-10 7.84116e-10 0)
(8.34016e-10 3.50064e-09 0)
(5.41469e-10 5.5957e-09 0)
(1.20135e-09 3.9454e-09 0)
(1.91636e-09 -4.89449e-10 0)
(8.95027e-10 -3.35036e-09 0)
(-1.88906e-09 -3.55778e-09 0)
(-3.76517e-09 -1.59498e-09 0)
(5.17882e-10 -2.29105e-09 0)
(5.83482e-09 -4.86606e-10 0)
(5.51228e-09 8.49762e-10 0)
(2.88406e-09 1.3077e-09 0)
(-8.10172e-10 1.93602e-09 0)
(-3.27859e-09 3.68647e-10 0)
(-3.57602e-09 -1.07336e-09 0)
(-1.2383e-09 -1.6715e-09 0)
(1.50509e-09 -1.13003e-09 0)
(2.48187e-09 -7.0686e-10 0)
(5.88296e-10 3.49509e-10 0)
(-1.94334e-09 2.3161e-10 0)
(7.87286e-13 3.90206e-10 0)
(8.44162e-10 1.37755e-09 0)
(-4.57681e-10 2.11222e-09 0)
(-2.22254e-09 1.33922e-09 0)
(-3.1716e-09 -8.27254e-10 0)
(-1.60806e-09 -1.97623e-09 0)
(-9.9938e-10 -1.62835e-09 0)
(-2.09195e-09 -6.1461e-10 0)
)
;

boundaryField
{
    sides
    {
        type            calculated;
        value           nonuniform List<vector> 
40
(
(5.17882e-10 0 0)
(5.83482e-09 0 0)
(5.51228e-09 0 0)
(2.88406e-09 0 0)
(-8.10172e-10 0 0)
(-3.27859e-09 0 0)
(-3.57602e-09 0 0)
(-1.2383e-09 0 0)
(1.50509e-09 0 0)
(2.48187e-09 0 0)
(5.88296e-10 0 0)
(-1.94334e-09 0 0)
(7.87286e-13 0 0)
(8.44162e-10 0 0)
(-4.57681e-10 0 0)
(-2.22254e-09 0 0)
(-3.1716e-09 0 0)
(-1.60806e-09 0 0)
(-9.9938e-10 0 0)
(-2.09195e-09 0 0)
(1.94469e-09 0 0)
(2.62135e-09 0 0)
(5.29066e-09 0 0)
(3.92314e-09 0 0)
(-1.70633e-10 0 0)
(-2.80448e-09 0 0)
(-2.79839e-09 0 0)
(-6.77581e-10 0 0)
(-1.31686e-09 0 0)
(-2.92031e-09 0 0)
(-5.83847e-10 0 0)
(-2.18951e-09 0 0)
(2.58266e-09 0 0)
(5.17926e-10 0 0)
(-2.26872e-09 0 0)
(-2.01285e-09 0 0)
(-4.83802e-09 0 0)
(-5.66915e-09 0 0)
(-9.64418e-10 0 0)
(6.64711e-09 0 0)
)
;
    }
    inlet
    {
        type            calculated;
        value           uniform (0 0 0);
    }
    outlet
    {
        type            calculated;
        value           nonuniform List<vector> 
20
(
(6.64711e-09 3.01803e-09 0)
(7.44678e-10 5.23942e-09 0)
(-5.04132e-09 3.10269e-09 0)
(-5.55201e-09 -7.091e-11 0)
(-1.05292e-09 -2.37425e-09 0)
(1.83949e-09 -1.73049e-09 0)
(2.1684e-09 8.78201e-11 0)
(9.73241e-10 1.48587e-09 0)
(1.47643e-09 7.68794e-10 0)
(-3.68022e-09 -7.52874e-11 0)
(-2.81579e-10 -4.93306e-10 0)
(1.5461e-09 -1.51637e-09 0)
(3.29885e-09 -7.65089e-10 0)
(4.4129e-09 1.15034e-09 0)
(3.47617e-09 2.28035e-09 0)
(2.00648e-10 1.42277e-09 0)
(-2.98601e-09 -2.88179e-10 0)
(-4.79335e-09 -1.52497e-09 0)
(-3.76517e-09 -1.59498e-09 0)
(-2.09195e-09 -6.1461e-10 0)
)
;
    }
    frontAndBack
    {
        type            empty;
    }
}


// ************************************************************************* //
