/*--------------------------------*- C++ -*----------------------------------*\
  =========                 |
  \\      /  F ield         | OpenFOAM: The Open Source CFD Toolbox
   \\    /   O peration     | Website:  https://openfoam.org
    \\  /    A nd           | Version:  9
     \\/     M anipulation  |
\*---------------------------------------------------------------------------*/
FoamFile
{
    format      ascii;
    class       volVectorField;
    location    "78";
    object      hU;
}
// * * * * * * * * * * * * * * * * * * * * * * * * * * * * * * * * * * * * * //

dimensions      [0 2 -1 0 0 0 0];

internalField   nonuniform List<vector> 
400
(
(0.001 -2.44376e-08 0)
(0.00100004 -7.0411e-08 0)
(0.00100012 -1.12871e-07 0)
(0.00100024 -1.52275e-07 0)
(0.00100039 -1.87561e-07 0)
(0.00100058 -2.1696e-07 0)
(0.00100078 -2.37077e-07 0)
(0.00100099 -2.45417e-07 0)
(0.00100118 -2.36429e-07 0)
(0.00100133 -2.11231e-07 0)
(0.0010014 -1.6847e-07 0)
(0.0010014 -1.28117e-07 0)
(0.00100129 -9.84447e-08 0)
(0.00100111 -9.25018e-08 0)
(0.00100087 -9.92883e-08 0)
(0.00100065 -1.3551e-07 0)
(0.00100044 -1.56304e-07 0)
(0.00100034 -2.00375e-07 0)
(0.00100026 -1.87747e-07 0)
(0.00100033 -2.68077e-07 0)
(0.001 -2.67944e-08 0)
(0.00100005 -7.83206e-08 0)
(0.00100013 -1.27521e-07 0)
(0.00100026 -1.74049e-07 0)
(0.00100042 -2.13995e-07 0)
(0.00100062 -2.40776e-07 0)
(0.00100084 -2.46235e-07 0)
(0.00100108 -2.20343e-07 0)
(0.0010013 -1.54562e-07 0)
(0.00100147 -4.73249e-08 0)
(0.00100156 9.42834e-08 0)
(0.00100154 2.48555e-07 0)
(0.00100141 3.91041e-07 0)
(0.00100119 4.78052e-07 0)
(0.00100093 5.05962e-07 0)
(0.00100067 4.52124e-07 0)
(0.00100048 3.78705e-07 0)
(0.00100037 2.58286e-07 0)
(0.00100033 2.06886e-07 0)
(0.00100029 8.17262e-08 0)
(0.001 -5.22199e-08 0)
(0.00100004 -1.58332e-07 0)
(0.00100013 -2.66289e-07 0)
(0.00100026 -3.73906e-07 0)
(0.00100043 -4.74057e-07 0)
(0.00100065 -5.55914e-07 0)
(0.0010009 -6.03729e-07 0)
(0.00100117 -5.9731e-07 0)
(0.00100143 -5.17426e-07 0)
(0.00100164 -3.51269e-07 0)
(0.00100176 -1.08884e-07 0)
(0.00100176 1.63583e-07 0)
(0.00100159 4.03403e-07 0)
(0.00100131 5.21662e-07 0)
(0.00100095 5.00421e-07 0)
(0.00100062 3.54112e-07 0)
(0.00100037 2.03256e-07 0)
(0.00100026 4.67493e-08 0)
(0.00100022 -2.21691e-09 0)
(0.0010003 -1.16711e-07 0)
(0.001 -7.29972e-08 0)
(0.00100004 -2.21721e-07 0)
(0.00100013 -3.74609e-07 0)
(0.00100026 -5.30514e-07 0)
(0.00100045 -6.80636e-07 0)
(0.00100069 -8.1007e-07 0)
(0.001001 -8.88772e-07 0)
(0.00100134 -8.84908e-07 0)
(0.00100171 -7.54876e-07 0)
(0.00100203 -4.74556e-07 0)
(0.00100222 -2.28948e-08 0)
(0.00100219 4.93967e-07 0)
(0.00100193 9.37748e-07 0)
(0.00100146 1.14048e-06 0)
(0.00100097 1.05511e-06 0)
(0.00100058 7.42991e-07 0)
(0.00100041 4.23628e-07 0)
(0.00100035 1.70293e-07 0)
(0.0010004 1.02609e-07 0)
(0.00100035 5.8634e-10 0)
(0.001 -9.03926e-08 0)
(0.00100004 -2.77468e-07 0)
(0.00100012 -4.76765e-07 0)
(0.00100025 -6.93766e-07 0)
(0.00100044 -9.2052e-07 0)
(0.00100072 -1.13904e-06 0)
(0.0010011 -1.2982e-06 0)
(0.00100155 -1.33611e-06 0)
(0.00100207 -1.17493e-06 0)
(0.00100257 -7.7771e-07 0)
(0.0010029 -1.70488e-07 0)
(0.00100288 5.79175e-07 0)
(0.00100244 1.23164e-06 0)
(0.00100167 1.51158e-06 0)
(0.00100086 1.3748e-06 0)
(0.00100031 9.6405e-07 0)
(0.00100013 5.80612e-07 0)
(0.00100022 3.13803e-07 0)
(0.00100037 2.62002e-07 0)
(0.00100043 1.67798e-07 0)
(0.001 -1.02847e-07 0)
(0.00100003 -3.17893e-07 0)
(0.00100009 -5.61702e-07 0)
(0.00100019 -8.44357e-07 0)
(0.00100038 -1.1727e-06 0)
(0.00100068 -1.52499e-06 0)
(0.00100115 -1.85848e-06 0)
(0.00100179 -2.05329e-06 0)
(0.00100254 -1.91046e-06 0)
(0.00100326 -1.20015e-06 0)
(0.00100377 8.6507e-08 0)
(0.00100378 1.54208e-06 0)
(0.0010031 2.43424e-06 0)
(0.00100192 2.30548e-06 0)
(0.00100082 1.42992e-06 0)
(0.00100019 4.91797e-07 0)
(0.00100017 1.22647e-08 0)
(0.00100037 -8.63073e-08 0)
(0.00100064 5.96847e-08 0)
(0.00100055 4.97401e-08 0)
(0.001 -1.0226e-07 0)
(0.001 -3.32791e-07 0)
(0.00100002 -6.01302e-07 0)
(0.00100008 -9.61763e-07 0)
(0.00100021 -1.39279e-06 0)
(0.00100048 -1.94667e-06 0)
(0.001001 -2.48906e-06 0)
(0.00100188 -3.08327e-06 0)
(0.00100321 -3.2323e-06 0)
(0.00100473 -2.8796e-06 0)
(0.00100574 -6.61044e-07 0)
(0.00100535 2.56039e-06 0)
(0.0010035 4.82819e-06 0)
(0.00100112 4.7371e-06 0)
(0.000999608 3.02875e-06 0)
(0.000999371 1.26373e-06 0)
(0.00100001 4.30531e-07 0)
(0.00100056 3.26329e-07 0)
(0.00100093 5.62064e-07 0)
(0.00100066 5.33939e-07 0)
(0.000999996 -9.23521e-08 0)
(0.000999968 -2.88115e-07 0)
(0.000999908 -5.76409e-07 0)
(0.000999876 -9.568e-07 0)
(0.000999879 -1.57828e-06 0)
(0.0010001 -2.34551e-06 0)
(0.0010005 -3.40239e-06 0)
(0.00100153 -4.12367e-06 0)
(0.00100308 -4.37265e-06 0)
(0.00100602 -2.55029e-06 0)
(0.00100912 7.4087e-07 0)
(0.00100914 4.26037e-06 0)
(0.0010055 4.7177e-06 0)
(0.00100074 2.78189e-06 0)
(0.000998151 7.35439e-07 0)
(0.000998274 -2.74375e-07 0)
(0.000999797 -2.8575e-07 0)
(0.00100088 -9.38583e-09 0)
(0.00100133 2.12553e-07 0)
(0.00100085 1.03049e-07 0)
(0.000999995 -4.90584e-08 0)
(0.000999915 -2.0337e-07 0)
(0.000999756 -3.86191e-07 0)
(0.000999531 -7.35256e-07 0)
(0.000999288 -1.3394e-06 0)
(0.000999211 -2.48187e-06 0)
(0.000999708 -4.68704e-06 0)
(0.00100139 -8.0676e-06 0)
(0.00100491 -1.3286e-05 0)
(0.00100957 -1.49144e-05 0)
(0.00101187 3.82845e-06 0)
(0.00100894 1.87222e-05 0)
(0.00100222 1.57793e-05 0)
(0.000997569 5.74049e-06 0)
(0.000996887 -3.16725e-07 0)
(0.000998461 -1.26343e-06 0)
(0.00100027 -9.3686e-08 0)
(0.001001 6.35646e-07 0)
(0.00100107 6.52886e-07 0)
(0.00100054 2.44191e-07 0)
(0.000999804 -1.9613e-08 0)
(0.00100017 -6.65293e-08 0)
(0.000999216 -1.51466e-07 0)
(0.000999905 -2.49089e-07 0)
(0.000997522 -5.92847e-07 0)
(0.000998844 -1.13139e-06 0)
(0.000993348 -2.88303e-06 0)
(0.000997531 -5.59239e-06 0)
(0.000991668 -1.15429e-05 0)
(0.000915831 -1.27068e-05 0)
(0.000951468 2.80464e-07 0)
(0.00101023 1.46437e-05 0)
(0.000990951 1.30831e-05 0)
(0.000983977 5.13974e-06 0)
(0.000989588 1.9317e-07 0)
(0.000996283 -7.82082e-07 0)
(0.000999237 -1.11135e-07 0)
(0.000999412 2.49178e-07 0)
(0.000998648 1.75154e-07 0)
(0.000998506 -1.84463e-07 0)
(0.000999804 1.32412e-08 0)
(0.00100017 4.57018e-08 0)
(0.000999216 1.16986e-07 0)
(0.000999903 1.99647e-07 0)
(0.000997519 5.29295e-07 0)
(0.000998839 1.05149e-06 0)
(0.00099334 2.78664e-06 0)
(0.000997519 5.47325e-06 0)
(0.000991651 1.13967e-05 0)
(0.000915808 1.25482e-05 0)
(0.000951432 -4.69265e-07 0)
(0.0010102 -1.49095e-05 0)
(0.000990946 -1.34087e-05 0)
(0.000983969 -5.53606e-06 0)
(0.000989569 -6.49045e-07 0)
(0.000996245 2.47655e-07 0)
(0.000999196 -4.72618e-07 0)
(0.000999367 -1.00238e-06 0)
(0.000998634 -9.88463e-07 0)
(0.000998456 -8.88452e-07 0)
(0.000999995 4.27538e-08 0)
(0.000999915 1.83376e-07 0)
(0.000999755 3.52689e-07 0)
(0.000999531 6.87123e-07 0)
(0.000999286 1.27694e-06 0)
(0.000999211 2.40145e-06 0)
(0.000999703 4.58812e-06 0)
(0.00100139 7.94204e-06 0)
(0.0010049 1.31328e-05 0)
(0.00100958 1.47195e-05 0)
(0.00101188 -4.0655e-06 0)
(0.0010089 -1.90033e-05 0)
(0.00100214 -1.60944e-05 0)
(0.000997479 -6.12206e-06 0)
(0.000996817 -8.39742e-08 0)
(0.000998403 7.75157e-07 0)
(0.00100017 -4.27631e-07 0)
(0.00100085 -1.30551e-06 0)
(0.00100088 -1.37955e-06 0)
(0.00100037 -1.25068e-06 0)
(0.000999995 8.61796e-08 0)
(0.000999967 2.69332e-07 0)
(0.000999906 5.44036e-07 0)
(0.000999872 9.10029e-07 0)
(0.000999871 1.51418e-06 0)
(0.00100008 2.26136e-06 0)
(0.00100048 3.29229e-06 0)
(0.00100149 3.98982e-06 0)
(0.00100303 4.21253e-06 0)
(0.00100594 2.36638e-06 0)
(0.00100902 -9.79425e-07 0)
(0.00100906 -4.53632e-06 0)
(0.00100543 -5.01774e-06 0)
(0.00100067 -3.12793e-06 0)
(0.000998058 -1.13066e-06 0)
(0.000998135 -2.51579e-07 0)
(0.000999623 -3.23104e-07 0)
(0.00100064 -7.41852e-07 0)
(0.00100106 -9.67264e-07 0)
(0.00100055 -1.07367e-06 0)
(0.001 9.63728e-08 0)
(0.001 3.14817e-07 0)
(0.00100002 5.70845e-07 0)
(0.00100007 9.17106e-07 0)
(0.0010002 1.33372e-06 0)
(0.00100046 1.87083e-06 0)
(0.00100097 2.39786e-06 0)
(0.00100185 2.97374e-06 0)
(0.00100318 3.11067e-06 0)
(0.00100469 2.73359e-06 0)
(0.00100568 5.11328e-07 0)
(0.00100528 -2.75228e-06 0)
(0.00100339 -5.07577e-06 0)
(0.00100096 -5.07014e-06 0)
(0.000999409 -3.44968e-06 0)
(0.000999121 -1.79445e-06 0)
(0.000999745 -1.02094e-06 0)
(0.00100025 -1.05891e-06 0)
(0.00100062 -1.30662e-06 0)
(0.00100024 -1.51503e-06 0)
(0.001 9.75723e-08 0)
(0.00100003 3.01728e-07 0)
(0.00100008 5.34673e-07 0)
(0.00100019 8.05081e-07 0)
(0.00100037 1.12095e-06 0)
(0.00100066 1.4591e-06 0)
(0.00100112 1.77797e-06 0)
(0.00100174 1.95025e-06 0)
(0.00100248 1.78112e-06 0)
(0.00100317 1.03427e-06 0)
(0.00100366 -2.79413e-07 0)
(0.00100363 -1.78083e-06 0)
(0.00100292 -2.7109e-06 0)
(0.00100171 -2.63271e-06 0)
(0.00100058 -1.77976e-06 0)
(0.000999904 -8.95603e-07 0)
(0.000999859 -4.266e-07 0)
(0.000999983 -4.47223e-07 0)
(0.00100022 -6.15724e-07 0)
(0.00100001 -8.4805e-07 0)
(0.001 8.57618e-08 0)
(0.00100004 2.63315e-07 0)
(0.00100011 4.53329e-07 0)
(0.00100024 6.60942e-07 0)
(0.00100043 8.7696e-07 0)
(0.0010007 1.08379e-06 0)
(0.00100106 1.22998e-06 0)
(0.0010015 1.2531e-06 0)
(0.001002 1.07321e-06 0)
(0.00100248 6.55954e-07 0)
(0.0010028 1.69596e-08 0)
(0.00100275 -7.71722e-07 0)
(0.00100227 -1.45168e-06 0)
(0.00100146 -1.77582e-06 0)
(0.00100062 -1.66877e-06 0)
(0.00100001 -1.34783e-06 0)
(0.000999796 -1.02835e-06 0)
(0.000999768 -9.3645e-07 0)
(0.000999886 -9.45287e-07 0)
(0.000999767 -1.10827e-06 0)
(0.001 6.89067e-08 0)
(0.00100004 2.09015e-07 0)
(0.00100012 3.53346e-07 0)
(0.00100025 5.0109e-07 0)
(0.00100043 6.43671e-07 0)
(0.00100067 7.64998e-07 0)
(0.00100096 8.37255e-07 0)
(0.00100129 8.26264e-07 0)
(0.00100163 6.91809e-07 0)
(0.00100191 4.06507e-07 0)
(0.00100206 -4.67145e-08 0)
(0.001002 -5.76734e-07 0)
(0.00100171 -1.03683e-06 0)
(0.0010012 -1.28227e-06 0)
(0.00100065 -1.22952e-06 0)
(0.00100016 -9.93337e-07 0)
(0.000999917 -7.01048e-07 0)
(0.000999742 -5.57123e-07 0)
(0.000999753 -4.88206e-07 0)
(0.00099956 -5.98583e-07 0)
(0.001 4.99502e-08 0)
(0.00100004 1.49371e-07 0)
(0.00100012 2.4638e-07 0)
(0.00100025 3.38788e-07 0)
(0.00100041 4.21607e-07 0)
(0.00100062 4.82762e-07 0)
(0.00100086 5.07968e-07 0)
(0.00100112 4.7318e-07 0)
(0.00100137 3.61909e-07 0)
(0.00100157 1.5644e-07 0)
(0.00100167 -1.16195e-07 0)
(0.00100161 -4.21175e-07 0)
(0.00100139 -6.82091e-07 0)
(0.00100104 -8.42568e-07 0)
(0.00100064 -8.49644e-07 0)
(0.00100022 -7.69863e-07 0)
(0.000999952 -6.37787e-07 0)
(0.000999691 -5.97974e-07 0)
(0.000999629 -5.63031e-07 0)
(0.000999388 -6.85205e-07 0)
(0.001 3.40849e-08 0)
(0.00100004 1.04445e-07 0)
(0.00100011 1.7443e-07 0)
(0.00100023 2.41827e-07 0)
(0.00100038 3.02347e-07 0)
(0.00100056 3.49455e-07 0)
(0.00100077 3.74732e-07 0)
(0.00100097 3.68405e-07 0)
(0.00100116 3.19905e-07 0)
(0.0010013 2.24281e-07 0)
(0.00100136 8.61895e-08 0)
(0.00100131 -7.06296e-08 0)
(0.00100115 -2.06436e-07 0)
(0.00100086 -2.97368e-07 0)
(0.00100054 -3.11888e-07 0)
(0.00100017 -2.81343e-07 0)
(0.000999902 -2.03126e-07 0)
(0.000999614 -1.70247e-07 0)
(0.000999518 -1.20036e-07 0)
(0.000999251 -1.98761e-07 0)
(0.001 -4.34945e-09 0)
(0.00100004 -1.00003e-08 0)
(0.00100012 -1.2929e-08 0)
(0.00100024 -1.47252e-08 0)
(0.00100038 -1.70647e-08 0)
(0.00100056 -2.29777e-08 0)
(0.00100075 -3.40074e-08 0)
(0.00100094 -5.36485e-08 0)
(0.00100112 -8.19039e-08 0)
(0.00100123 -1.22296e-07 0)
(0.00100128 -1.70078e-07 0)
(0.00100122 -2.31531e-07 0)
(0.00100107 -2.90703e-07 0)
(0.00100081 -3.41291e-07 0)
(0.00100053 -3.59465e-07 0)
(0.00100018 -3.67812e-07 0)
(0.000999946 -3.42636e-07 0)
(0.00099961 -3.53519e-07 0)
(0.000999523 -3.28494e-07 0)
(0.000999132 -4.10755e-07 0)
)
;

boundaryField
{
    sides
    {
        type            slip;
    }
    inlet
    {
        type            fixedValue;
        value           uniform (0.001 0 0);
    }
    outlet
    {
        type            zeroGradient;
    }
    frontAndBack
    {
        type            empty;
    }
}


// ************************************************************************* //
