/*--------------------------------*- C++ -*----------------------------------*\
  =========                 |
  \\      /  F ield         | OpenFOAM: The Open Source CFD Toolbox
   \\    /   O peration     | Website:  https://openfoam.org
    \\  /    A nd           | Version:  9
     \\/     M anipulation  |
\*---------------------------------------------------------------------------*/
FoamFile
{
    format      ascii;
    class       surfaceScalarField;
    location    "78";
    object      phi;
}
// * * * * * * * * * * * * * * * * * * * * * * * * * * * * * * * * * * * * * //

dimensions      [0 4 -1 0 0 0 0];

internalField   nonuniform List<scalar> 
760
(
5.00009e-06
-9.34662e-11
5.0004e-06
-3.03996e-10
5.00092e-06
-5.09407e-10
5.00162e-06
-7.05607e-10
5.00249e-06
-8.78976e-10
5.0035e-06
-1.00594e-09
5.00456e-06
-1.06075e-09
5.00557e-06
-1.01326e-09
5.0064e-06
-8.31904e-10
5.00693e-06
-5.21393e-10
5.00705e-06
-1.22282e-10
5.00666e-06
4.00879e-10
5.0058e-06
8.59227e-10
5.0047e-06
1.10779e-09
5.00353e-06
1.1748e-09
5.00257e-06
9.52393e-10
5.00186e-06
7.15588e-10
5.00161e-06
2.48892e-10
5.00151e-06
1.12547e-10
-3.89011e-10
5.00012e-06
-2.12847e-10
5.00045e-06
-6.29507e-10
5.00099e-06
-1.0416e-09
5.00172e-06
-1.44529e-09
5.00265e-06
-1.81099e-09
5.00375e-06
-2.0961e-09
5.00493e-06
-2.24753e-09
5.00611e-06
-2.18987e-09
5.00713e-06
-1.85121e-09
5.00778e-06
-1.1659e-09
5.00775e-06
-9.1342e-11
5.00726e-06
8.90036e-10
5.00627e-06
1.85077e-09
5.00496e-06
2.42065e-09
5.00368e-06
2.44813e-09
5.00278e-06
1.85765e-09
5.00225e-06
1.24337e-09
5.00192e-06
5.82048e-10
5.00165e-06
3.72913e-10
-1.45594e-10
5.00011e-06
-3.19602e-10
5.00043e-06
-9.48965e-10
5.00096e-06
-1.57469e-09
5.00172e-06
-2.20697e-09
5.00273e-06
-2.80636e-09
5.00395e-06
-3.31696e-09
5.00533e-06
-3.62266e-09
5.00672e-06
-3.59036e-09
5.00793e-06
-3.0551e-09
5.00872e-06
-1.96143e-09
5.00894e-06
-3.03862e-10
5.00826e-06
1.5699e-09
5.00687e-06
3.22909e-09
5.00516e-06
4.1374e-09
5.00351e-06
4.09297e-09
5.00231e-06
3.05409e-09
5.00167e-06
1.88665e-09
5.00148e-06
7.68553e-10
5.00145e-06
3.98566e-10
-2.21023e-10
5.0001e-06
-4.18604e-10
5.00041e-06
-1.25915e-09
5.00094e-06
-2.11163e-09
5.00175e-06
-3.00772e-09
5.00286e-06
-3.91081e-09
5.00429e-06
-4.74691e-09
5.00602e-06
-5.34776e-09
5.00795e-06
-5.52248e-09
5.00984e-06
-4.94722e-09
5.01108e-06
-3.19139e-09
5.0112e-06
-4.37915e-10
5.01e-06
2.77719e-09
5.00765e-06
5.5696e-09
5.00514e-06
6.63642e-09
5.00347e-06
5.76121e-09
5.0027e-06
3.82614e-09
5.00248e-06
2.10662e-09
5.00231e-06
9.34138e-10
5.00199e-06
7.08742e-10
3.38833e-10
5.00008e-06
-5.00397e-10
5.00034e-06
-1.51827e-09
5.00083e-06
-2.60479e-09
5.00164e-06
-3.80919e-09
5.00286e-06
-5.1318e-09
5.00458e-06
-6.46311e-09
5.0068e-06
-7.56985e-09
5.00942e-06
-8.14167e-09
5.01239e-06
-7.91807e-09
5.01478e-06
-5.58666e-09
5.01484e-06
-4.6127e-10
5.01285e-06
4.7444e-09
5.00867e-06
9.75134e-09
5.0046e-06
1.07138e-08
5.00224e-06
8.11401e-09
5.00174e-06
4.32046e-09
5.00205e-06
1.80221e-09
5.00226e-06
7.22715e-10
5.00201e-06
9.5158e-10
6.2703e-10
5.00004e-06
-5.42511e-10
5.0002e-06
-1.67394e-09
5.00054e-06
-2.94436e-09
5.00121e-06
-4.48104e-09
5.00241e-06
-6.33294e-09
5.00452e-06
-8.57675e-09
5.00761e-06
-1.06487e-08
5.01167e-06
-1.22162e-08
5.01554e-06
-1.17616e-08
5.01901e-06
-9.08525e-09
5.02021e-06
-1.64014e-09
5.01603e-06
8.94708e-09
5.0095e-06
1.62516e-08
5.00421e-06
1.60108e-08
5.00217e-06
1.01619e-08
5.00249e-06
3.99904e-09
5.00327e-06
1.02908e-09
5.0034e-06
5.98682e-10
5.0028e-06
1.54931e-09
1.42357e-09
4.99998e-06
-5.23192e-10
4.99994e-06
-1.63186e-09
5.00003e-06
-3.03604e-09
5.00036e-06
-4.81181e-09
5.00122e-06
-7.19497e-09
5.00292e-06
-1.02792e-08
5.00681e-06
-1.45338e-08
5.01393e-06
-1.93292e-08
5.02375e-06
-2.16049e-08
5.03096e-06
-1.62212e-08
5.02871e-06
4.69536e-10
5.01674e-06
2.09638e-08
5.00419e-06
2.88154e-08
4.99873e-06
2.14584e-08
5.00057e-06
8.31821e-09
5.00284e-06
1.73003e-09
5.00371e-06
1.63312e-10
5.00367e-06
6.55517e-10
5.00305e-06
2.1684e-09
1.68367e-09
4.99987e-06
-3.89385e-10
4.99955e-06
-1.31822e-09
4.99913e-06
-2.60971e-09
4.99886e-06
-4.54324e-09
4.99933e-06
-7.67147e-09
5.00036e-06
-1.13076e-08
5.00366e-06
-1.7822e-08
5.00983e-06
-2.55096e-08
5.02489e-06
-3.66576e-08
5.05625e-06
-4.7514e-08
5.05002e-06
5.06732e-09
5.02314e-06
4.77264e-08
4.99817e-06
5.38028e-08
4.9935e-06
2.61376e-08
4.99947e-06
2.3444e-09
5.00407e-06
-2.87705e-09
5.0049e-06
-6.67782e-10
5.00373e-06
1.84119e-09
5.00351e-06
2.3873e-09
9.73093e-10
4.99977e-06
-1.57622e-10
4.99915e-06
-7.0394e-10
4.99792e-06
-1.37868e-09
4.99611e-06
-2.73431e-09
4.99402e-06
-5.58069e-09
4.99374e-06
-1.10284e-08
4.99946e-06
-2.35295e-08
5.01714e-06
-4.31933e-08
5.0557e-06
-7.5241e-08
5.0667e-06
-5.85889e-08
5.04975e-06
2.36443e-08
4.99655e-06
1.01046e-07
4.98932e-06
6.10028e-08
4.99592e-06
1.9532e-08
5.00019e-06
-1.94224e-09
5.00293e-06
-5.61768e-09
5.00252e-06
-2.65718e-10
5.00184e-06
2.52313e-09
5.00255e-06
1.68331e-09
8.53561e-11
4.99986e-06
-1.56084e-11
4.99921e-06
-5.21818e-11
4.99791e-06
-8.7959e-11
4.99531e-06
-1.29378e-10
4.9899e-06
-1.70088e-10
4.97909e-06
-2.16626e-10
4.95583e-06
-2.66196e-10
4.91295e-06
-3.35358e-10
4.83814e-06
-4.10712e-10
4.77997e-06
-4.67244e-10
4.80431e-06
-5.82147e-10
4.90604e-06
-7.2221e-10
4.96779e-06
-7.52976e-10
4.98824e-06
-9.05004e-10
4.98746e-06
-1.16795e-09
4.98327e-06
-1.43177e-09
4.98456e-06
-1.56e-09
4.9889e-06
-1.8267e-09
4.99248e-06
-1.8938e-09
-2.58344e-09
4.99986e-06
1.26487e-10
4.99921e-06
5.99176e-10
4.99791e-06
1.20806e-09
4.9953e-06
2.48196e-09
4.98988e-06
5.25229e-09
4.97906e-06
1.06016e-08
4.95578e-06
2.30115e-08
4.9129e-06
4.2539e-08
4.83803e-06
7.44565e-08
4.77974e-06
5.78477e-08
4.80426e-06
-2.49945e-08
4.90598e-06
-1.02485e-07
4.96777e-06
-6.25062e-08
4.98808e-06
-2.11964e-08
4.98737e-06
-4.54404e-10
4.98294e-06
2.99471e-09
4.98443e-06
-3.05402e-09
4.98889e-06
-6.28824e-09
4.99235e-06
-5.36005e-09
-4.98409e-09
4.99977e-06
3.57612e-10
4.99915e-06
1.21897e-09
4.99792e-06
2.43919e-09
4.9961e-06
4.29636e-09
4.99402e-06
7.33692e-09
4.99374e-06
1.08858e-08
4.99943e-06
1.73075e-08
5.01707e-06
2.48956e-08
5.05562e-06
3.59207e-08
5.0671e-06
4.63786e-08
5.04944e-06
-8.34547e-09
4.99612e-06
-4.90694e-08
4.98885e-06
-5.52577e-08
4.9957e-06
-2.80395e-08
5.00012e-06
-4.86189e-09
5.00232e-06
7.90115e-10
5.00166e-06
-2.39372e-09
5.0009e-06
-5.5388e-09
5.00169e-06
-6.14101e-09
-5.95208e-09
4.99986e-06
4.91775e-10
4.99955e-06
1.53732e-09
4.99911e-06
2.87533e-09
4.99883e-06
4.57738e-09
4.99928e-06
6.89055e-09
5.00027e-06
9.89247e-09
5.00348e-06
1.40981e-08
5.00961e-06
1.87607e-08
5.0246e-06
2.09187e-08
5.05557e-06
1.5422e-08
5.04979e-06
-1.60582e-09
5.02282e-06
-2.21741e-08
4.99788e-06
-3.0295e-08
4.99316e-06
-2.33279e-08
4.99864e-06
-1.03439e-08
5.00345e-06
-4.02214e-09
5.00373e-06
-2.67305e-09
5.00236e-06
-4.16403e-09
5.00217e-06
-5.94607e-09
-6.53505e-09
4.99998e-06
5.13574e-10
4.99993e-06
1.58713e-09
5.00001e-06
2.79928e-09
5.00031e-06
4.27246e-09
5.00113e-06
6.06261e-09
5.00279e-06
8.23258e-09
5.00668e-06
1.02154e-08
5.0138e-06
1.16589e-08
5.02358e-06
1.11147e-08
5.03071e-06
8.28384e-09
5.02839e-06
6.32392e-10
5.01627e-06
-1.00128e-08
5.0035e-06
-1.75536e-08
4.99777e-06
-1.76117e-08
4.99941e-06
-1.19895e-08
5.00161e-06
-6.22061e-09
5.0024e-06
-3.46578e-09
5.00213e-06
-3.88946e-09
5.0012e-06
-5.00712e-09
-5.97565e-09
5.00004e-06
4.75736e-10
5.00018e-06
1.44217e-09
5.0005e-06
2.47797e-09
5.00116e-06
3.62658e-09
5.00232e-06
4.89013e-09
5.00439e-06
6.15743e-09
5.00742e-06
7.19831e-09
5.0114e-06
7.68648e-09
5.01514e-06
7.3802e-09
5.01853e-06
4.86973e-09
5.01957e-06
-4.04778e-10
5.01523e-06
-5.70889e-09
5.00854e-06
-1.08791e-08
5.0031e-06
-1.21872e-08
5.00087e-06
-9.7592e-09
5.00101e-06
-6.35058e-09
5.00156e-06
-4.00771e-09
5.00132e-06
-3.65037e-09
5.00035e-06
-4.04528e-09
-4.97624e-09
5.00008e-06
3.97294e-10
5.00032e-06
1.19591e-09
5.00079e-06
2.00734e-09
5.00157e-06
2.85616e-09
5.00276e-06
3.70977e-09
5.00441e-06
4.49571e-09
5.00656e-06
5.05114e-09
5.0091e-06
5.15492e-09
5.01204e-06
4.4527e-09
5.01441e-06
2.50619e-09
5.01415e-06
-1.43432e-10
5.01208e-06
-3.64747e-09
5.00775e-06
-6.54883e-09
5.00348e-06
-7.92063e-09
5.00093e-06
-7.19482e-09
5.00014e-06
-5.54971e-09
5.00012e-06
-3.98033e-09
4.99988e-06
-3.42215e-09
4.99917e-06
-3.34487e-09
-4.17351e-09
5.0001e-06
2.97669e-10
5.0004e-06
8.98691e-10
5.00091e-06
1.49746e-09
5.00168e-06
2.09174e-09
5.00274e-06
2.6508e-09
5.00413e-06
3.11154e-09
5.00579e-06
3.38043e-09
5.00763e-06
3.3121e-09
5.00933e-06
2.75755e-09
5.01027e-06
1.57454e-09
5.01044e-06
-3.03565e-10
5.00903e-06
-2.23786e-09
5.0065e-06
-4.01482e-09
5.00367e-06
-5.08478e-09
5.00155e-06
-5.05863e-09
5.00035e-06
-4.34845e-09
4.99971e-06
-3.34008e-09
4.99917e-06
-2.89035e-09
4.99845e-06
-2.6318e-09
-3.21832e-09
5.0001e-06
1.94154e-10
5.00041e-06
5.91497e-10
5.00093e-06
9.83303e-10
5.00166e-06
1.35925e-09
5.00262e-06
1.69742e-09
5.00378e-06
1.9507e-09
5.0051e-06
2.0638e-09
5.00645e-06
1.95387e-09
5.00765e-06
1.55738e-09
5.00839e-06
8.31548e-10
5.00822e-06
-1.26157e-10
5.00734e-06
-1.3577e-09
5.00571e-06
-2.37743e-09
5.00369e-06
-3.06441e-09
5.0018e-06
-3.16519e-09
5.00034e-06
-2.89261e-09
4.99932e-06
-2.32426e-09
4.99852e-06
-2.09915e-09
4.99773e-06
-1.83938e-09
-2.28092e-09
5.00009e-06
1.10817e-10
5.00038e-06
3.02904e-10
5.00087e-06
4.93127e-10
5.00155e-06
6.75397e-10
5.00241e-06
8.35513e-10
5.00342e-06
9.49342e-10
5.00449e-06
9.92655e-10
5.00551e-06
9.31581e-10
5.00633e-06
7.3438e-10
5.0068e-06
3.61281e-10
5.00681e-06
-1.40919e-10
5.00608e-06
-6.27771e-10
5.0048e-06
-1.09123e-09
5.00316e-06
-1.42727e-09
5.00149e-06
-1.49765e-09
5.00003e-06
-1.43451e-09
4.99889e-06
-1.18708e-09
4.99793e-06
-1.13838e-09
4.99707e-06
-9.80352e-10
-1.42642e-09
5.00012e-06
5.00042e-06
5.00091e-06
5.00159e-06
5.00242e-06
5.00337e-06
5.00437e-06
5.0053e-06
5.00604e-06
5.0064e-06
5.00625e-06
5.00563e-06
5.00454e-06
5.00311e-06
5.00161e-06
5.00017e-06
4.99898e-06
4.99785e-06
4.99688e-06
)
;

boundaryField
{
    sides
    {
        type            calculated;
        value           uniform 0;
    }
    inlet
    {
        type            calculated;
        value           nonuniform List<scalar> 
20
(
-5e-06
-5e-06
-5e-06
-5e-06
-5e-06
-5e-06
-5e-06
-5e-06
-5e-06
-5e-06
-5e-06
-5e-06
-5e-06
-5e-06
-5e-06
-5e-06
-5e-06
-5e-06
-5e-06
-5e-06
)
;
    }
    outlet
    {
        type            calculated;
        value           nonuniform List<scalar> 
20
(
5.00191e-06
5.00141e-06
5.00152e-06
5.00143e-06
5.00172e-06
5.00201e-06
5.0028e-06
5.00423e-06
5.00344e-06
4.99514e-06
4.99475e-06
5.00266e-06
5.00275e-06
5.00064e-06
4.99935e-06
4.99836e-06
4.99749e-06
4.99679e-06
4.99622e-06
4.99545e-06
)
;
    }
    frontAndBack
    {
        type            empty;
        value           nonuniform List<scalar> 0();
    }
}


// ************************************************************************* //
