/*--------------------------------*- C++ -*----------------------------------*\
  =========                 |
  \\      /  F ield         | OpenFOAM: The Open Source CFD Toolbox
   \\    /   O peration     | Website:  https://openfoam.org
    \\  /    A nd           | Version:  9
     \\/     M anipulation  |
\*---------------------------------------------------------------------------*/
FoamFile
{
    format      ascii;
    class       volScalarField;
    location    "20";
    object      ddt0(h);
}
// * * * * * * * * * * * * * * * * * * * * * * * * * * * * * * * * * * * * * //

dimensions      [0 1 -1 0 0 0 0];

internalField   nonuniform List<scalar> 
400
(
-4.58778e-07
-1.27802e-06
-1.8699e-06
-1.91312e-06
-1.50726e-06
-7.64095e-07
-6.30375e-08
1.78724e-07
-1.08592e-07
-7.39772e-07
-1.01809e-06
-9.31147e-07
-8.69382e-07
-5.35375e-07
-3.29876e-08
6.61705e-07
1.17848e-06
1.40669e-06
9.80311e-07
3.32299e-07
-4.96221e-07
-1.20099e-06
-1.55321e-06
-1.50261e-06
-1.10911e-06
-4.32247e-07
1.23095e-07
3.0419e-07
-3.75606e-08
-4.96296e-07
-8.32011e-07
-9.12246e-07
-8.99873e-07
-7.50606e-07
-2.96928e-07
4.74811e-07
1.38265e-06
1.48142e-06
9.90971e-07
3.31503e-07
-2.41349e-07
-8.36225e-07
-1.12468e-06
-9.80396e-07
-5.5521e-07
-7.15901e-08
2.6711e-07
2.90847e-07
-2.40046e-08
-3.35964e-07
-7.09363e-07
-8.85622e-07
-9.01995e-07
-9.46007e-07
-6.5133e-07
-5.65854e-08
2.59839e-07
7.51217e-07
4.34383e-07
1.5593e-07
-6.90933e-08
-5.20473e-07
-6.82892e-07
-3.40902e-07
8.03776e-08
2.60095e-07
4.09376e-07
3.09987e-07
1.74066e-07
-1.31011e-07
-4.16233e-07
-8.34284e-07
-1.02322e-06
-1.19906e-06
-1.06926e-06
-2.19189e-07
6.13013e-07
7.50475e-07
6.83508e-07
1.84086e-07
2.05821e-08
-2.50752e-07
-1.77626e-07
2.66291e-07
5.89966e-07
5.99265e-07
5.20163e-07
3.37532e-07
2.02375e-07
7.0098e-08
-3.73074e-07
-7.20673e-07
-1.19168e-06
-1.53963e-06
-1.34181e-06
-6.451e-07
-5.56461e-07
2.2276e-07
2.7034e-07
5.88179e-08
4.90242e-08
-2.41407e-08
2.50739e-07
7.32462e-07
9.73379e-07
7.98697e-07
4.90728e-07
3.52391e-07
3.47603e-07
1.27981e-07
-2.30931e-07
-1.00754e-06
-1.32504e-06
-1.56521e-06
-1.28769e-06
-6.98561e-07
2.02295e-07
2.79808e-07
1.03537e-07
4.52546e-08
-1.68694e-08
1.16558e-07
5.64277e-07
1.00841e-06
1.13199e-06
8.74035e-07
4.45748e-07
3.12922e-07
3.86036e-07
-9.68125e-08
-1.80847e-07
-9.67089e-07
-1.72489e-06
-1.56498e-06
-9.94301e-07
-5.10228e-07
4.72206e-07
2.97143e-07
3.83606e-07
1.65803e-07
-1.16235e-07
1.70509e-07
6.86539e-07
1.13475e-06
1.15184e-06
7.44134e-07
3.48458e-07
2.17026e-07
2.85695e-08
5.44179e-07
-5.58878e-06
-5.82684e-07
-1.54671e-06
-1.55535e-06
-8.8536e-07
3.36033e-08
7.48921e-07
9.03205e-07
7.21043e-07
2.63949e-07
-2.69179e-07
1.06341e-07
6.95363e-07
1.14953e-06
1.0578e-06
5.83454e-07
1.752e-07
7.88666e-08
2.55725e-07
-7.27104e-07
4.7952e-06
-2.04141e-06
-1.82625e-06
-1.26778e-06
-8.10511e-07
3.40141e-07
9.51605e-07
1.29426e-06
8.51642e-07
2.63913e-07
-4.19595e-07
3.37089e-08
6.84508e-07
1.09211e-06
9.4038e-07
4.37234e-07
5.03561e-08
-5.3867e-08
5.36177e-08
1.70074e-07
-1.43187e-06
-1.74167e-06
-1.63623e-06
-1.31687e-06
-5.37517e-07
3.36603e-07
1.08598e-06
1.42115e-06
9.57618e-07
3.43344e-07
-4.55745e-07
-2.49899e-08
6.65796e-07
1.06806e-06
9.14986e-07
4.5659e-07
7.14596e-08
-3.7438e-09
3.68797e-08
-3.4414e-07
-5.36682e-07
-1.50381e-06
-1.94252e-06
-1.60111e-06
-6.29938e-07
2.33194e-07
1.14034e-06
1.3364e-06
1.00755e-06
4.06235e-07
-4.90094e-07
-5.219e-08
5.73434e-07
1.04594e-06
9.65496e-07
5.59663e-07
1.6014e-07
1.11403e-07
-1.39083e-08
-2.04637e-07
1.90434e-06
-1.14936e-06
-1.87698e-06
-1.69551e-06
-8.80224e-07
-5.19826e-09
8.85944e-07
1.12858e-06
9.42489e-07
3.83523e-07
-3.57503e-07
-3.5155e-08
5.31356e-07
9.88994e-07
9.75134e-07
6.2202e-07
2.00892e-07
5.1487e-08
1.8296e-07
4.59167e-08
-2.97922e-06
-1.36362e-06
-1.50849e-06
-1.6067e-06
-1.14143e-06
-2.91387e-07
4.53239e-07
8.07961e-07
6.70787e-07
2.40567e-07
-2.26862e-07
-8.43462e-08
3.20498e-07
8.25995e-07
9.61887e-07
7.25554e-07
3.54927e-07
1.4642e-07
1.76498e-07
4.08411e-07
-9.0121e-07
-8.54654e-07
-1.46532e-06
-1.58026e-06
-1.21991e-06
-5.01177e-07
1.7287e-07
5.12493e-07
4.1005e-07
1.31613e-07
-2.29139e-07
-2.98494e-07
-5.3149e-10
5.28779e-07
8.26497e-07
6.86418e-07
4.08531e-07
2.03192e-07
2.07297e-07
1.93162e-08
-4.16693e-07
-8.86577e-07
-1.3489e-06
-1.49266e-06
-1.23738e-06
-5.87394e-07
5.38625e-08
3.63158e-07
3.0429e-07
1.01974e-07
-3.25954e-07
-5.66486e-07
-4.28291e-07
5.71629e-08
4.15879e-07
4.88841e-07
4.08913e-07
2.9949e-07
1.62012e-07
-1.08361e-07
-2.86295e-07
-8.79846e-07
-1.23793e-06
-1.45281e-06
-1.19402e-06
-5.52846e-07
1.05004e-07
4.23256e-07
3.61994e-07
1.31207e-07
-4.14663e-07
-8.08596e-07
-8.56897e-07
-5.56937e-07
-1.4549e-07
1.8015e-07
3.35527e-07
3.49366e-07
7.00063e-08
-1.9451e-07
-5.04202e-07
-8.26766e-07
-1.18451e-06
-1.31874e-06
-9.86617e-07
-2.90314e-07
3.79579e-07
6.7904e-07
5.34828e-07
1.90214e-07
-5.59803e-07
-1.13717e-06
-1.29241e-06
-1.17236e-06
-7.54683e-07
-2.70542e-07
1.44627e-07
2.97548e-07
3.39746e-08
-4.44161e-07
-5.66961e-07
-9.18877e-07
-1.11449e-06
-1.04781e-06
-6.71936e-07
8.61392e-09
6.78811e-07
9.22515e-07
6.71381e-07
2.29775e-07
-5.06166e-07
-1.25112e-06
-1.80565e-06
-1.75312e-06
-1.30396e-06
-7.20692e-07
-1.48977e-07
1.00582e-07
-1.68494e-07
-7.0827e-07
-9.48809e-07
-9.67011e-07
-9.58603e-07
-7.87761e-07
-3.42329e-07
3.38346e-07
9.585e-07
1.10626e-06
7.69051e-07
2.60474e-07
-6.38975e-07
-1.42341e-06
-1.96512e-06
-1.92401e-06
-1.53369e-06
-8.72914e-07
-1.95427e-07
8.6604e-08
-1.93999e-07
-6.6896e-07
-1.05033e-06
-1.03356e-06
-9.00261e-07
-6.58255e-07
-1.78838e-07
5.47107e-07
1.18641e-06
1.27864e-06
8.67905e-07
2.90744e-07
)
;

boundaryField
{
    sides
    {
        type            calculated;
        value           nonuniform List<scalar> 
40
(
-6.38975e-07
-1.42341e-06
-1.96512e-06
-1.92401e-06
-1.53369e-06
-8.72914e-07
-1.95427e-07
8.6604e-08
-1.93999e-07
-6.6896e-07
-1.05033e-06
-1.03356e-06
-9.00261e-07
-6.58255e-07
-1.78838e-07
5.47107e-07
1.18641e-06
1.27864e-06
8.67905e-07
2.90744e-07
-4.58778e-07
-1.27802e-06
-1.8699e-06
-1.91312e-06
-1.50726e-06
-7.64095e-07
-6.30375e-08
1.78724e-07
-1.08592e-07
-7.39772e-07
-1.01809e-06
-9.31147e-07
-8.69382e-07
-5.35375e-07
-3.29876e-08
6.61705e-07
1.17848e-06
1.40669e-06
9.80311e-07
3.32299e-07
)
;
    }
    inlet
    {
        type            calculated;
        value           nonuniform List<scalar> 
20
(
-4.58778e-07
-4.96221e-07
-2.41349e-07
-6.90933e-08
2.05821e-08
4.90242e-08
-1.68694e-08
-1.16235e-07
-2.69179e-07
-4.19595e-07
-4.55745e-07
-4.90094e-07
-3.57503e-07
-2.26862e-07
-2.29139e-07
-3.25954e-07
-4.14663e-07
-5.59803e-07
-5.06166e-07
-6.38975e-07
)
;
    }
    outlet
    {
        type            calculated;
        value           uniform 0;
    }
    frontAndBack
    {
        type            empty;
    }
}


// ************************************************************************* //
