/*--------------------------------*- C++ -*----------------------------------*\
  =========                 |
  \\      /  F ield         | OpenFOAM: The Open Source CFD Toolbox
   \\    /   O peration     | Website:  https://openfoam.org
    \\  /    A nd           | Version:  9
     \\/     M anipulation  |
\*---------------------------------------------------------------------------*/
FoamFile
{
    format      ascii;
    class       volVectorField;
    location    "20";
    object      ddt0(hU);
}
// * * * * * * * * * * * * * * * * * * * * * * * * * * * * * * * * * * * * * //

dimensions      [0 2 -2 0 0 0 0];

internalField   nonuniform List<vector> 
400
(
(4.61314e-08 1.08794e-08 0)
(5.13943e-07 -1.55915e-08 0)
(7.34063e-07 1.05949e-08 0)
(6.68515e-07 2.92938e-08 0)
(5.21836e-07 -3.32693e-08 0)
(3.3728e-07 -1.15907e-07 0)
(8.6355e-08 -1.60926e-07 0)
(-1.26037e-07 -1.68985e-07 0)
(-2.37231e-07 -1.30234e-07 0)
(-3.43046e-07 -6.82176e-08 0)
(-4.62477e-07 -2.23441e-08 0)
(-5.04305e-07 -2.82627e-08 0)
(-3.8336e-07 -3.63595e-08 0)
(-1.29297e-07 -1.66919e-08 0)
(6.09085e-09 4.06386e-08 0)
(-2.45323e-08 1.14225e-07 0)
(-1.35971e-07 1.08536e-07 0)
(-1.01976e-07 6.37141e-08 0)
(1.69826e-07 5.98485e-08 0)
(2.79995e-07 2.97528e-08 0)
(2.83448e-08 2.32285e-08 0)
(4.75659e-07 -5.79652e-08 0)
(7.02701e-07 -3.19701e-08 0)
(6.20136e-07 1.1101e-08 0)
(4.66208e-07 -1.28205e-07 0)
(3.08072e-07 -3.29632e-07 0)
(8.3823e-08 -4.3647e-07 0)
(-9.44487e-08 -4.47501e-07 0)
(-1.85402e-07 -3.44128e-07 0)
(-2.688e-07 -2.06131e-07 0)
(-3.8852e-07 -8.60952e-08 0)
(-4.25983e-07 -1.07687e-07 0)
(-3.15312e-07 -1.45414e-07 0)
(-1.27251e-07 -5.96506e-08 0)
(4.85525e-10 1.41884e-07 0)
(-1.56393e-08 3.30155e-07 0)
(-7.92226e-08 3.30798e-07 0)
(-2.78929e-08 9.28067e-08 0)
(1.39266e-07 -1.03195e-07 0)
(1.4559e-07 -1.51656e-08 0)
(3.35778e-08 2.82134e-08 0)
(4.064e-07 -1.15388e-07 0)
(5.91548e-07 -6.36212e-08 0)
(5.3953e-07 -3.42372e-09 0)
(4.20721e-07 -2.05817e-07 0)
(2.87434e-07 -4.90887e-07 0)
(9.15003e-08 -6.36966e-07 0)
(-6.15495e-08 -6.35196e-07 0)
(-1.53644e-07 -4.84212e-07 0)
(-2.15148e-07 -2.68052e-07 0)
(-2.90955e-07 -1.00416e-07 0)
(-3.00754e-07 -1.25294e-07 0)
(-1.75948e-07 -2.11834e-07 0)
(-4.2847e-08 -7.25724e-08 0)
(2.34073e-08 2.66753e-07 0)
(-2.45999e-08 5.2104e-07 0)
(-1.96801e-07 4.72558e-07 0)
(-2.50523e-07 1.05982e-07 0)
(-5.6633e-08 -9.12891e-08 0)
(9.93558e-08 6.79194e-09 0)
(1.90451e-08 1.00098e-08 0)
(3.33667e-07 -1.93417e-07 0)
(4.6896e-07 -7.96759e-08 0)
(4.01593e-07 6.3131e-09 0)
(3.2252e-07 -2.41944e-07 0)
(2.39779e-07 -5.82884e-07 0)
(1.05526e-07 -7.62022e-07 0)
(-6.82757e-09 -7.48333e-07 0)
(-6.00821e-08 -5.75925e-07 0)
(-1.12554e-07 -2.59002e-07 0)
(-1.37102e-07 -4.3915e-08 0)
(-1.30586e-07 -6.2533e-08 0)
(-3.15504e-08 -1.72658e-07 0)
(5.17494e-08 -1.75852e-08 0)
(3.78691e-08 4.09393e-07 0)
(-4.42586e-08 7.197e-07 0)
(-1.39634e-07 6.32589e-07 0)
(-1.25579e-07 1.42142e-07 0)
(-7.5793e-08 -9.72615e-08 0)
(-1.56765e-07 2.31475e-08 0)
(-1.00111e-09 -2.57227e-08 0)
(2.47564e-07 -2.71e-07 0)
(3.25512e-07 -1.38284e-07 0)
(2.57448e-07 -2.19116e-08 0)
(2.31007e-07 -2.5901e-07 0)
(2.02755e-07 -6.14446e-07 0)
(1.23099e-07 -7.9951e-07 0)
(4.83945e-08 -7.77195e-07 0)
(2.91711e-08 -5.81524e-07 0)
(2.9219e-08 -2.60913e-07 0)
(2.31489e-08 7.37031e-09 0)
(8.55753e-08 2.59907e-08 0)
(1.41145e-07 -7.3535e-08 0)
(1.59434e-07 9.34434e-08 0)
(9.37463e-08 4.97526e-07 0)
(-6.07219e-08 7.93775e-07 0)
(-3.10078e-07 7.07515e-07 0)
(-3.69995e-07 1.79548e-07 0)
(-2.91884e-07 -2.08699e-07 0)
(-2.74017e-07 -2.92098e-08 0)
(-2.00494e-08 -4.53249e-08 0)
(1.65214e-07 -3.17218e-07 0)
(1.74271e-07 -1.7532e-07 0)
(1.14069e-07 -3.92377e-08 0)
(1.39951e-07 -2.50542e-07 0)
(1.62695e-07 -5.81939e-07 0)
(1.42107e-07 -7.53469e-07 0)
(1.28436e-07 -7.24826e-07 0)
(1.13288e-07 -5.39463e-07 0)
(1.37728e-07 -1.7676e-07 0)
(2.55775e-07 6.22838e-08 0)
(3.17224e-07 1.34395e-07 0)
(3.35635e-07 2.76796e-08 0)
(2.31746e-07 1.95908e-07 0)
(5.60775e-08 5.54972e-07 0)
(-1.05234e-07 7.91868e-07 0)
(-1.85267e-07 6.36691e-07 0)
(-3.44947e-07 9.04569e-08 0)
(-4.73869e-07 -2.11818e-07 0)
(-4.59329e-07 -3.33106e-08 0)
(-4.61192e-08 -4.40798e-08 0)
(8.10174e-08 -3.1938e-07 0)
(2.36395e-08 -1.83481e-07 0)
(-1.93309e-08 -4.8338e-08 0)
(7.18607e-08 -2.23454e-07 0)
(1.41874e-07 -4.92945e-07 0)
(1.66142e-07 -6.22315e-07 0)
(1.7462e-07 -5.98515e-07 0)
(2.34205e-07 -4.24689e-07 0)
(2.4691e-07 -6.95678e-08 0)
(4.31446e-07 3.14051e-08 0)
(5.67786e-07 2.13527e-07 0)
(4.76923e-07 1.95239e-07 0)
(3.2909e-07 2.98656e-07 0)
(5.95202e-08 6.64057e-07 0)
(-1.82716e-07 8.70128e-07 0)
(-2.90405e-07 6.10769e-07 0)
(-4.56845e-07 6.62452e-09 0)
(-4.99199e-07 -2.69255e-07 0)
(-4.8319e-07 -5.89261e-08 0)
(-6.90471e-08 -3.2842e-08 0)
(8.5669e-09 -2.70219e-07 0)
(-1.13966e-07 -1.59686e-07 0)
(-1.36209e-07 -4.2658e-08 0)
(1.79835e-08 -1.69547e-07 0)
(1.39963e-07 -3.74862e-07 0)
(1.99869e-07 -4.76745e-07 0)
(2.35248e-07 -4.61478e-07 0)
(2.91081e-07 -3.02545e-07 0)
(3.04219e-07 -8.26849e-08 0)
(4.25591e-08 3.94344e-07 0)
(1.00537e-06 2.84061e-07 0)
(6.97442e-07 1.90374e-07 0)
(3.81499e-07 2.84016e-07 0)
(6.82844e-08 5.40075e-07 0)
(-2.82953e-07 7.38036e-07 0)
(-4.3503e-07 5.23875e-07 0)
(-4.66302e-07 4.57716e-08 0)
(-5.42196e-07 -1.84075e-07 0)
(-5.49352e-07 -5.42097e-08 0)
(-8.84899e-08 -2.45217e-08 0)
(-5.18732e-08 -1.78336e-07 0)
(-2.23818e-07 -9.99155e-08 0)
(-2.1678e-07 -1.89451e-08 0)
(-1.77579e-08 -9.20968e-08 0)
(1.18656e-07 -2.19747e-07 0)
(1.98443e-07 -2.90326e-07 0)
(2.66317e-07 -2.72582e-07 0)
(3.48183e-07 -1.70877e-07 0)
(6.07845e-07 -7.29911e-08 0)
(1.34817e-06 3.42312e-07 0)
(6.13463e-07 1.88274e-07 0)
(6.96799e-07 1.10109e-07 0)
(4.56853e-07 2.01508e-07 0)
(5.23928e-08 2.94119e-07 0)
(-2.68953e-07 4.46164e-07 0)
(-4.86402e-07 3.45739e-07 0)
(-4.92555e-07 2.48492e-08 0)
(-5.73711e-07 -1.54219e-07 0)
(-5.93076e-07 -5.87518e-08 0)
(-1.00276e-07 2.52622e-09 0)
(-7.25755e-08 -4.56289e-08 0)
(-2.74057e-07 -9.93932e-09 0)
(-2.61565e-07 2.0304e-08 0)
(-2.58172e-08 -9.74669e-09 0)
(1.41437e-07 -6.32479e-08 0)
(2.12051e-07 -9.60646e-08 0)
(2.73334e-07 -8.74994e-08 0)
(3.53239e-07 -5.0354e-08 0)
(5.47722e-07 -1.56475e-09 0)
(6.24973e-07 -1.12763e-07 0)
(8.56082e-07 7.55603e-08 0)
(8.69221e-07 1.02241e-07 0)
(4.27507e-07 1.16746e-07 0)
(-1.81961e-08 1.83186e-07 0)
(-2.87941e-07 2.12045e-07 0)
(-4.43868e-07 1.32947e-07 0)
(-5.18778e-07 1.20556e-08 0)
(-6.38465e-07 -9.57909e-08 0)
(-6.03421e-07 -6.17312e-08 0)
(-1.01739e-07 4.98076e-08 0)
(-7.73837e-08 1.08439e-07 0)
(-2.7221e-07 8.04294e-08 0)
(-2.58174e-07 5.26506e-08 0)
(-2.60526e-08 5.94777e-08 0)
(1.38868e-07 6.83499e-08 0)
(2.10087e-07 6.42324e-08 0)
(2.64619e-07 3.97441e-08 0)
(3.86737e-07 1.17811e-09 0)
(4.67315e-07 6.43367e-08 0)
(7.19523e-07 -5.14166e-08 0)
(9.4206e-07 -4.22033e-08 0)
(7.9991e-07 -4.20679e-08 0)
(4.18882e-07 -4.35363e-08 0)
(-2.51662e-08 -5.68882e-08 0)
(-3.28661e-07 -8.05236e-08 0)
(-4.33906e-07 -5.07539e-08 0)
(-5.25587e-07 5.05389e-08 0)
(-6.33675e-07 -1.50891e-09 0)
(-6.0405e-07 -6.97668e-08 0)
(-1.01089e-07 5.11878e-08 0)
(-6.19343e-08 2.22494e-07 0)
(-2.33573e-07 1.65109e-07 0)
(-2.15619e-07 8.42616e-08 0)
(-1.1413e-08 1.34254e-07 0)
(1.25504e-07 2.25672e-07 0)
(2.02226e-07 2.64861e-07 0)
(2.74055e-07 2.40625e-07 0)
(3.78226e-07 1.64673e-07 0)
(5.24388e-07 -2.85959e-08 0)
(9.54162e-07 -1.68637e-07 0)
(8.29382e-07 -2.10583e-07 0)
(6.92912e-07 -1.12352e-07 0)
(3.93431e-07 -1.40185e-07 0)
(6.60526e-08 -2.57162e-07 0)
(-2.58313e-07 -3.73458e-07 0)
(-4.49456e-07 -2.56262e-07 0)
(-5.0424e-07 1.71345e-09 0)
(-6.01683e-07 5.88847e-08 0)
(-6.26183e-07 -6.16481e-08 0)
(-8.17829e-08 4.80616e-08 0)
(5.00806e-09 3.07945e-07 0)
(-1.12348e-07 2.25211e-07 0)
(-1.30039e-07 1.03044e-07 0)
(2.48539e-08 2.00901e-07 0)
(1.41433e-07 3.73658e-07 0)
(1.95267e-07 4.4631e-07 0)
(2.34538e-07 4.21176e-07 0)
(2.47185e-07 2.87491e-07 0)
(3.52544e-07 2.79558e-09 0)
(3.50814e-07 -2.13322e-07 0)
(7.40359e-07 -2.65585e-07 0)
(6.72643e-07 -1.42768e-07 0)
(3.75559e-07 -2.00254e-07 0)
(2.4551e-08 -4.20168e-07 0)
(-2.33376e-07 -6.28524e-07 0)
(-3.91372e-07 -5.06475e-07 0)
(-4.86007e-07 -6.8603e-08 0)
(-5.53355e-07 8.47547e-08 0)
(-6.06227e-07 -7.28131e-08 0)
(-5.45519e-08 6.09022e-08 0)
(7.96417e-08 3.72289e-07 0)
(1.78618e-08 2.49391e-07 0)
(-2.10281e-08 1.05182e-07 0)
(8.53109e-08 2.48676e-07 0)
(1.55544e-07 4.81082e-07 0)
(1.73878e-07 5.89244e-07 0)
(1.86458e-07 5.56739e-07 0)
(2.07899e-07 3.81189e-07 0)
(3.10516e-07 1.18847e-07 0)
(3.19148e-07 -1.43553e-07 0)
(5.03503e-07 -1.83269e-07 0)
(4.99803e-07 -9.07158e-08 0)
(3.16985e-07 -1.92697e-07 0)
(5.13646e-08 -5.35327e-07 0)
(-1.81096e-07 -7.45446e-07 0)
(-2.99587e-07 -6.39336e-07 0)
(-3.78429e-07 -1.02925e-07 0)
(-4.94749e-07 9.2746e-08 0)
(-5.51806e-07 -8.90051e-08 0)
(-2.62535e-08 4.92697e-08 0)
(1.63087e-07 3.753e-07 0)
(1.6989e-07 2.48661e-07 0)
(1.16362e-07 1.06825e-07 0)
(1.51183e-07 2.92702e-07 0)
(1.79031e-07 5.75582e-07 0)
(1.6272e-07 7.1677e-07 0)
(1.29056e-07 6.7526e-07 0)
(1.07987e-07 4.81786e-07 0)
(1.18293e-07 1.58426e-07 0)
(2.04316e-07 -7.88214e-08 0)
(3.09257e-07 -6.17047e-08 0)
(3.16395e-07 3.91953e-08 0)
(2.06196e-07 -1.1037e-07 0)
(3.37972e-08 -4.93884e-07 0)
(-1.14709e-07 -7.45505e-07 0)
(-2.42611e-07 -6.42378e-07 0)
(-3.36261e-07 -1.36002e-07 0)
(-3.87476e-07 7.774e-08 0)
(-4.21902e-07 -9.19748e-08 0)
(-3.31244e-09 2.82905e-08 0)
(2.57928e-07 3.183e-07 0)
(3.3076e-07 2.11028e-07 0)
(2.65609e-07 8.47325e-08 0)
(2.3323e-07 3.03814e-07 0)
(2.05124e-07 6.30469e-07 0)
(1.29574e-07 7.78359e-07 0)
(6.19173e-08 7.33487e-07 0)
(3.01535e-08 5.27788e-07 0)
(2.71004e-08 2.1499e-07 0)
(3.58539e-08 -4.46732e-08 0)
(2.83346e-08 -3.71762e-08 0)
(8.75332e-08 7.93582e-08 0)
(1.03921e-07 -5.38737e-08 0)
(5.70712e-08 -4.23123e-07 0)
(-6.93129e-08 -7.13059e-07 0)
(-2.21701e-07 -6.37909e-07 0)
(-2.7752e-07 -1.2253e-07 0)
(-2.42558e-07 9.21478e-08 0)
(-2.64633e-07 -8.66177e-08 0)
(1.22551e-08 -6.40158e-09 0)
(3.46753e-07 2.35737e-07 0)
(4.91888e-07 1.41977e-07 0)
(4.15425e-07 5.53779e-08 0)
(3.32069e-07 2.76633e-07 0)
(2.47128e-07 5.96434e-07 0)
(1.04219e-07 7.51735e-07 0)
(-1.16342e-08 7.24414e-07 0)
(-8.01642e-08 5.33122e-07 0)
(-1.42545e-07 2.45629e-07 0)
(-1.82857e-07 6.51916e-09 0)
(-1.50458e-07 5.05903e-08 0)
(-6.34928e-08 1.69259e-07 0)
(3.54797e-08 3.34463e-08 0)
(4.09357e-08 -3.44408e-07 0)
(-3.93937e-08 -6.40407e-07 0)
(-1.50732e-07 -5.77849e-07 0)
(-1.91956e-07 -1.10923e-07 0)
(-1.13721e-07 8.49522e-08 0)
(-1.10545e-07 -7.40241e-08 0)
(2.84078e-08 -2.76921e-08 0)
(4.15969e-07 1.42536e-07 0)
(6.28277e-07 7.19894e-08 0)
(5.57142e-07 -7.1754e-09 0)
(4.13858e-07 1.97418e-07 0)
(2.79773e-07 4.81817e-07 0)
(9.04665e-08 6.3063e-07 0)
(-6.90568e-08 6.22602e-07 0)
(-1.46628e-07 4.70956e-07 0)
(-2.29478e-07 2.28829e-07 0)
(-3.03735e-07 7.17398e-08 0)
(-3.47189e-07 9.8948e-08 0)
(-2.58376e-07 1.94608e-07 0)
(-7.96541e-08 8.0516e-08 0)
(1.8618e-08 -2.27833e-07 0)
(-1.19065e-08 -4.73291e-07 0)
(-1.173e-07 -4.50098e-07 0)
(-1.3284e-07 -1.12927e-07 0)
(1.67542e-08 5.73737e-08 0)
(3.48697e-08 -5.06129e-08 0)
(4.38516e-08 -2.49459e-08 0)
(4.72697e-07 7.17402e-08 0)
(6.92872e-07 2.58046e-08 0)
(6.42602e-07 -1.57995e-08 0)
(5.11723e-07 1.28251e-07 0)
(3.28759e-07 3.22813e-07 0)
(8.09235e-08 4.21619e-07 0)
(-1.28075e-07 4.14255e-07 0)
(-2.46455e-07 3.19738e-07 0)
(-3.50793e-07 1.58702e-07 0)
(-4.48914e-07 5.31989e-08 0)
(-4.6972e-07 7.85996e-08 0)
(-3.33844e-07 1.57607e-07 0)
(-1.03768e-07 9.40807e-08 0)
(1.99195e-08 -1.12187e-07 0)
(-7.87671e-09 -2.90184e-07 0)
(-1.14258e-07 -2.87985e-07 0)
(-1.02406e-07 -6.64082e-08 0)
(1.13011e-07 4.62335e-08 0)
(1.513e-07 -2.89819e-08 0)
(3.91072e-08 -9.93026e-09 0)
(4.80453e-07 2.83827e-08 0)
(7.49563e-07 7.3332e-09 0)
(7.27725e-07 1.4682e-08 0)
(5.51675e-07 5.99104e-08 0)
(3.41824e-07 1.19376e-07 0)
(7.00286e-08 1.4769e-07 0)
(-1.49436e-07 1.40125e-07 0)
(-2.61446e-07 1.1251e-07 0)
(-3.58877e-07 6.99802e-08 0)
(-4.87587e-07 4.31391e-08 0)
(-5.28215e-07 5.76e-08 0)
(-3.98923e-07 8.30581e-08 0)
(-1.62345e-07 4.70775e-08 0)
(-1.25987e-08 -3.82479e-08 0)
(-8.44033e-09 -1.0437e-07 0)
(-8.92969e-08 -1.01954e-07 0)
(-6.92793e-08 -1.76701e-08 0)
(1.58987e-07 2.17737e-08 0)
(2.04442e-07 -1.01657e-08 0)
)
;

boundaryField
{
    sides
    {
        type            calculated;
        value           nonuniform List<vector> 
40
(
(3.91072e-08 0 0)
(4.80453e-07 0 0)
(7.49563e-07 0 0)
(7.27725e-07 0 0)
(5.51675e-07 0 0)
(3.41824e-07 0 0)
(7.00286e-08 0 0)
(-1.49436e-07 0 0)
(-2.61446e-07 0 0)
(-3.58877e-07 0 0)
(-4.87587e-07 0 0)
(-5.28215e-07 0 0)
(-3.98923e-07 0 0)
(-1.62345e-07 0 0)
(-1.25987e-08 0 0)
(-8.44033e-09 0 0)
(-8.92969e-08 0 0)
(-6.92793e-08 0 0)
(1.58987e-07 0 0)
(2.04442e-07 0 0)
(4.61314e-08 0 0)
(5.13943e-07 0 0)
(7.34063e-07 0 0)
(6.68515e-07 0 0)
(5.21836e-07 0 0)
(3.3728e-07 0 0)
(8.6355e-08 0 0)
(-1.26037e-07 0 0)
(-2.37231e-07 0 0)
(-3.43046e-07 0 0)
(-4.62477e-07 0 0)
(-5.04305e-07 0 0)
(-3.8336e-07 0 0)
(-1.29297e-07 0 0)
(6.09085e-09 0 0)
(-2.45323e-08 0 0)
(-1.35971e-07 0 0)
(-1.01976e-07 0 0)
(1.69826e-07 0 0)
(2.79995e-07 0 0)
)
;
    }
    inlet
    {
        type            calculated;
        value           uniform (0 0 0);
    }
    outlet
    {
        type            calculated;
        value           nonuniform List<vector> 
20
(
(2.79995e-07 2.97528e-08 0)
(1.4559e-07 -1.51656e-08 0)
(9.93558e-08 6.79194e-09 0)
(-1.56765e-07 2.31475e-08 0)
(-2.74017e-07 -2.92098e-08 0)
(-4.59329e-07 -3.33106e-08 0)
(-4.8319e-07 -5.89261e-08 0)
(-5.49352e-07 -5.42097e-08 0)
(-5.93076e-07 -5.87518e-08 0)
(-6.03421e-07 -6.17312e-08 0)
(-6.0405e-07 -6.97668e-08 0)
(-6.26183e-07 -6.16481e-08 0)
(-6.06227e-07 -7.28131e-08 0)
(-5.51806e-07 -8.90051e-08 0)
(-4.21902e-07 -9.19748e-08 0)
(-2.64633e-07 -8.66177e-08 0)
(-1.10545e-07 -7.40241e-08 0)
(3.48697e-08 -5.06129e-08 0)
(1.513e-07 -2.89819e-08 0)
(2.04442e-07 -1.01657e-08 0)
)
;
    }
    frontAndBack
    {
        type            empty;
    }
}


// ************************************************************************* //
