/*--------------------------------*- C++ -*----------------------------------*\
  =========                 |
  \\      /  F ield         | OpenFOAM: The Open Source CFD Toolbox
   \\    /   O peration     | Website:  https://openfoam.org
    \\  /    A nd           | Version:  9
     \\/     M anipulation  |
\*---------------------------------------------------------------------------*/
FoamFile
{
    format      ascii;
    class       volScalarField;
    location    "20";
    object      hTotal;
}
// * * * * * * * * * * * * * * * * * * * * * * * * * * * * * * * * * * * * * //

dimensions      [0 1 0 0 0 0 0];

internalField   nonuniform List<scalar> 
400
(
0.0100015
0.0100011
0.0100006
0.00999996
0.00999933
0.00999887
0.00999857
0.00999838
0.00999828
0.00999822
0.00999824
0.00999837
0.00999857
0.00999885
0.00999917
0.00999955
0.0099999
0.0100002
0.0100003
0.0100001
0.0100014
0.010001
0.0100005
0.00999995
0.00999937
0.00999892
0.00999861
0.00999839
0.00999822
0.00999812
0.0099981
0.00999819
0.0099984
0.00999867
0.009999
0.00999936
0.00999974
0.00999999
0.0100001
0.01
0.0100013
0.010001
0.0100006
0.0100001
0.00999959
0.00999917
0.00999883
0.00999854
0.00999829
0.00999813
0.00999804
0.00999807
0.00999823
0.00999851
0.00999888
0.00999932
0.00999969
0.00999997
0.0100001
0.01
0.0100013
0.0100011
0.0100007
0.0100003
0.0099999
0.0099995
0.00999911
0.0099987
0.0099983
0.00999797
0.00999775
0.00999771
0.00999791
0.00999828
0.00999873
0.00999917
0.00999952
0.00999975
0.00999985
0.00999993
0.0100013
0.0100012
0.0100009
0.0100006
0.0100003
0.00999993
0.00999946
0.00999889
0.00999828
0.00999769
0.00999722
0.00999707
0.00999734
0.00999798
0.00999875
0.00999938
0.00999966
0.00999978
0.00999982
0.00999991
0.0100014
0.0100013
0.0100012
0.010001
0.0100008
0.0100005
0.00999987
0.00999907
0.00999814
0.00999723
0.00999648
0.00999614
0.00999658
0.00999761
0.00999871
0.00999939
0.00999959
0.00999954
0.00999957
0.0099998
0.0100015
0.0100015
0.0100015
0.0100015
0.0100014
0.0100011
0.0100005
0.00999939
0.00999778
0.00999584
0.0099944
0.00999435
0.00999602
0.00999842
0.01
0.0100003
0.00999978
0.00999932
0.00999935
0.00999975
0.0100017
0.0100017
0.0100019
0.010002
0.0100021
0.010002
0.0100014
0.0100002
0.00999814
0.00999487
0.00999061
0.00998995
0.00999362
0.00999886
0.0100017
0.0100015
0.0100001
0.00999907
0.0099991
0.00999971
0.0100018
0.0100019
0.0100022
0.0100026
0.010003
0.0100032
0.0100026
0.0100005
0.00999639
0.0099903
0.00998703
0.00998927
0.00999699
0.0100022
0.0100027
0.0100008
0.00999899
0.00999852
0.00999902
0.00999976
0.0100018
0.010002
0.0100024
0.010003
0.0100039
0.0100054
0.0100071
0.0100089
0.0100058
0.0099791
0.00995251
0.00997533
0.0100077
0.0100162
0.0100086
0.0100006
0.0099975
0.00999803
0.00999934
0.01
0.0100017
0.0100019
0.0100023
0.0100029
0.0100038
0.0100053
0.010007
0.0100089
0.0100057
0.00997902
0.00995254
0.0099753
0.0100076
0.0100161
0.0100086
0.0100005
0.00999748
0.009998
0.00999931
0.01
0.0100015
0.0100017
0.010002
0.0100024
0.0100028
0.010003
0.0100024
0.0100003
0.00999615
0.00999011
0.00998689
0.00998915
0.00999687
0.0100021
0.0100026
0.0100006
0.00999886
0.00999844
0.00999901
0.00999976
0.0100013
0.0100014
0.0100015
0.0100017
0.0100017
0.0100016
0.010001
0.00999985
0.00999782
0.00999455
0.00999027
0.00998964
0.00999337
0.00999861
0.0100015
0.0100014
0.00999986
0.00999892
0.00999901
0.00999969
0.0100011
0.010001
0.010001
0.010001
0.0100009
0.0100006
0.00999999
0.00999887
0.00999726
0.00999538
0.00999388
0.00999393
0.00999566
0.0099981
0.00999975
0.01
0.00999956
0.00999915
0.00999922
0.0099997
0.0100008
0.0100007
0.0100005
0.0100004
0.0100002
0.00999981
0.00999923
0.00999844
0.00999752
0.00999664
0.00999591
0.00999563
0.00999611
0.0099972
0.00999835
0.0099991
0.00999936
0.00999938
0.00999948
0.00999978
0.0100006
0.0100004
0.0100001
0.00999982
0.0099995
0.00999914
0.00999868
0.00999812
0.00999753
0.00999694
0.00999648
0.00999639
0.00999672
0.00999741
0.00999824
0.00999894
0.00999935
0.00999954
0.00999968
0.00999986
0.0100004
0.0100002
0.00999978
0.00999936
0.00999894
0.00999856
0.00999818
0.0099978
0.00999743
0.00999714
0.00999699
0.00999698
0.0099972
0.00999764
0.00999819
0.00999874
0.00999919
0.00999951
0.00999973
0.00999989
0.0100003
0.00999997
0.00999952
0.00999899
0.00999848
0.00999806
0.00999774
0.00999747
0.00999726
0.00999709
0.00999705
0.00999714
0.00999737
0.00999772
0.00999816
0.00999866
0.00999915
0.00999953
0.00999979
0.00999993
0.0100002
0.00999988
0.00999935
0.00999874
0.00999816
0.00999771
0.00999741
0.00999722
0.00999711
0.00999706
0.0099971
0.00999724
0.00999749
0.00999782
0.00999823
0.0099987
0.00999919
0.00999959
0.00999984
0.00999996
0.0100001
0.00999974
0.00999919
0.00999853
0.00999791
0.00999743
0.00999714
0.00999699
0.00999692
0.00999691
0.00999697
0.00999715
0.00999742
0.00999776
0.00999815
0.00999861
0.0099991
0.0099995
0.00999978
0.00999992
)
;

boundaryField
{
    sides
    {
        type            calculated;
        value           nonuniform List<scalar> 
40
(
0.0100001
0.00999974
0.00999919
0.00999853
0.00999791
0.00999743
0.00999714
0.00999699
0.00999692
0.00999691
0.00999697
0.00999715
0.00999742
0.00999776
0.00999815
0.00999861
0.0099991
0.0099995
0.00999978
0.00999992
0.0100015
0.0100011
0.0100006
0.00999996
0.00999933
0.00999887
0.00999857
0.00999838
0.00999828
0.00999822
0.00999824
0.00999837
0.00999857
0.00999885
0.00999917
0.00999955
0.0099999
0.0100002
0.0100003
0.0100001
)
;
    }
    inlet
    {
        type            calculated;
        value           nonuniform List<scalar> 
20
(
0.0100015
0.0100014
0.0100013
0.0100013
0.0100013
0.0100014
0.0100015
0.0100017
0.0100018
0.0100018
0.0100017
0.0100015
0.0100013
0.0100011
0.0100008
0.0100006
0.0100004
0.0100003
0.0100002
0.0100001
)
;
    }
    outlet
    {
        type            calculated;
        value           uniform 0.01;
    }
    frontAndBack
    {
        type            empty;
    }
}


// ************************************************************************* //
