/*--------------------------------*- C++ -*----------------------------------*\
  =========                 |
  \\      /  F ield         | OpenFOAM: The Open Source CFD Toolbox
   \\    /   O peration     | Website:  https://openfoam.org
    \\  /    A nd           | Version:  9
     \\/     M anipulation  |
\*---------------------------------------------------------------------------*/
FoamFile
{
    format      ascii;
    class       volVectorField;
    location    "20";
    object      hU;
}
// * * * * * * * * * * * * * * * * * * * * * * * * * * * * * * * * * * * * * //

dimensions      [0 2 -1 0 0 0 0];

internalField   nonuniform List<vector> 
400
(
(0.00100005 -1.30488e-08 0)
(0.00100014 -2.60616e-08 0)
(0.00100017 -4.02138e-08 0)
(0.00100028 -9.57268e-08 0)
(0.00100047 -1.65908e-07 0)
(0.00100065 -2.15511e-07 0)
(0.00100083 -2.37883e-07 0)
(0.00100103 -2.3724e-07 0)
(0.00100118 -2.15427e-07 0)
(0.00100128 -1.91629e-07 0)
(0.00100137 -1.73747e-07 0)
(0.00100145 -1.54556e-07 0)
(0.00100147 -1.24462e-07 0)
(0.00100136 -9.71489e-08 0)
(0.00100112 -8.7776e-08 0)
(0.00100087 -1.28658e-07 0)
(0.00100066 -1.58552e-07 0)
(0.00100063 -2.07002e-07 0)
(0.00100058 -1.75952e-07 0)
(0.00100059 -2.52964e-07 0)
(0.00100005 -4.15912e-09 0)
(0.00100015 1.77841e-08 0)
(0.00100018 3.0343e-08 0)
(0.00100029 -4.91204e-08 0)
(0.0010005 -1.74528e-07 0)
(0.00100069 -2.57223e-07 0)
(0.0010009 -2.7106e-07 0)
(0.00100112 -2.23619e-07 0)
(0.00100131 -1.26211e-07 0)
(0.00100143 -2.11788e-08 0)
(0.00100154 6.45777e-08 0)
(0.0010016 1.55597e-07 0)
(0.00100157 3.12716e-07 0)
(0.00100142 4.76206e-07 0)
(0.00100118 5.45673e-07 0)
(0.00100092 4.48793e-07 0)
(0.00100073 2.67269e-07 0)
(0.00100064 1.04984e-07 0)
(0.00100061 1.65577e-07 0)
(0.0010005 1.12517e-07 0)
(0.00100005 -2.97214e-08 0)
(0.00100013 -2.86759e-08 0)
(0.00100018 -4.55167e-08 0)
(0.00100031 -2.05441e-07 0)
(0.00100051 -4.35438e-07 0)
(0.00100071 -5.99932e-07 0)
(0.00100094 -6.55679e-07 0)
(0.0010012 -6.09488e-07 0)
(0.00100144 -4.79135e-07 0)
(0.00100163 -3.16534e-07 0)
(0.00100176 -1.59019e-07 0)
(0.00100182 1.79184e-08 0)
(0.00100176 2.85762e-07 0)
(0.00100153 5.25187e-07 0)
(0.00100118 5.70033e-07 0)
(0.00100082 3.67206e-07 0)
(0.00100057 8.3312e-08 0)
(0.00100054 -1.18853e-07 0)
(0.00100053 -2.41219e-08 0)
(0.00100056 -5.51319e-08 0)
(0.00100004 -5.73051e-08 0)
(0.00100012 -6.58878e-08 0)
(0.00100017 -9.65175e-08 0)
(0.00100031 -3.2713e-07 0)
(0.00100053 -6.45238e-07 0)
(0.00100075 -8.74277e-07 0)
(0.00100103 -9.58057e-07 0)
(0.00100138 -8.99583e-07 0)
(0.00100173 -7.02357e-07 0)
(0.00100203 -4.21225e-07 0)
(0.00100223 -8.42852e-08 0)
(0.00100226 3.20752e-07 0)
(0.00100208 8.01674e-07 0)
(0.00100167 1.15942e-06 0)
(0.00100122 1.16002e-06 0)
(0.00100085 7.65694e-07 0)
(0.00100068 2.62148e-07 0)
(0.00100059 -5.12587e-08 0)
(0.0010006 7.48742e-08 0)
(0.00100053 7.7321e-08 0)
(0.00100004 -9.05733e-08 0)
(0.0010001 -1.27517e-07 0)
(0.00100016 -1.9419e-07 0)
(0.00100031 -4.94049e-07 0)
(0.00100053 -9.0408e-07 0)
(0.00100077 -1.22949e-06 0)
(0.00100112 -1.38942e-06 0)
(0.00100159 -1.36258e-06 0)
(0.0010021 -1.12913e-06 0)
(0.00100259 -7.34171e-07 0)
(0.00100293 -2.33956e-07 0)
(0.00100297 3.99916e-07 0)
(0.00100259 1.0968e-06 0)
(0.00100187 1.5554e-06 0)
(0.00100108 1.51929e-06 0)
(0.00100051 1.01784e-06 0)
(0.00100033 4.20792e-07 0)
(0.00100045 6.64653e-08 0)
(0.0010006 2.27608e-07 0)
(0.00100063 2.61223e-07 0)
(0.00100003 -1.19784e-07 0)
(0.00100008 -1.87092e-07 0)
(0.00100012 -2.9933e-07 0)
(0.00100027 -6.69707e-07 0)
(0.00100046 -1.18216e-06 0)
(0.00100073 -1.63735e-06 0)
(0.00100117 -1.96521e-06 0)
(0.00100181 -2.08496e-06 0)
(0.00100257 -1.86277e-06 0)
(0.00100331 -1.14713e-06 0)
(0.00100384 1.90355e-08 0)
(0.00100387 1.35795e-06 0)
(0.00100322 2.31022e-06 0)
(0.0010021 2.37716e-06 0)
(0.00100105 1.60377e-06 0)
(0.00100046 5.80313e-07 0)
(0.00100042 -9.60738e-08 0)
(0.00100054 -2.78049e-07 0)
(0.00100077 4.58191e-08 0)
(0.00100069 1.39017e-07 0)
(0.00100003 -1.31513e-07 0)
(0.00100004 -2.33061e-07 0)
(0.00100005 -3.84024e-07 0)
(0.00100016 -8.27853e-07 0)
(0.0010003 -1.42661e-06 0)
(0.00100052 -2.06935e-06 0)
(0.00100101 -2.60072e-06 0)
(0.00100191 -3.1302e-06 0)
(0.00100326 -3.20964e-06 0)
(0.00100478 -2.84256e-06 0)
(0.00100581 -7.19955e-07 0)
(0.00100547 2.41833e-06 0)
(0.00100365 4.73456e-06 0)
(0.00100131 4.81334e-06 0)
(0.000999824 3.21278e-06 0)
(0.000999603 1.35337e-06 0)
(0.00100022 3.1569e-07 0)
(0.00100071 1.31066e-07 0)
(0.00100104 5.41451e-07 0)
(0.00100078 6.21727e-07 0)
(0.00100002 -1.26737e-07 0)
(0.000999985 -2.26139e-07 0)
(0.000999922 -4.24481e-07 0)
(0.000999961 -8.73192e-07 0)
(0.000999972 -1.6294e-06 0)
(0.00100013 -2.4667e-06 0)
(0.00100051 -3.50724e-06 0)
(0.00100154 -4.1692e-06 0)
(0.00100312 -4.35631e-06 0)
(0.0010061 -2.52478e-06 0)
(0.00100922 7.3011e-07 0)
(0.00100927 4.16527e-06 0)
(0.00100562 4.66267e-06 0)
(0.00100091 2.85002e-06 0)
(0.000998374 8.84557e-07 0)
(0.000998522 -1.91083e-07 0)
(0.00100003 -3.63148e-07 0)
(0.001001 -1.48134e-07 0)
(0.00100138 2.01803e-07 0)
(0.00100094 1.78222e-07 0)
(0.00100002 -7.88133e-08 0)
(0.000999918 -1.75523e-07 0)
(0.000999764 -3.05367e-07 0)
(0.000999626 -7.03999e-07 0)
(0.000999387 -1.39887e-06 0)
(0.000999251 -2.58718e-06 0)
(0.000999721 -4.77626e-06 0)
(0.00100142 -8.1077e-06 0)
(0.00100496 -1.32786e-05 0)
(0.00100966 -1.48943e-05 0)
(0.00101201 3.83165e-06 0)
(0.00100906 1.86565e-05 0)
(0.00100235 1.57423e-05 0)
(0.000997736 5.79437e-06 0)
(0.000997105 -2.29212e-07 0)
(0.000998698 -1.22754e-06 0)
(0.00100048 -1.95873e-07 0)
(0.00100112 4.93691e-07 0)
(0.00100109 6.13659e-07 0)
(0.0010006 2.9067e-07 0)
(0.000999829 -3.4598e-08 0)
(0.00100017 -6.85084e-08 0)
(0.000999219 -1.43092e-07 0)
(0.001 -2.68663e-07 0)
(0.000997625 -6.52759e-07 0)
(0.00099888 -1.20977e-06 0)
(0.000993346 -2.94936e-06 0)
(0.000997545 -5.6297e-06 0)
(0.000991713 -1.1559e-05 0)
(0.00091592 -1.27055e-05 0)
(0.000951577 2.88573e-07 0)
(0.00101036 1.46507e-05 0)
(0.000991088 1.30799e-05 0)
(0.000984132 5.1615e-06 0)
(0.000989813 2.24924e-07 0)
(0.000996543 -8.00567e-07 0)
(0.000999441 -1.85478e-07 0)
(0.000999495 1.64675e-07 0)
(0.000998658 1.33689e-07 0)
(0.000998556 -1.53662e-07 0)
(0.000999828 1.71054e-08 0)
(0.00100017 1.26362e-08 0)
(0.000999221 4.83731e-08 0)
(0.001 1.31199e-07 0)
(0.000997622 4.78411e-07 0)
(0.000998875 1.01847e-06 0)
(0.000993339 2.76242e-06 0)
(0.000997536 5.45549e-06 0)
(0.000991703 1.13974e-05 0)
(0.000915896 1.25632e-05 0)
(0.000951551 -4.73189e-07 0)
(0.00101034 -1.48753e-05 0)
(0.000991073 -1.33646e-05 0)
(0.000984121 -5.5471e-06 0)
(0.00098979 -7.04018e-07 0)
(0.000996508 1.8347e-07 0)
(0.000999406 -5.06321e-07 0)
(0.000999453 -1.04081e-06 0)
(0.00099864 -1.07245e-06 0)
(0.000998504 -9.11023e-07 0)
(0.00100002 6.33633e-08 0)
(0.000999923 1.24876e-07 0)
(0.000999772 2.17248e-07 0)
(0.000999636 5.7227e-07 0)
(0.000999395 1.2305e-06 0)
(0.000999256 2.39854e-06 0)
(0.000999718 4.58773e-06 0)
(0.00100141 7.92538e-06 0)
(0.00100494 1.31067e-05 0)
(0.00100964 1.47077e-05 0)
(0.00101201 -4.0073e-06 0)
(0.00100905 -1.8893e-05 0)
(0.00100229 -1.60146e-05 0)
(0.000997649 -6.16186e-06 0)
(0.000997048 -2.05237e-07 0)
(0.000998657 6.51903e-07 0)
(0.00100038 -4.67047e-07 0)
(0.00100095 -1.31437e-06 0)
(0.00100089 -1.47219e-06 0)
(0.00100042 -1.30016e-06 0)
(0.00100002 1.15762e-07 0)
(0.000999992 1.834e-07 0)
(0.000999934 3.43264e-07 0)
(0.00099997 7.46661e-07 0)
(0.000999972 1.46069e-06 0)
(0.00100012 2.27205e-06 0)
(0.00100049 3.30538e-06 0)
(0.0010015 3.9776e-06 0)
(0.00100307 4.17847e-06 0)
(0.00100604 2.34953e-06 0)
(0.00100913 -9.01674e-07 0)
(0.00100918 -4.38954e-06 0)
(0.00100554 -4.91771e-06 0)
(0.00100083 -3.17966e-06 0)
(0.000998282 -1.28425e-06 0)
(0.000998385 -4.00699e-07 0)
(0.000999843 -3.42143e-07 0)
(0.00100078 -7.03074e-07 0)
(0.00100112 -1.0601e-06 0)
(0.00100062 -1.14642e-06 0)
(0.00100003 1.23473e-07 0)
(0.00100004 1.9602e-07 0)
(0.00100006 3.07949e-07 0)
(0.00100016 7.0965e-07 0)
(0.0010003 1.27395e-06 0)
(0.00100051 1.89805e-06 0)
(0.00100099 2.43365e-06 0)
(0.00100188 2.97606e-06 0)
(0.00100322 3.07157e-06 0)
(0.00100474 2.70951e-06 0)
(0.00100575 5.67914e-07 0)
(0.00100539 -2.58302e-06 0)
(0.00100355 -4.94121e-06 0)
(0.00100117 -5.12025e-06 0)
(0.000999651 -3.62484e-06 0)
(0.000999387 -1.93021e-06 0)
(0.000999982 -9.90885e-07 0)
(0.00100041 -9.64341e-07 0)
(0.0010007 -1.3938e-06 0)
(0.00100034 -1.60296e-06 0)
(0.00100003 1.14703e-07 0)
(0.00100009 1.58022e-07 0)
(0.00100013 2.3491e-07 0)
(0.00100028 5.68616e-07 0)
(0.00100046 1.051e-06 0)
(0.00100071 1.48857e-06 0)
(0.00100114 1.81653e-06 0)
(0.00100176 1.94214e-06 0)
(0.00100251 1.72258e-06 0)
(0.00100321 9.99636e-07 0)
(0.00100373 -1.72766e-07 0)
(0.00100375 -1.54725e-06 0)
(0.00100307 -2.5446e-06 0)
(0.0010019 -2.68099e-06 0)
(0.00100083 -1.95413e-06 0)
(0.00100018 -1.02511e-06 0)
(0.0010001 -3.84116e-07 0)
(0.00100017 -3.3294e-07 0)
(0.00100035 -6.90977e-07 0)
(0.00100014 -9.40233e-07 0)
(0.00100004 9.04172e-08 0)
(0.00100012 1.07332e-07 0)
(0.00100018 1.42164e-07 0)
(0.00100032 4.10586e-07 0)
(0.00100052 7.95724e-07 0)
(0.00100075 1.10626e-06 0)
(0.00100109 1.26304e-06 0)
(0.00100153 1.244e-06 0)
(0.00100203 1.01701e-06 0)
(0.00100251 6.23553e-07 0)
(0.00100284 1.09921e-07 0)
(0.00100283 -5.59572e-07 0)
(0.00100243 -1.28782e-06 0)
(0.00100169 -1.8025e-06 0)
(0.00100088 -1.81635e-06 0)
(0.00100027 -1.45284e-06 0)
(0.00100004 -9.52729e-07 0)
(0.000999997 -7.92135e-07 0)
(0.00100007 -1.00756e-06 0)
(0.000999931 -1.20107e-06 0)
(0.00100004 6.18365e-08 0)
(0.00100014 5.82419e-08 0)
(0.0010002 6.3784e-08 0)
(0.00100033 2.64158e-07 0)
(0.00100052 5.58604e-07 0)
(0.00100073 7.7794e-07 0)
(0.00100099 8.6629e-07 0)
(0.00100132 8.20461e-07 0)
(0.00100164 6.3948e-07 0)
(0.00100191 3.71917e-07 0)
(0.00100208 3.47736e-08 0)
(0.0010021 -3.77003e-07 0)
(0.00100189 -8.77544e-07 0)
(0.00100144 -1.2982e-06 0)
(0.00100091 -1.34997e-06 0)
(0.00100043 -1.06236e-06 0)
(0.00100016 -6.00031e-07 0)
(0.000999986 -3.99149e-07 0)
(0.000999971 -5.23421e-07 0)
(0.000999745 -6.70608e-07 0)
(0.00100004 3.5727e-08 0)
(0.00100015 1.34375e-08 0)
(0.0010002 -7.0105e-09 0)
(0.00100031 1.27394e-07 0)
(0.0010005 3.3703e-07 0)
(0.00100069 4.79462e-07 0)
(0.00100091 5.18927e-07 0)
(0.00100115 4.55637e-07 0)
(0.00100138 3.06176e-07 0)
(0.00100155 1.15034e-07 0)
(0.00100167 -5.84199e-08 0)
(0.00100167 -2.65634e-07 0)
(0.00100157 -5.53891e-07 0)
(0.00100129 -8.46668e-07 0)
(0.00100092 -9.32689e-07 0)
(0.00100049 -8.17071e-07 0)
(0.0010002 -5.6133e-07 0)
(0.000999962 -4.74005e-07 0)
(0.000999882 -5.82765e-07 0)
(0.00099959 -7.42886e-07 0)
(0.00100004 2.34922e-08 0)
(0.00100015 1.97641e-08 0)
(0.00100019 1.46639e-08 0)
(0.0010003 1.07356e-07 0)
(0.00100047 2.47783e-07 0)
(0.00100064 3.47652e-07 0)
(0.00100082 3.82922e-07 0)
(0.001001 3.59e-07 0)
(0.00100116 2.862e-07 0)
(0.00100126 1.98926e-07 0)
(0.00100135 1.18469e-07 0)
(0.0010014 2.79078e-08 0)
(0.00100136 -1.16993e-07 0)
(0.00100114 -2.89496e-07 0)
(0.00100082 -3.5762e-07 0)
(0.00100043 -3.05453e-07 0)
(0.00100015 -1.44458e-07 0)
(0.000999903 -8.20884e-08 0)
(0.000999801 -1.31627e-07 0)
(0.000999466 -2.38914e-07 0)
(0.00100005 -6.95859e-09 0)
(0.00100016 -2.98452e-08 0)
(0.0010002 -5.32359e-08 0)
(0.0010003 -4.80057e-08 0)
(0.00100047 -2.88025e-08 0)
(0.00100064 -1.72157e-08 0)
(0.00100081 -2.32343e-08 0)
(0.00100098 -4.67315e-08 0)
(0.00100111 -8.00503e-08 0)
(0.00100119 -1.18329e-07 0)
(0.00100125 -1.4587e-07 0)
(0.00100128 -1.8637e-07 0)
(0.00100126 -2.57385e-07 0)
(0.00100109 -3.40877e-07 0)
(0.00100082 -3.73766e-07 0)
(0.00100045 -3.69075e-07 0)
(0.00100019 -3.11695e-07 0)
(0.0009999 -3.12327e-07 0)
(0.000999813 -3.26746e-07 0)
(0.000999354 -4.19191e-07 0)
)
;

boundaryField
{
    sides
    {
        type            slip;
    }
    inlet
    {
        type            fixedValue;
        value           uniform (0.001 0 0);
    }
    outlet
    {
        type            zeroGradient;
    }
    frontAndBack
    {
        type            empty;
    }
}


// ************************************************************************* //
