/*--------------------------------*- C++ -*----------------------------------*\
  =========                 |
  \\      /  F ield         | OpenFOAM: The Open Source CFD Toolbox
   \\    /   O peration     | Website:  https://openfoam.org
    \\  /    A nd           | Version:  9
     \\/     M anipulation  |
\*---------------------------------------------------------------------------*/
FoamFile
{
    format      ascii;
    class       volVectorField;
    location    "20";
    object      hU_0;
}
// * * * * * * * * * * * * * * * * * * * * * * * * * * * * * * * * * * * * * //

dimensions      [0 2 -1 0 0 0 0];

internalField   nonuniform List<vector> 
400
(
(0.00100005 -1.39299e-08 0)
(0.00100009 -2.41899e-08 0)
(0.0010001 -3.94517e-08 0)
(0.00100021 -9.66986e-08 0)
(0.00100042 -1.61409e-07 0)
(0.00100062 -2.03291e-07 0)
(0.00100082 -2.21507e-07 0)
(0.00100103 -2.20107e-07 0)
(0.0010012 -2.01767e-07 0)
(0.00100131 -1.83399e-07 0)
(0.00100141 -1.70409e-07 0)
(0.0010015 -1.52027e-07 0)
(0.00100151 -1.20919e-07 0)
(0.00100138 -9.57998e-08 0)
(0.00100113 -9.25041e-08 0)
(0.00100088 -1.40294e-07 0)
(0.00100068 -1.68664e-07 0)
(0.00100064 -2.13708e-07 0)
(0.00100057 -1.81462e-07 0)
(0.00100056 -2.55948e-07 0)
(0.00100005 -5.23742e-09 0)
(0.0010001 2.57164e-08 0)
(0.00100011 3.76326e-08 0)
(0.00100023 -4.58331e-08 0)
(0.00100045 -1.59073e-07 0)
(0.00100066 -2.23373e-07 0)
(0.00100089 -2.27289e-07 0)
(0.00100112 -1.78999e-07 0)
(0.00100132 -9.05342e-08 0)
(0.00100145 1.80601e-09 0)
(0.00100157 7.49281e-08 0)
(0.00100164 1.6564e-07 0)
(0.00100161 3.26954e-07 0)
(0.00100144 4.81982e-07 0)
(0.00100118 5.30662e-07 0)
(0.00100093 4.13837e-07 0)
(0.00100075 2.29635e-07 0)
(0.00100065 9.08497e-08 0)
(0.00100059 1.72739e-07 0)
(0.00100049 1.13653e-07 0)
(0.00100005 -3.04579e-08 0)
(0.00100009 -1.37634e-08 0)
(0.00100012 -3.37684e-08 0)
(0.00100026 -1.99672e-07 0)
(0.00100047 -4.12155e-07 0)
(0.00100068 -5.50845e-07 0)
(0.00100093 -5.92496e-07 0)
(0.00100121 -5.46276e-07 0)
(0.00100145 -4.28613e-07 0)
(0.00100165 -2.86816e-07 0)
(0.00100178 -1.47063e-07 0)
(0.00100185 2.97603e-08 0)
(0.00100178 3.05784e-07 0)
(0.00100154 5.32432e-07 0)
(0.00100118 5.43468e-07 0)
(0.00100083 3.1372e-07 0)
(0.00100059 3.08518e-08 0)
(0.00100056 -1.35785e-07 0)
(0.00100054 -1.73451e-08 0)
(0.00100055 -5.56488e-08 0)
(0.00100004 -5.71322e-08 0)
(0.00100009 -4.40907e-08 0)
(0.00100013 -8.21282e-08 0)
(0.00100028 -3.21995e-07 0)
(0.0010005 -6.19133e-07 0)
(0.00100073 -8.16645e-07 0)
(0.00100102 -8.83008e-07 0)
(0.00100138 -8.24781e-07 0)
(0.00100173 -6.42465e-07 0)
(0.00100204 -3.91022e-07 0)
(0.00100224 -7.7793e-08 0)
(0.00100227 3.26533e-07 0)
(0.00100208 8.173e-07 0)
(0.00100167 1.16122e-06 0)
(0.00100122 1.12097e-06 0)
(0.00100086 6.93378e-07 0)
(0.0010007 1.93323e-07 0)
(0.00100061 -7.18434e-08 0)
(0.00100061 8.33976e-08 0)
(0.00100054 7.58642e-08 0)
(0.00100004 -8.83407e-08 0)
(0.00100008 -9.87975e-08 0)
(0.00100013 -1.74038e-07 0)
(0.00100029 -4.86847e-07 0)
(0.0010005 -8.77382e-07 0)
(0.00100075 -1.16962e-06 0)
(0.00100111 -1.31139e-06 0)
(0.00100158 -1.2849e-06 0)
(0.00100209 -1.06849e-06 0)
(0.00100258 -7.04827e-07 0)
(0.00100293 -2.32595e-07 0)
(0.00100296 3.96019e-07 0)
(0.00100257 1.10261e-06 0)
(0.00100185 1.54796e-06 0)
(0.00100107 1.47363e-06 0)
(0.00100052 9.38973e-07 0)
(0.00100036 3.46213e-07 0)
(0.00100049 4.30937e-08 0)
(0.00100063 2.44833e-07 0)
(0.00100065 2.64557e-07 0)
(0.00100004 -1.1671e-07 0)
(0.00100006 -1.54545e-07 0)
(0.0010001 -2.76572e-07 0)
(0.00100026 -6.62348e-07 0)
(0.00100045 -1.1578e-06 0)
(0.00100071 -1.58178e-06 0)
(0.00100116 -1.89235e-06 0)
(0.0010018 -2.01243e-06 0)
(0.00100256 -1.80664e-06 0)
(0.00100329 -1.12647e-06 0)
(0.00100381 1.29769e-08 0)
(0.00100384 1.34396e-06 0)
(0.00100319 2.30591e-06 0)
(0.00100208 2.36117e-06 0)
(0.00100105 1.55401e-06 0)
(0.00100047 5.04116e-07 0)
(0.00100044 -1.58533e-07 0)
(0.00100057 -2.9101e-07 0)
(0.00100081 6.60233e-08 0)
(0.00100074 1.43691e-07 0)
(0.00100004 -1.29101e-07 0)
(0.00100003 -2.01269e-07 0)
(0.00100005 -3.62068e-07 0)
(0.00100016 -8.21308e-07 0)
(0.00100029 -1.4064e-06 0)
(0.00100051 -2.02339e-06 0)
(0.001001 -2.54073e-06 0)
(0.0010019 -3.07092e-06 0)
(0.00100324 -3.16678e-06 0)
(0.00100475 -2.8302e-06 0)
(0.00100577 -7.32858e-07 0)
(0.00100541 2.39775e-06 0)
(0.0010036 4.71627e-06 0)
(0.00100127 4.78739e-06 0)
(0.000999818 3.15296e-06 0)
(0.000999622 1.2713e-06 0)
(0.00100025 2.5457e-07 0)
(0.00100075 1.27454e-07 0)
(0.00100109 5.69703e-07 0)
(0.00100083 6.29797e-07 0)
(0.00100003 -1.25609e-07 0)
(0.000999987 -2.00105e-07 0)
(0.000999936 -4.06618e-07 0)
(0.000999978 -8.68403e-07 0)
(0.000999972 -1.61512e-06 0)
(0.00100012 -2.43283e-06 0)
(0.00100049 -3.46172e-06 0)
(0.00100152 -4.12389e-06 0)
(0.0010031 -4.32487e-06 0)
(0.00100606 -2.51798e-06 0)
(0.00100919 7.03538e-07 0)
(0.00100919 4.13373e-06 0)
(0.00100554 4.64333e-06 0)
(0.00100087 2.82582e-06 0)
(0.000998366 8.35732e-07 0)
(0.00099855 -2.5944e-07 0)
(0.00100007 -4.15435e-07 0)
(0.00100104 -1.52614e-07 0)
(0.00100143 2.21854e-07 0)
(0.00100099 1.85038e-07 0)
(0.00100003 -7.85317e-08 0)
(0.000999926 -1.58967e-07 0)
(0.00099979 -2.9463e-07 0)
(0.000999651 -7.02363e-07 0)
(0.000999391 -1.39204e-06 0)
(0.000999239 -2.56807e-06 0)
(0.000999702 -4.74924e-06 0)
(0.00100139 -8.08137e-06 0)
(0.00100493 -1.32602e-05 0)
(0.00100961 -1.48888e-05 0)
(0.00101191 3.8088e-06 0)
(0.00100898 1.86329e-05 0)
(0.00100228 1.573e-05 0)
(0.000997688 5.77716e-06 0)
(0.000997097 -2.54878e-07 0)
(0.000998724 -1.26905e-06 0)
(0.00100052 -2.31179e-07 0)
(0.00100116 4.90903e-07 0)
(0.00100114 6.29714e-07 0)
(0.00100066 2.97519e-07 0)
(0.00099984 -3.59025e-08 0)
(0.00100018 -6.47665e-08 0)
(0.000999249 -1.42003e-07 0)
(0.00100003 -2.71102e-07 0)
(0.000997629 -6.52995e-07 0)
(0.000998866 -1.20468e-06 0)
(0.000993325 -2.9406e-06 0)
(0.000997521 -5.62142e-06 0)
(0.000991679 -1.15546e-05 0)
(0.000915871 -1.2703e-05 0)
(0.000951505 2.90827e-07 0)
(0.00101027 1.46449e-05 0)
(0.000991002 1.30699e-05 0)
(0.000984085 5.14953e-06 0)
(0.000989812 2.08363e-07 0)
(0.00099657 -8.21869e-07 0)
(0.000999484 -1.99079e-07 0)
(0.000999544 1.62804e-07 0)
(0.000998717 1.43238e-07 0)
(0.000998613 -1.46802e-07 0)
(0.000999839 1.28167e-08 0)
(0.00100018 1.80752e-09 0)
(0.000999252 3.95225e-08 0)
(0.00100003 1.25611e-07 0)
(0.000997626 4.72806e-07 0)
(0.000998862 1.01231e-06 0)
(0.000993319 2.75639e-06 0)
(0.000997512 5.45202e-06 0)
(0.000991667 1.13963e-05 0)
(0.00091585 1.25573e-05 0)
(0.000951481 -4.62107e-07 0)
(0.00101024 -1.48663e-05 0)
(0.000990988 -1.33603e-05 0)
(0.000984075 -5.54499e-06 0)
(0.00098979 -7.00535e-07 0)
(0.000996539 1.89245e-07 0)
(0.000999449 -5.01533e-07 0)
(0.000999502 -1.04656e-06 0)
(0.000998699 -1.07309e-06 0)
(0.00099856 -9.04144e-07 0)
(0.00100003 5.98058e-08 0)
(0.000999932 1.03229e-07 0)
(0.000999798 1.99434e-07 0)
(0.000999661 5.63333e-07 0)
(0.000999398 1.21845e-06 0)
(0.000999244 2.37789e-06 0)
(0.000999699 4.56229e-06 0)
(0.00100139 7.90144e-06 0)
(0.00100491 1.30903e-05 0)
(0.0010096 1.47092e-05 0)
(0.00101193 -3.99854e-06 0)
(0.00100895 -1.88731e-05 0)
(0.00100221 -1.60022e-05 0)
(0.000997606 -6.14978e-06 0)
(0.00099704 -1.84031e-07 0)
(0.000998682 6.85503e-07 0)
(0.00100043 -4.4291e-07 0)
(0.001001 -1.31518e-06 0)
(0.00100095 -1.4794e-06 0)
(0.00100048 -1.29506e-06 0)
(0.00100003 1.13248e-07 0)
(0.000999995 1.53376e-07 0)
(0.000999949 3.18518e-07 0)
(0.000999986 7.35198e-07 0)
(0.000999971 1.44239e-06 0)
(0.00100011 2.23745e-06 0)
(0.00100047 3.26243e-06 0)
(0.00100148 3.93562e-06 0)
(0.00100305 4.14941e-06 0)
(0.001006 2.34841e-06 0)
(0.00100909 -8.90334e-07 0)
(0.00100911 -4.36439e-06 0)
(0.00100547 -4.90246e-06 0)
(0.00100079 -3.1618e-06 0)
(0.000998277 -1.24739e-06 0)
(0.000998408 -3.422e-07 0)
(0.000999881 -2.92886e-07 0)
(0.00100083 -6.95806e-07 0)
(0.00100117 -1.07045e-06 0)
(0.00100068 -1.14109e-06 0)
(0.00100003 1.19532e-07 0)
(0.00100004 1.59007e-07 0)
(0.00100006 2.7898e-07 0)
(0.00100017 6.96855e-07 0)
(0.00100029 1.2507e-06 0)
(0.00100049 1.85272e-06 0)
(0.00100097 2.37696e-06 0)
(0.00100187 2.92091e-06 0)
(0.0010032 3.03185e-06 0)
(0.0010047 2.69605e-06 0)
(0.00100571 5.88245e-07 0)
(0.00100534 -2.56159e-06 0)
(0.00100349 -4.93143e-06 0)
(0.00100113 -5.10378e-06 0)
(0.000999645 -3.57653e-06 0)
(0.000999406 -1.85928e-06 0)
(0.00100001 -9.26827e-07 0)
(0.00100045 -9.52106e-07 0)
(0.00100075 -1.40453e-06 0)
(0.00100039 -1.59599e-06 0)
(0.00100004 1.10738e-07 0)
(0.00100007 1.19732e-07 0)
(0.00100012 2.0485e-07 0)
(0.00100027 5.54349e-07 0)
(0.00100045 1.02222e-06 0)
(0.0010007 1.43315e-06 0)
(0.00100112 1.74687e-06 0)
(0.00100175 1.875e-06 0)
(0.00100249 1.67245e-06 0)
(0.0010032 9.79322e-07 0)
(0.00100371 -1.63209e-07 0)
(0.00100372 -1.53917e-06 0)
(0.00100304 -2.54804e-06 0)
(0.00100188 -2.67297e-06 0)
(0.00100083 -1.90963e-06 0)
(0.00100019 -9.53251e-07 0)
(0.00100012 -3.18242e-07 0)
(0.0010002 -3.16007e-07 0)
(0.00100039 -6.98848e-07 0)
(0.00100018 -9.32372e-07 0)
(0.00100004 8.78136e-08 0)
(0.00100009 7.39516e-08 0)
(0.00100015 1.1541e-07 0)
(0.0010003 3.97146e-07 0)
(0.0010005 7.64283e-07 0)
(0.00100073 1.04476e-06 0)
(0.00100107 1.18686e-06 0)
(0.00100152 1.17114e-06 0)
(0.00100202 9.61829e-07 0)
(0.0010025 5.98637e-07 0)
(0.00100284 1.1303e-07 0)
(0.00100282 -5.54834e-07 0)
(0.00100242 -1.29497e-06 0)
(0.00100168 -1.79952e-06 0)
(0.00100088 -1.77763e-06 0)
(0.00100028 -1.3828e-06 0)
(0.00100006 -8.8548e-07 0)
(0.00100003 -7.746e-07 0)
(0.0010001 -1.01557e-06 0)
(0.000999955 -1.19332e-06 0)
(0.00100004 6.18127e-08 0)
(0.00100011 3.24943e-08 0)
(0.00100015 4.35913e-08 0)
(0.00100029 2.53011e-07 0)
(0.00100049 5.28695e-07 0)
(0.0010007 7.18543e-07 0)
(0.00100098 7.92067e-07 0)
(0.00100132 7.48265e-07 0)
(0.00100165 5.83892e-07 0)
(0.00100192 3.43889e-07 0)
(0.00100209 3.19288e-08 0)
(0.00100211 -3.80986e-07 0)
(0.0010019 -8.93586e-07 0)
(0.00100144 -1.30272e-06 0)
(0.00100091 -1.31756e-06 0)
(0.00100044 -9.98158e-07 0)
(0.00100018 -5.378e-07 0)
(0.00100001 -3.8226e-07 0)
(0.000999982 -5.30228e-07 0)
(0.000999754 -6.63818e-07 0)
(0.00100004 3.78526e-08 0)
(0.00100011 -2.54667e-09 0)
(0.00100014 -2.01381e-08 0)
(0.00100026 1.22313e-07 0)
(0.00100046 3.1454e-07 0)
(0.00100067 4.30342e-07 0)
(0.0010009 4.55681e-07 0)
(0.00100116 3.92784e-07 0)
(0.00100139 2.56879e-07 0)
(0.00100157 8.82458e-08 0)
(0.00100169 -6.79717e-08 0)
(0.0010017 -2.75049e-07 0)
(0.00100159 -5.7196e-07 0)
(0.0010013 -8.54479e-07 0)
(0.00100093 -9.10319e-07 0)
(0.0010005 -7.68758e-07 0)
(0.00100022 -5.12474e-07 0)
(0.000999977 -4.5811e-07 0)
(0.00099988 -5.87015e-07 0)
(0.000999585 -7.38235e-07 0)
(0.00100004 2.54552e-08 0)
(0.0010001 1.12768e-08 0)
(0.00100012 7.94204e-09 0)
(0.00100024 1.05087e-07 0)
(0.00100042 2.33111e-07 0)
(0.00100061 3.14831e-07 0)
(0.0010008 3.40584e-07 0)
(0.00100101 3.16921e-07 0)
(0.00100118 2.52693e-07 0)
(0.00100129 1.80892e-07 0)
(0.00100139 1.10802e-07 0)
(0.00100144 2.02488e-08 0)
(0.00100139 -1.31167e-07 0)
(0.00100116 -2.98091e-07 0)
(0.00100082 -3.46186e-07 0)
(0.00100043 -2.75278e-07 0)
(0.00100016 -1.12583e-07 0)
(0.000999916 -7.20494e-08 0)
(0.00099979 -1.35068e-07 0)
(0.000999448 -2.36208e-07 0)
(0.00100005 -6.47459e-09 0)
(0.00100011 -3.34046e-08 0)
(0.00100013 -5.52698e-08 0)
(0.00100023 -5.03214e-08 0)
(0.00100042 -3.52443e-08 0)
(0.00100061 -2.90785e-08 0)
(0.0010008 -3.78007e-08 0)
(0.00100099 -6.07705e-08 0)
(0.00100113 -9.15143e-08 0)
(0.00100121 -1.2535e-07 0)
(0.00100129 -1.50451e-07 0)
(0.00100133 -1.91993e-07 0)
(0.00100131 -2.6521e-07 0)
(0.00100111 -3.45358e-07 0)
(0.00100083 -3.69892e-07 0)
(0.00100046 -3.58128e-07 0)
(0.0010002 -3.00166e-07 0)
(0.00099991 -3.09117e-07 0)
(0.000999797 -3.28379e-07 0)
(0.00099933 -4.18201e-07 0)
)
;

boundaryField
{
    sides
    {
        type            slip;
    }
    inlet
    {
        type            fixedValue;
        value           uniform (0.001 0 0);
    }
    outlet
    {
        type            zeroGradient;
    }
    frontAndBack
    {
        type            empty;
    }
}


// ************************************************************************* //
