/*--------------------------------*- C++ -*----------------------------------*\
  =========                 |
  \\      /  F ield         | OpenFOAM: The Open Source CFD Toolbox
   \\    /   O peration     | Website:  https://openfoam.org
    \\  /    A nd           | Version:  9
     \\/     M anipulation  |
\*---------------------------------------------------------------------------*/
FoamFile
{
    format      ascii;
    class       surfaceScalarField;
    location    "20";
    object      phi;
}
// * * * * * * * * * * * * * * * * * * * * * * * * * * * * * * * * * * * * * //

dimensions      [0 4 -1 0 0 0 0];

internalField   nonuniform List<scalar> 
760
(
5.00031e-06
-1.73638e-11
5.00075e-06
9.56287e-12
5.00124e-06
-6.19255e-14
5.00194e-06
-2.883e-10
5.00289e-06
-7.39261e-10
5.0039e-06
-1.05926e-09
5.00483e-06
-1.15224e-09
5.0056e-06
-1.03827e-09
5.00622e-06
-7.48738e-10
5.00671e-06
-4.41654e-10
5.00707e-06
-2.05916e-10
5.00721e-06
5.02363e-11
5.00687e-06
5.86165e-10
5.006e-06
1.09352e-09
5.00476e-06
1.31456e-09
5.0037e-06
9.835e-10
5.00314e-06
3.71027e-10
5.00309e-06
-1.6432e-10
5.00295e-06
2.15344e-11
-2.76411e-10
5.00035e-06
-9.89559e-11
5.00082e-06
-3.95085e-11
5.00128e-06
-5.18856e-11
5.00202e-06
-7.16321e-10
5.00304e-06
-1.6295e-09
5.00415e-06
-2.26827e-09
5.00523e-06
-2.45892e-09
5.00618e-06
-2.24033e-09
5.00698e-06
-1.67403e-09
5.00756e-06
-1.00223e-09
5.00782e-06
-3.34566e-10
5.00777e-06
3.21343e-10
5.00726e-06
1.34241e-09
5.0062e-06
2.39164e-09
5.00501e-06
2.65126e-09
5.00411e-06
1.81169e-09
5.0035e-06
7.47134e-10
5.00328e-06
-1.3904e-10
5.00289e-06
2.39349e-10
9.58176e-11
5.0003e-06
-1.921e-10
5.00077e-06
-2.15436e-10
5.00134e-06
-3.12678e-10
5.00207e-06
-1.25816e-09
5.00308e-06
-2.61452e-09
5.00429e-06
-3.59408e-09
5.00556e-06
-3.94115e-09
5.0068e-06
-3.67582e-09
5.00787e-06
-2.85112e-09
5.00866e-06
-1.75537e-09
5.00904e-06
-5.82739e-10
5.00883e-06
7.81418e-10
5.00788e-06
2.57237e-09
5.00637e-06
4.18372e-09
5.00466e-06
4.57626e-09
5.00331e-06
3.22519e-09
5.00292e-06
1.06829e-09
5.0029e-06
-2.74383e-10
5.00284e-06
2.584e-10
1.08636e-10
5.00029e-06
-3.66838e-10
5.00074e-06
-4.84245e-10
5.0013e-06
-7.08674e-10
5.00207e-06
-1.99878e-09
5.00317e-06
-3.78827e-09
5.00459e-06
-5.15561e-09
5.00624e-06
-5.78462e-09
5.00807e-06
-5.65716e-09
5.00984e-06
-4.72168e-09
5.01108e-06
-2.96739e-09
5.01138e-06
-7.4746e-10
5.01054e-06
1.88238e-09
5.00856e-06
4.88974e-09
5.00635e-06
6.7576e-09
5.00486e-06
6.32755e-09
5.00415e-06
3.9819e-09
5.00367e-06
1.44328e-09
5.00338e-06
-7.32555e-11
5.00294e-06
5.78812e-10
7.31496e-10
5.00023e-06
-5.36238e-10
5.00064e-06
-7.97002e-10
5.00119e-06
-1.22808e-09
5.00197e-06
-2.86909e-09
5.00314e-06
-5.11811e-09
5.00481e-06
-6.98595e-09
5.00698e-06
-8.09349e-09
5.00955e-06
-8.3298e-09
5.01248e-06
-7.70275e-09
5.01486e-06
-5.34381e-09
5.01514e-06
-8.83434e-10
5.01341e-06
3.89178e-09
5.00956e-06
9.10366e-09
5.0057e-06
1.10285e-08
5.00334e-06
8.95578e-09
5.00273e-06
4.70685e-09
5.00319e-06
1.00567e-09
5.00341e-06
-3.88452e-10
5.00306e-06
8.56579e-10
1.11268e-09
5.00016e-06
-6.57702e-10
5.00046e-06
-1.0848e-09
5.0009e-06
-1.74049e-09
5.00155e-06
-3.71542e-09
5.00267e-06
-6.45551e-09
5.00473e-06
-9.18436e-09
5.00776e-06
-1.12152e-08
5.0118e-06
-1.2421e-08
5.01567e-06
-1.16318e-08
5.01929e-06
-8.87494e-09
5.02058e-06
-2.0148e-09
5.01658e-06
8.20382e-09
5.01034e-06
1.57542e-08
5.00534e-06
1.63803e-08
5.00349e-06
1.10092e-08
5.00388e-06
4.37008e-09
5.00426e-06
5.18264e-10
5.00412e-06
-4.26936e-10
5.00344e-06
1.46329e-09
1.86634e-09
5.00006e-06
-6.85515e-10
5.00016e-06
-1.21037e-09
5.00038e-06
-2.10883e-09
5.00071e-06
-4.27167e-09
5.00146e-06
-7.42474e-09
5.00308e-06
-1.0912e-08
5.00697e-06
-1.51178e-08
5.0141e-06
-1.95736e-08
5.02396e-06
-2.14603e-08
5.03113e-06
-1.60337e-08
5.0292e-06
2.68039e-10
5.0174e-06
2.0263e-08
5.0051e-06
2.84253e-08
4.99988e-06
2.18966e-08
5.00173e-06
9.28349e-09
5.0039e-06
2.16216e-09
5.00474e-06
-4.92785e-10
5.00427e-06
-1.08675e-10
5.00357e-06
2.09608e-09
2.09308e-09
4.9999e-06
-5.5936e-10
4.99972e-06
-1.0847e-09
4.99946e-06
-2.01558e-09
4.99922e-06
-4.26298e-09
4.99958e-06
-7.96421e-09
5.0005e-06
-1.18865e-08
5.00372e-06
-1.83181e-08
5.00993e-06
-2.57332e-08
5.02518e-06
-3.66507e-08
5.05655e-06
-4.7437e-08
5.05067e-06
6.17312e-09
5.02381e-06
4.74869e-08
4.99894e-06
5.35528e-08
4.9946e-06
2.6415e-08
5.00082e-06
3.04915e-09
5.00537e-06
-2.60494e-09
5.00555e-06
-1.02981e-09
5.00413e-06
1.07471e-09
5.00382e-06
2.27243e-09
1.28716e-09
4.99977e-06
-2.80709e-10
4.99928e-06
-6.41397e-10
4.99826e-06
-1.15954e-09
4.99649e-06
-2.71011e-09
4.99429e-06
-5.89511e-09
4.9939e-06
-1.15084e-08
4.99958e-06
-2.39241e-08
5.01728e-06
-4.33753e-08
5.05593e-06
-7.52174e-08
5.06735e-06
-5.85603e-08
5.05027e-06
2.37454e-08
4.99722e-06
1.00813e-07
4.99017e-06
6.09209e-08
4.99698e-06
1.97144e-08
5.00145e-06
-1.49765e-09
5.0041e-06
-5.57822e-09
5.00326e-06
-5.69618e-10
5.00208e-06
1.93042e-09
5.00268e-06
1.49612e-09
2.21346e-10
4.99985e-06
-4.29347e-11
4.99931e-06
-1.4169e-10
4.99823e-06
-2.40947e-10
4.99569e-06
-3.58347e-10
4.99016e-06
-4.60279e-10
4.9792e-06
-5.12387e-10
4.95588e-06
-5.08767e-10
4.9131e-06
-4.82252e-10
4.83839e-06
-4.64065e-10
4.78049e-06
-4.00951e-10
4.80487e-06
-5.41284e-10
4.90677e-06
-5.96497e-10
4.96863e-06
-6.54718e-10
4.98926e-06
-8.76876e-10
4.98877e-06
-1.17569e-09
4.98446e-06
-1.63283e-09
4.98531e-06
-1.83234e-09
4.98904e-06
-2.16388e-09
4.99257e-06
-2.2161e-09
-2.5777e-09
4.99986e-06
1.98502e-10
4.99932e-06
3.67047e-10
4.99824e-06
6.96963e-10
4.99569e-06
2.00515e-09
4.99014e-06
4.99337e-09
4.97917e-06
1.04919e-08
4.95585e-06
2.29207e-08
4.91305e-06
4.2418e-08
4.83834e-06
7.43627e-08
4.78024e-06
5.7846e-08
4.80491e-06
-2.49373e-08
4.90669e-06
-1.02074e-07
4.96857e-06
-6.22387e-08
4.9891e-06
-2.13253e-08
4.98868e-06
-9.0819e-10
4.98417e-06
2.53832e-09
4.98516e-06
-3.23931e-09
4.98904e-06
-6.40124e-09
4.99241e-06
-5.77589e-09
-5.15537e-09
4.9998e-06
4.83585e-10
4.9993e-06
8.26106e-10
4.9983e-06
1.56217e-09
4.99654e-06
3.58313e-09
4.99433e-06
7.07835e-09
4.99391e-06
1.09147e-08
4.99954e-06
1.73659e-08
5.01719e-06
2.48564e-08
5.05586e-06
3.58153e-08
5.06742e-06
4.63413e-08
5.05019e-06
-7.58966e-09
4.99687e-06
-4.85289e-08
4.98971e-06
-5.47974e-08
4.99682e-06
-2.8267e-08
5.00149e-06
-5.63917e-09
5.00351e-06
2.68026e-10
5.00241e-06
-2.51285e-09
5.00115e-06
-5.46162e-09
5.0018e-06
-6.61557e-09
-6.26473e-09
4.99994e-06
6.40929e-10
4.99977e-06
9.92868e-10
4.99951e-06
1.7022e-09
4.99925e-06
3.64708e-09
4.99955e-06
6.62848e-09
5.00041e-06
1.00276e-08
5.00355e-06
1.4281e-08
5.00972e-06
1.87453e-08
5.02488e-06
2.06946e-08
5.05613e-06
1.52926e-08
5.05025e-06
-1.32822e-09
5.02343e-06
-2.13041e-08
4.99865e-06
-2.96687e-08
4.99425e-06
-2.36294e-08
4.99987e-06
-1.12249e-08
5.0047e-06
-4.70444e-09
5.00463e-06
-2.70783e-09
5.0028e-06
-3.87491e-09
5.00243e-06
-6.4128e-09
-6.93414e-09
5.0001e-06
6.20712e-10
5.0002e-06
9.11601e-10
5.00043e-06
1.38528e-09
5.00072e-06
3.17194e-09
5.00143e-06
5.75832e-09
5.00298e-06
8.39184e-09
5.00685e-06
1.04164e-08
5.01395e-06
1.16561e-08
5.02374e-06
1.09032e-08
5.03094e-06
8.1502e-09
5.02882e-06
1.08124e-09
5.01696e-06
-9.06661e-09
5.00447e-06
-1.68354e-08
4.99899e-06
-1.78588e-08
5.00076e-06
-1.28584e-08
5.00292e-06
-6.90146e-09
5.00336e-06
-3.3095e-09
5.0027e-06
-3.3832e-09
5.0016e-06
-5.43906e-09
-6.43618e-09
5.00021e-06
5.21657e-10
5.00053e-06
6.79259e-10
5.00095e-06
9.44017e-10
5.00158e-06
2.4141e-09
5.00265e-06
4.52597e-09
5.00463e-06
6.31271e-09
5.00757e-06
7.4164e-09
5.0115e-06
7.69372e-09
5.01526e-06
7.12487e-09
5.01875e-06
4.71833e-09
5.02002e-06
1.98938e-11
5.01589e-06
-4.64787e-09
5.00946e-06
-1.00468e-08
5.00432e-06
-1.2387e-08
5.00226e-06
-1.05841e-08
5.00233e-06
-6.93278e-09
5.00261e-06
-3.67245e-09
5.0021e-06
-2.99709e-09
5.00097e-06
-4.40024e-09
-5.44159e-09
5.0003e-06
3.76036e-10
5.00072e-06
4.10794e-10
5.00125e-06
4.92182e-10
5.00199e-06
1.62933e-09
5.00309e-06
3.2988e-09
5.00468e-06
4.60736e-09
5.00675e-06
5.23563e-09
5.00922e-06
5.13692e-09
5.01211e-06
4.18738e-09
5.01455e-06
2.3215e-09
5.01443e-06
2.56894e-10
5.01266e-06
-2.60885e-09
5.00873e-06
-5.74902e-09
5.00477e-06
-8.05152e-09
5.0023e-06
-7.85809e-09
5.00144e-06
-5.98696e-09
5.00129e-06
-3.585e-09
5.00089e-06
-2.70682e-09
5e-06
-3.57873e-09
-4.58122e-09
5.00035e-06
2.34561e-10
5.00083e-06
1.92542e-10
5.00137e-06
1.4933e-10
5.0021e-06
9.8293e-10
5.00312e-06
2.24108e-09
5.00444e-06
3.15944e-09
5.006e-06
3.50928e-09
5.00771e-06
3.28517e-09
5.00932e-06
2.51183e-09
5.01026e-06
1.40788e-09
5.01068e-06
-3.03745e-12
5.00969e-06
-1.35969e-09
5.00758e-06
-3.27915e-09
5.005e-06
-5.09652e-09
5.00295e-06
-5.54912e-09
5.00168e-06
-4.65533e-09
5.00093e-06
-2.91845e-09
5.00029e-06
-2.20416e-09
4.99942e-06
-2.79005e-09
-3.55121e-09
5.00039e-06
1.15982e-10
5.00088e-06
6.42479e-11
5.00138e-06
-5.95955e-12
5.00207e-06
5.07904e-10
5.00303e-06
1.34602e-09
5.00416e-06
1.94275e-09
5.00535e-06
2.13331e-09
5.00651e-06
1.92243e-09
5.00756e-06
1.37358e-09
5.00831e-06
6.8595e-10
5.00833e-06
1.0288e-10
5.00791e-06
-7.05694e-10
5.0068e-06
-1.82436e-09
5.00509e-06
-3.06114e-09
5.00325e-06
-3.49365e-09
5.00169e-06
-3.05919e-09
5.0006e-06
-1.9531e-09
4.9998e-06
-1.55107e-09
4.99884e-06
-1.9283e-09
-2.52706e-09
5.00033e-06
8.0298e-11
5.00082e-06
1.79906e-12
5.00134e-06
-5.56871e-11
5.002e-06
2.12508e-10
5.00287e-06
6.60701e-10
5.00382e-06
9.60741e-10
5.00473e-06
1.03718e-09
5.00552e-06
9.11691e-10
5.00617e-06
6.32762e-10
5.00664e-06
2.87598e-10
5.00695e-06
-2.84381e-11
5.00677e-06
-2.89787e-10
5.00602e-06
-7.81425e-10
5.00461e-06
-1.38503e-09
5.0029e-06
-1.62955e-09
5.00132e-06
-1.50036e-09
5.0002e-06
-9.9338e-10
4.99932e-06
-8.44651e-10
4.99829e-06
-1.00347e-09
-1.54526e-09
5.00041e-06
5.00088e-06
5.00137e-06
5.00201e-06
5.00288e-06
5.00382e-06
5.00464e-06
5.00532e-06
5.00584e-06
5.00618e-06
5.00632e-06
5.00626e-06
5.00574e-06
5.00457e-06
5.00305e-06
5.00149e-06
5.0003e-06
4.99926e-06
4.99814e-06
)
;

boundaryField
{
    sides
    {
        type            calculated;
        value           uniform 0;
    }
    inlet
    {
        type            calculated;
        value           nonuniform List<scalar> 
20
(
-5e-06
-5e-06
-5e-06
-5e-06
-5e-06
-5e-06
-5e-06
-5e-06
-5e-06
-5e-06
-5e-06
-5e-06
-5e-06
-5e-06
-5e-06
-5e-06
-5e-06
-5e-06
-5e-06
-5e-06
)
;
    }
    outlet
    {
        type            calculated;
        value           nonuniform List<scalar> 
20
(
5.00319e-06
5.00246e-06
5.00283e-06
5.00227e-06
5.00265e-06
5.00267e-06
5.00332e-06
5.00459e-06
5.00371e-06
4.99532e-06
4.99494e-06
5.00284e-06
5.00303e-06
5.00106e-06
4.99995e-06
4.99912e-06
4.99837e-06
4.99778e-06
4.99728e-06
4.99655e-06
)
;
    }
    frontAndBack
    {
        type            empty;
        value           nonuniform List<scalar> 0();
    }
}


// ************************************************************************* //
