/*--------------------------------*- C++ -*----------------------------------*\
  =========                 |
  \\      /  F ield         | OpenFOAM: The Open Source CFD Toolbox
   \\    /   O peration     | Website:  https://openfoam.org
    \\  /    A nd           | Version:  9
     \\/     M anipulation  |
\*---------------------------------------------------------------------------*/
FoamFile
{
    format      ascii;
    class       surfaceScalarField;
    location    "20";
    object      phi_0;
}
// * * * * * * * * * * * * * * * * * * * * * * * * * * * * * * * * * * * * * //

dimensions      [0 4 -1 0 0 0 0];

internalField   nonuniform List<scalar> 
760
(
5.00014e-06
-2.75652e-11
5.00042e-06
3.90055e-11
5.00087e-06
2.28562e-11
5.00162e-06
-2.73229e-10
5.00268e-06
-6.8361e-10
5.00381e-06
-9.40279e-10
5.00483e-06
-1.00092e-09
5.00567e-06
-8.84226e-10
5.00632e-06
-6.29781e-10
5.00687e-06
-3.63682e-10
5.0073e-06
-1.71443e-10
5.00744e-06
9.24498e-11
5.00702e-06
6.31931e-10
5.00605e-06
1.10724e-09
5.0048e-06
1.25919e-09
5.00377e-06
8.59885e-10
5.00325e-06
2.33055e-10
5.00309e-06
-1.9777e-10
5.00281e-06
3.57378e-11
-2.75943e-10
5.00019e-06
-9.4751e-11
5.00052e-06
1.23715e-11
5.00093e-06
-4.24772e-12
5.00173e-06
-6.91149e-10
5.00285e-06
-1.52606e-09
5.00407e-06
-2.05193e-09
5.00522e-06
-2.18456e-09
5.00623e-06
-1.96631e-09
5.00706e-06
-1.45817e-09
5.00769e-06
-8.67599e-10
5.008e-06
-2.76483e-10
5.00796e-06
3.67453e-10
5.00739e-06
1.42771e-09
5.00626e-06
2.42558e-09
5.00504e-06
2.55082e-09
5.0042e-06
1.5835e-09
5.00358e-06
5.07993e-10
5.00326e-06
-2.49689e-10
5.00279e-06
2.50434e-10
9.15905e-11
5.00016e-06
-1.97219e-10
5.00052e-06
-1.33318e-10
5.00104e-06
-2.44926e-10
5.00182e-06
-1.22642e-09
5.00291e-06
-2.48174e-09
5.0042e-06
-3.31975e-09
5.00554e-06
-3.58981e-09
5.00683e-06
-3.3264e-09
5.00794e-06
-2.56676e-09
5.00876e-06
-1.59828e-09
5.00918e-06
-5.24906e-10
5.00894e-06
8.2642e-10
5.00793e-06
2.66427e-09
5.00638e-06
4.21281e-09
5.00469e-06
4.40357e-09
5.00338e-06
2.9068e-09
5.00305e-06
7.71524e-10
5.00301e-06
-3.94982e-10
5.00281e-06
3.40558e-10
1.08159e-10
5.00018e-06
-3.59705e-10
5.00053e-06
-3.55936e-10
5.00107e-06
-6.16351e-10
5.00189e-06
-1.95943e-09
5.00304e-06
-3.64791e-09
5.00451e-06
-4.85314e-09
5.00621e-06
-5.39093e-09
5.00807e-06
-5.26577e-09
5.00987e-06
-4.41552e-09
5.01112e-06
-2.81654e-09
5.01143e-06
-7.30161e-10
5.01057e-06
1.89616e-09
5.00855e-06
4.9456e-09
5.00632e-06
6.74065e-09
5.00488e-06
6.10534e-09
5.00424e-06
3.60377e-09
5.00379e-06
1.0708e-09
5.00343e-06
-2.23029e-10
5.00298e-06
6.1909e-10
7.28466e-10
5.00016e-06
-5.20548e-10
5.0005e-06
-6.41994e-10
5.00105e-06
-1.11838e-09
5.00185e-06
-2.82829e-09
5.00304e-06
-4.98396e-09
5.00473e-06
-6.69003e-09
5.00692e-06
-7.71519e-09
5.00952e-06
-7.95149e-09
5.01246e-06
-7.4065e-09
5.01484e-06
-5.20796e-09
5.0151e-06
-9.00703e-10
5.01334e-06
3.84333e-09
5.00946e-06
9.1159e-09
5.00562e-06
1.09718e-08
5.00335e-06
8.7046e-09
5.00283e-06
4.29231e-09
5.00339e-06
6.44823e-10
5.00359e-06
-4.79155e-10
5.00318e-06
9.62581e-10
1.13437e-09
5.00011e-06
-6.41264e-10
5.00039e-06
-9.19669e-10
5.00083e-06
-1.62219e-09
5.0015e-06
-3.67418e-09
5.00261e-06
-6.33968e-09
5.00464e-06
-8.92593e-09
5.00768e-06
-1.08774e-08
5.01174e-06
-1.20923e-08
5.01562e-06
-1.1379e-08
5.01919e-06
-8.81071e-09
5.02041e-06
-2.05951e-09
5.0164e-06
8.10934e-09
5.01017e-06
1.56771e-08
5.00525e-06
1.62774e-08
5.00351e-06
1.07651e-08
5.00398e-06
3.99719e-09
5.0044e-06
1.7235e-10
5.00432e-06
-4.64538e-10
5.00365e-06
1.60163e-09
1.9038e-09
5.00004e-06
-6.7613e-10
5.00015e-06
-1.06283e-09
5.0004e-06
-2.00984e-09
5.00071e-06
-4.23977e-09
5.00143e-06
-7.33635e-09
5.003e-06
-1.07187e-08
5.00687e-06
-1.48612e-08
5.01402e-06
-1.93141e-08
5.02383e-06
-2.12883e-08
5.031e-06
-1.59587e-08
5.02891e-06
7.74967e-11
5.0171e-06
2.01652e-08
5.00486e-06
2.83407e-08
4.99978e-06
2.17548e-08
5.00178e-06
9.01594e-09
5.00404e-06
1.86047e-09
5.00494e-06
-8.4416e-10
5.00452e-06
-1.18388e-10
5.0038e-06
2.22634e-09
2.13163e-09
4.99991e-06
-5.55409e-10
4.99978e-06
-9.75504e-10
4.99954e-06
-1.94548e-09
4.99927e-06
-4.24881e-09
4.99955e-06
-7.91089e-09
5.00041e-06
-1.1756e-08
5.00361e-06
-1.81488e-08
5.00981e-06
-2.55711e-08
5.02503e-06
-3.65168e-08
5.05638e-06
-4.74404e-08
5.05033e-06
7.51805e-09
5.02335e-06
4.72907e-08
4.99862e-06
5.34594e-08
4.99445e-06
2.63154e-08
5.0009e-06
2.78676e-09
5.00559e-06
-2.83719e-09
5.00578e-06
-1.22539e-09
5.00438e-06
1.0548e-09
5.00407e-06
2.36391e-09
1.31871e-09
4.9998e-06
-2.83466e-10
4.99938e-06
-5.89984e-10
4.99839e-06
-1.12991e-09
4.99657e-06
-2.71498e-09
4.99428e-06
-5.88078e-09
4.99382e-06
-1.14456e-08
4.99946e-06
-2.38288e-08
5.01715e-06
-4.32831e-08
5.05574e-06
-7.51677e-08
5.06697e-06
-5.84897e-08
5.04979e-06
2.35009e-08
4.99681e-06
1.00774e-07
4.98985e-06
6.0881e-08
4.99682e-06
1.96595e-08
5.00151e-06
-1.69561e-09
5.00433e-06
-5.7416e-09
5.00353e-06
-6.67257e-10
5.00234e-06
1.91876e-09
5.00294e-06
1.55512e-09
2.50243e-10
4.99988e-06
-5.60917e-11
4.99944e-06
-1.59185e-10
4.9984e-06
-2.59912e-10
4.99579e-06
-3.79087e-10
4.99015e-06
-4.75128e-10
4.97911e-06
-5.1349e-10
4.95576e-06
-4.98742e-10
4.91296e-06
-4.66656e-10
4.83823e-06
-4.5001e-10
4.78013e-06
-4.37261e-10
4.80447e-06
-4.81478e-10
4.90629e-06
-6.05722e-10
4.96826e-06
-6.81207e-10
4.98916e-06
-9.11194e-10
4.98883e-06
-1.23188e-09
4.98467e-06
-1.6676e-09
4.98558e-06
-1.84818e-09
4.98933e-06
-2.18281e-09
4.99284e-06
-2.19277e-09
-2.54316e-09
4.99989e-06
1.72835e-10
4.99945e-06
2.78201e-10
4.9984e-06
6.2689e-10
4.99579e-06
1.96924e-09
4.99013e-06
4.94969e-09
4.97908e-06
1.04221e-08
4.95573e-06
2.28378e-08
4.91291e-06
4.23482e-08
4.83814e-06
7.43145e-08
4.77996e-06
5.78314e-08
4.80444e-06
-2.48313e-08
4.9062e-06
-1.01989e-07
4.9682e-06
-6.21992e-08
4.98899e-06
-2.13008e-08
4.98877e-06
-8.49571e-10
4.9844e-06
2.64274e-09
4.98542e-06
-3.15761e-09
4.98933e-06
-6.41954e-09
4.99268e-06
-5.79935e-09
-5.12839e-09
4.99982e-06
4.75144e-10
4.99942e-06
6.96092e-10
4.99844e-06
1.4588e-09
4.99661e-06
3.53448e-09
4.99432e-06
7.00105e-09
4.99383e-06
1.07761e-08
4.99942e-06
1.71997e-08
5.01705e-06
2.46978e-08
5.05565e-06
3.57165e-08
5.06716e-06
4.63726e-08
5.04967e-06
-7.81848e-09
4.99642e-06
-4.84466e-08
4.98938e-06
-5.46982e-08
4.99669e-06
-2.81823e-08
5.00152e-06
-5.4582e-09
5.00374e-06
4.24042e-10
5.00267e-06
-2.31562e-09
5.00143e-06
-5.4589e-09
5.00207e-06
-6.67152e-09
-6.24338e-09
4.99994e-06
6.20936e-10
4.99983e-06
8.17043e-10
4.99959e-06
1.56548e-09
4.9993e-06
3.58343e-09
4.99953e-06
6.52461e-09
5.00032e-06
9.83261e-09
5.00343e-06
1.40348e-08
5.00961e-06
1.85063e-08
5.02476e-06
2.05199e-08
5.05587e-06
1.52554e-08
5.04999e-06
-1.19955e-09
5.02305e-06
-2.1166e-08
4.99835e-06
-2.96166e-08
4.99411e-06
-2.35402e-08
4.99995e-06
-1.10118e-08
5.00486e-06
-4.42084e-09
5.00489e-06
-2.45612e-09
5.00306e-06
-3.82625e-09
5.00268e-06
-6.46367e-09
-6.90336e-09
5.00008e-06
5.99858e-10
5.0002e-06
7.18167e-10
5.00045e-06
1.2344e-09
5.00073e-06
3.09922e-09
5.00138e-06
5.62618e-09
5.0029e-06
8.14018e-09
5.00674e-06
1.00996e-08
5.01386e-06
1.13536e-08
5.02365e-06
1.06822e-08
5.03075e-06
8.05535e-09
5.02862e-06
1.15606e-09
5.01667e-06
-9.00238e-09
5.00423e-06
-1.68098e-08
4.99888e-06
-1.77926e-08
5.0008e-06
-1.26333e-08
5.00306e-06
-6.5555e-09
5.00356e-06
-2.99238e-09
5.00291e-06
-3.3131e-09
5.00183e-06
-5.48618e-09
-6.39881e-09
5.00016e-06
5.01596e-10
5.00045e-06
4.94054e-10
5.00089e-06
7.93954e-10
5.00153e-06
2.33618e-09
5.00258e-06
4.36518e-09
5.00454e-06
6.01254e-09
5.00748e-06
7.05014e-09
5.01144e-06
7.34253e-09
5.01522e-06
6.85531e-09
5.01867e-06
4.60325e-09
5.01987e-06
5.53878e-11
5.01571e-06
-4.61612e-09
5.0093e-06
-1.007e-08
5.00425e-06
-1.2362e-08
5.00229e-06
-1.03695e-08
5.00245e-06
-6.56476e-09
5.00277e-06
-3.33188e-09
5.00228e-06
-2.91223e-09
5.00116e-06
-4.43754e-09
-5.4005e-09
5.00021e-06
3.69732e-10
5.00058e-06
2.68343e-10
5.00111e-06
3.72343e-10
5.00187e-06
1.56119e-09
5.003e-06
3.1358e-09
5.00459e-06
4.29499e-09
5.00669e-06
4.85127e-09
5.00919e-06
4.76879e-09
5.01209e-06
3.90967e-09
5.01452e-06
2.19715e-09
5.01441e-06
2.45768e-10
5.01261e-06
-2.6038e-09
5.00867e-06
-5.81214e-09
5.00472e-06
-8.05425e-09
5.00232e-06
-7.67275e-09
5.00154e-06
-5.64532e-09
5.00144e-06
-3.25944e-09
5.00103e-06
-2.61007e-09
5.00011e-06
-3.60712e-09
-4.54305e-09
5.00023e-06
2.40295e-10
5.00062e-06
8.09202e-11
5.00114e-06
6.77596e-11
5.00191e-06
9.33765e-10
5.00298e-06
2.09945e-09
5.00436e-06
2.87563e-09
5.00597e-06
3.15314e-09
5.00771e-06
2.93741e-09
5.00936e-06
2.24593e-09
5.01034e-06
1.26585e-09
5.01074e-06
-2.68664e-11
5.00974e-06
-1.39452e-09
5.00758e-06
-3.36078e-09
5.00498e-06
-5.12464e-09
5.00297e-06
-5.41219e-09
5.00177e-06
-4.37112e-09
5.00105e-06
-2.63501e-09
5.00038e-06
-2.11783e-09
4.99946e-06
-2.81535e-09
-3.52187e-09
5.00025e-06
1.34243e-10
5.00062e-06
-9.45194e-12
5.00107e-06
-5.57758e-11
5.00182e-06
4.75986e-10
5.00286e-06
1.24359e-09
5.00408e-06
1.72908e-09
5.00533e-06
1.85977e-09
5.00655e-06
1.65143e-09
5.00762e-06
1.15989e-09
5.00843e-06
5.71422e-10
5.00847e-06
7.06573e-11
5.00806e-06
-7.50398e-10
5.00688e-06
-1.90744e-09
5.00512e-06
-3.10136e-09
5.00328e-06
-3.40175e-09
5.00176e-06
-2.8529e-09
5.0007e-06
-1.7447e-09
4.99984e-06
-1.48793e-09
4.9988e-06
-1.94773e-09
-2.50767e-09
5.00018e-06
8.22195e-11
5.00051e-06
-2.92944e-11
5.00099e-06
-8.37396e-11
5.0017e-06
2.08678e-10
5.00266e-06
6.07878e-10
5.00372e-06
8.44669e-10
5.00473e-06
8.89984e-10
5.00559e-06
7.6506e-10
5.00628e-06
5.12077e-10
5.00681e-06
2.18401e-10
5.00717e-06
-4.86151e-11
5.00698e-06
-3.18577e-10
5.00614e-06
-8.33487e-10
5.00466e-06
-1.41752e-09
5.00293e-06
-1.59248e-09
5.00139e-06
-1.3982e-09
5.00029e-06
-8.84948e-10
4.99934e-06
-8.06422e-10
4.99821e-06
-1.01151e-09
-1.53543e-09
5.00024e-06
5.00057e-06
5.00098e-06
5.00167e-06
5.00266e-06
5.00372e-06
5.00466e-06
5.0054e-06
5.00596e-06
5.00635e-06
5.00656e-06
5.0065e-06
5.00589e-06
5.00464e-06
5.00309e-06
5.00156e-06
5.00038e-06
4.99925e-06
4.99802e-06
)
;

boundaryField
{
    sides
    {
        type            calculated;
        value           uniform 0;
    }
    inlet
    {
        type            calculated;
        value           nonuniform List<scalar> 
20
(
-5e-06
-5e-06
-5e-06
-5e-06
-5e-06
-5e-06
-5e-06
-5e-06
-5e-06
-5e-06
-5e-06
-5e-06
-5e-06
-5e-06
-5e-06
-5e-06
-5e-06
-5e-06
-5e-06
-5e-06
)
;
    }
    outlet
    {
        type            calculated;
        value           nonuniform List<scalar> 
20
(
5.003e-06
5.00234e-06
5.00276e-06
5.00231e-06
5.00276e-06
5.00287e-06
5.00353e-06
5.00481e-06
5.00394e-06
4.99555e-06
4.99517e-06
5.00309e-06
5.00328e-06
5.0013e-06
5.00013e-06
4.99922e-06
4.99839e-06
4.99773e-06
4.99717e-06
4.99641e-06
)
;
    }
    frontAndBack
    {
        type            empty;
        value           nonuniform List<scalar> 0();
    }
}


// ************************************************************************* //
