/*--------------------------------*- C++ -*----------------------------------*\
  =========                 |
  \\      /  F ield         | OpenFOAM: The Open Source CFD Toolbox
   \\    /   O peration     | Website:  https://openfoam.org
    \\  /    A nd           | Version:  9
     \\/     M anipulation  |
\*---------------------------------------------------------------------------*/
FoamFile
{
    format      ascii;
    class       volVectorField;
    location    "20";
    object      U;
}
// * * * * * * * * * * * * * * * * * * * * * * * * * * * * * * * * * * * * * //

dimensions      [0 1 -1 0 0 0 0];

internalField   nonuniform List<vector> 
400
(
(0.0999905 -1.30469e-06 0)
(0.100003 -2.60587e-06 0)
(0.100011 -4.02114e-06 0)
(0.100028 -9.57273e-06 0)
(0.100054 -1.65919e-05 0)
(0.100077 -2.15535e-05 0)
(0.100098 -2.37918e-05 0)
(0.100119 -2.37278e-05 0)
(0.100135 -2.15464e-05 0)
(0.100146 -1.91663e-05 0)
(0.100154 -1.73777e-05 0)
(0.100161 -1.54581e-05 0)
(0.100161 -1.24479e-05 0)
(0.100147 -9.71601e-06 0)
(0.10012 -8.77833e-06 0)
(0.100091 -1.28664e-05 0)
(0.100067 -1.58554e-05 0)
(0.100061 -2.06998e-05 0)
(0.100056 -1.75948e-05 0)
(0.100058 -2.52961e-05 0)
(0.0999914 -4.15855e-07 0)
(0.100004 1.77822e-06 0)
(0.100013 3.03414e-06 0)
(0.10003 -4.91206e-06 0)
(0.100056 -1.74539e-05 0)
(0.10008 -2.5725e-05 0)
(0.100104 -2.71097e-05 0)
(0.100128 -2.23655e-05 0)
(0.100148 -1.26234e-05 0)
(0.100162 -2.11828e-06 0)
(0.100173 6.45899e-06 0)
(0.100178 1.55625e-05 0)
(0.100173 3.12766e-05 0)
(0.100156 4.76269e-05 0)
(0.100128 5.45728e-05 0)
(0.100098 4.48822e-05 0)
(0.100076 2.67276e-05 0)
(0.100064 1.04984e-05 0)
(0.10006 1.65575e-05 0)
(0.10005 1.12517e-05 0)
(0.0999914 -2.97175e-06 0)
(0.100003 -2.86729e-06 0)
(0.100012 -4.55139e-06 0)
(0.10003 -2.05439e-05 0)
(0.100055 -4.35456e-05 0)
(0.100079 -5.99981e-05 0)
(0.100106 -6.55755e-05 0)
(0.100135 -6.09577e-05 0)
(0.100162 -4.79217e-05 0)
(0.100182 -3.16593e-05 0)
(0.100195 -1.5905e-05 0)
(0.100202 1.79219e-06 0)
(0.100194 2.85812e-05 0)
(0.100168 5.25265e-05 0)
(0.100129 5.70097e-05 0)
(0.100089 3.67231e-05 0)
(0.10006 8.33145e-06 0)
(0.100054 -1.18853e-05 0)
(0.100052 -2.41217e-06 0)
(0.100055 -5.51317e-06 0)
(0.0999913 -5.72976e-06 0)
(0.100002 -6.58807e-06 0)
(0.10001 -9.65105e-06 0)
(0.100028 -3.27119e-05 0)
(0.100054 -6.45244e-05 0)
(0.10008 -8.74321e-05 0)
(0.100112 -9.58142e-05 0)
(0.100151 -8.99701e-05 0)
(0.10019 -7.02476e-05 0)
(0.100223 -4.2131e-05 0)
(0.100246 -8.43042e-06 0)
(0.100249 3.20826e-05 0)
(0.100228 8.01842e-05 0)
(0.100184 0.000115962 0)
(0.100134 0.000116017 0)
(0.100094 7.65757e-05 0)
(0.100072 2.6216e-05 0)
(0.100062 -5.126e-06 0)
(0.100062 7.48753e-06 0)
(0.100053 7.73215e-06 0)
(0.0999906 -9.05613e-06 0)
(0.0999988 -1.27502e-05 0)
(0.100007 -1.94172e-05 0)
(0.100025 -4.94018e-05 0)
(0.10005 -9.04052e-05 0)
(0.100078 -0.00012295 0)
(0.100117 -0.000138949 0)
(0.10017 -0.000136273 0)
(0.100227 -0.000112932 0)
(0.100282 -7.3434e-05 0)
(0.100321 -2.34021e-05 0)
(0.100326 4.00033e-05 0)
(0.100285 0.00010971 0)
(0.100207 0.000155571 0)
(0.10012 0.000151948 0)
(0.100057 0.00010179 0)
(0.100036 4.20806e-05 0)
(0.100047 6.64668e-06 0)
(0.100062 2.27612e-05 0)
(0.100064 2.61225e-05 0)
(0.0999893 -1.19767e-05 0)
(0.0999944 -1.87067e-05 0)
(0.0999999 -2.99295e-05 0)
(0.100016 -6.69638e-05 0)
(0.100038 -0.000118207 0)
(0.100068 -0.000163727 0)
(0.100118 -0.000196523 0)
(0.100191 -0.000208515 0)
(0.100276 -0.000186312 0)
(0.100358 -0.000114744 0)
(0.10042 1.90422e-06 0)
(0.100426 0.000135848 0)
(0.100357 0.000231101 0)
(0.100234 0.000237773 0)
(0.100118 0.000160398 0)
(0.100052 5.80349e-05 0)
(0.100046 -9.60778e-06 0)
(0.100059 -2.78062e-05 0)
(0.100081 4.58211e-06 0)
(0.100071 1.39019e-05 0)
(0.0999877 -1.31493e-05 0)
(0.0999885 -2.33025e-05 0)
(0.0999895 -3.83966e-05 0)
(0.100001 -8.27729e-05 0)
(0.100016 -0.000142641 0)
(0.100041 -0.000206912 0)
(0.100096 -0.000260059 0)
(0.100197 -0.000313039 0)
(0.100348 -0.000321036 0)
(0.10052 -0.000284374 0)
(0.100637 -7.20358e-05 0)
(0.100604 0.00024197 0)
(0.100405 0.000473645 0)
(0.100146 0.00048141 0)
(0.0999819 0.000321277 0)
(0.0999574 0.000135333 0)
(0.100024 3.15697e-05 0)
(0.100078 1.31075e-05 0)
(0.10011 5.41486e-05 0)
(0.100081 6.21742e-05 0)
(0.0999857 -1.26716e-05 0)
(0.0999813 -2.261e-05 0)
(0.0999735 -4.24401e-05 0)
(0.0999758 -8.73014e-05 0)
(0.099976 -0.000162905 0)
(0.0999938 -0.000246622 0)
(0.100037 -0.000350676 0)
(0.100152 -0.000416912 0)
(0.100331 -0.000435712 0)
(0.100662 -0.000252608 0)
(0.101017 7.30796e-05 0)
(0.101029 0.000416946 0)
(0.100626 0.000466564 0)
(0.100102 0.000285035 0)
(0.0998203 8.84405e-05 0)
(0.0998369 -1.91054e-05 0)
(0.100002 -3.63146e-05 0)
(0.100109 -1.48148e-05 0)
(0.100147 2.01821e-05 0)
(0.100097 1.78227e-05 0)
(0.0999845 -7.87995e-06 0)
(0.0999729 -1.7549e-05 0)
(0.0999543 -3.05299e-05 0)
(0.0999364 -7.03814e-05 0)
(0.0999084 -0.000139844 0)
(0.0998932 -0.000258635 0)
(0.0999461 -0.000477502 0)
(0.100136 -0.000810726 0)
(0.100532 -0.00132834 0)
(0.101064 -0.00149087 0)
(0.101333 0.000383663 0)
(0.101014 0.00186766 0)
(0.100265 0.0015747 0)
(0.0997517 0.000579311 0)
(0.0996837 -2.2915e-05 0)
(0.0998621 -0.000122745 0)
(0.100058 -1.95892e-05 0)
(0.100126 4.93765e-05 0)
(0.100119 6.13719e-05 0)
(0.100063 2.90677e-05 0)
(0.0999652 -3.45919e-06 0)
(0.0999975 -6.8495e-06 0)
(0.0998984 -1.43059e-05 0)
(0.0999699 -2.68582e-05 0)
(0.0997234 -6.52504e-05 0)
(0.0998346 -0.000120912 0)
(0.0992641 -0.000294727 0)
(0.0996658 -0.000562469 0)
(0.0991139 -0.00115523 0)
(0.102006 -0.00141501 0)
(0.106292 3.22337e-05 0)
(0.101286 0.00146869 0)
(0.0990326 0.00130699 0)
(0.0982541 0.000515316 0)
(0.0988959 2.2473e-05 0)
(0.0996485 -8.00521e-05 0)
(0.0999692 -1.85525e-05 0)
(0.0999692 1.64708e-05 0)
(0.0998724 1.33697e-05 0)
(0.0998553 -1.53662e-05 0)
(0.0999659 1.71025e-06 0)
(0.0999983 1.26339e-06 0)
(0.0998994 4.83621e-06 0)
(0.0999707 1.31161e-05 0)
(0.0997239 4.78228e-05 0)
(0.0998347 0.000101793 0)
(0.099264 0.000276048 0)
(0.0996654 0.000545066 0)
(0.0991135 0.00113908 0)
(0.102004 0.00139917 0)
(0.106288 -5.28553e-05 0)
(0.101284 -0.00149121 0)
(0.0990319 -0.00133544 0)
(0.0982538 -0.000553818 0)
(0.0988943 -7.03416e-05 0)
(0.0996454 1.83461e-05 0)
(0.0999658 -5.06449e-05 0)
(0.0999653 -0.000104101 0)
(0.0998709 -0.000107253 0)
(0.0998503 -9.11023e-05 0)
(0.0999865 6.33535e-06 0)
(0.0999756 1.24855e-05 0)
(0.0999573 2.17205e-05 0)
(0.0999397 5.72133e-05 0)
(0.0999115 0.000123015 0)
(0.0998961 0.000239783 0)
(0.0999481 0.000458665 0)
(0.100138 0.000792512 0)
(0.100533 0.00131118 0)
(0.101064 0.00147223 0)
(0.101334 -0.000401256 0)
(0.101014 -0.00189135 0)
(0.10026 -0.00160196 0)
(0.0997444 -0.00061606 0)
(0.0996793 -2.05184e-05 0)
(0.09986 6.51866e-05 0)
(0.10005 -4.671e-05 0)
(0.100111 -0.000131457 0)
(0.100099 -0.000147234 0)
(0.100045 -0.000130019 0)
(0.0999889 1.15746e-05 0)
(0.0999855 1.83375e-05 0)
(0.0999783 3.43212e-05 0)
(0.0999803 7.46537e-05 0)
(0.0999797 0.000146044 0)
(0.0999962 0.000227169 0)
(0.100038 0.000330504 0)
(0.100151 0.000397766 0)
(0.100329 0.000417939 0)
(0.100659 0.000235081 0)
(0.101012 -9.02553e-05 0)
(0.101022 -0.000439409 0)
(0.100621 -0.000492097 0)
(0.100097 -0.00031801 0)
(0.0998133 -0.000128406 0)
(0.0998249 -4.00644e-05 0)
(0.0999857 -3.42147e-05 0)
(0.100089 -7.0315e-05 0)
(0.100122 -0.00010602 0)
(0.100066 -0.000114646 0)
(0.0999922 1.2346e-05 0)
(0.0999942 1.96e-05 0)
(0.0999958 3.07918e-05 0)
(0.100007 7.0958e-05 0)
(0.100021 0.000127383 0)
(0.100045 0.000189793 0)
(0.100099 0.000243365 0)
(0.1002 0.000297639 0)
(0.100349 0.000307241 0)
(0.10052 0.000271076 0)
(0.100636 5.68262e-05 0)
(0.1006 -0.000258459 0)
(0.100398 -0.000494335 0)
(0.100136 -0.000512123 0)
(0.0999675 -0.000362493 0)
(0.0999383 -0.00019302 0)
(0.100003 -9.90929e-05 0)
(0.100049 -9.64422e-05 0)
(0.100078 -0.000139391 0)
(0.100037 -0.000160301 0)
(0.0999952 1.14694e-05 0)
(0.100002 1.58012e-05 0)
(0.100008 2.34897e-05 0)
(0.100024 5.68595e-05 0)
(0.100045 0.000105098 0)
(0.100073 0.00014886 0)
(0.100122 0.000181667 0)
(0.100192 0.000194244 0)
(0.100275 0.0001723 0)
(0.100355 9.99972e-05 0)
(0.100414 -1.72837e-05 0)
(0.100419 -0.000154793 0)
(0.100346 -0.000254559 0)
(0.100219 -0.000268174 0)
(0.100099 -0.000195446 0)
(0.100027 -0.000102521 0)
(0.100016 -3.84141e-05 0)
(0.100023 -3.3296e-05 0)
(0.100041 -6.91012e-05 0)
(0.100016 -9.40254e-05 0)
(0.0999978 9.04119e-06 0)
(0.100008 1.07328e-05 0)
(0.100017 1.42162e-05 0)
(0.100034 4.10594e-05 0)
(0.100057 7.95764e-05 0)
(0.100084 0.000110635 0)
(0.100122 0.000126321 0)
(0.100172 0.000124424 0)
(0.100227 0.000101726 0)
(0.100282 6.23744e-05 0)
(0.10032 1.0996e-05 0)
(0.100319 -5.59775e-05 0)
(0.100276 -0.000128824 0)
(0.100195 -0.000180297 0)
(0.100106 -0.000181666 0)
(0.100037 -0.000145299 0)
(0.10001 -9.52791e-05 0)
(0.100004 -7.92171e-05 0)
(0.10001 -0.000100759 0)
(0.0999945 -0.000120109 0)
(0.0999999 6.18339e-06 0)
(0.100012 5.82411e-06 0)
(0.100022 6.37854e-06 0)
(0.100039 2.64175e-05 0)
(0.100063 5.58664e-05 0)
(0.100087 7.78052e-05 0)
(0.100118 8.66448e-05 0)
(0.100154 8.20642e-05 0)
(0.10019 6.39645e-05 0)
(0.100219 3.72024e-05 0)
(0.100238 3.47841e-06 0)
(0.10024 -3.77117e-05 0)
(0.100217 -8.77789e-05 0)
(0.100167 -0.000129851 0)
(0.100109 -0.000135022 0)
(0.100056 -0.00010625 0)
(0.100024 -6.00079e-05 0)
(0.100004 -3.99169e-05 0)
(0.0999998 -5.23435e-05 0)
(0.0999755 -6.70615e-05 0)
(0.100002 3.5726e-06 0)
(0.100015 1.34376e-06 0)
(0.100025 -7.01084e-07 0)
(0.100042 1.27407e-05 0)
(0.100065 3.37082e-05 0)
(0.100089 4.79555e-05 0)
(0.100113 5.19045e-05 0)
(0.100141 4.55753e-05 0)
(0.100165 3.0626e-05 0)
(0.100184 1.15067e-05 0)
(0.100196 -5.84372e-06 0)
(0.100196 -2.6571e-05 0)
(0.100183 -5.54036e-05 0)
(0.100152 -8.4686e-05 0)
(0.100111 -9.3286e-05 0)
(0.100063 -8.1718e-05 0)
(0.100028 -5.61378e-05 0)
(0.100001 -4.74027e-05 0)
(0.0999903 -5.82777e-05 0)
(0.0999597 -7.42891e-05 0)
(0.100002 2.34917e-06 0)
(0.100016 1.97643e-06 0)
(0.100026 1.46649e-06 0)
(0.100042 1.07369e-05 0)
(0.100066 2.47828e-05 0)
(0.100087 3.47731e-05 0)
(0.100108 3.83021e-05 0)
(0.100128 3.591e-05 0)
(0.100145 2.86283e-05 0)
(0.100156 1.98984e-05 0)
(0.100164 1.18503e-05 0)
(0.100167 2.79155e-06 0)
(0.100161 -1.17023e-05 0)
(0.100136 -2.89559e-05 0)
(0.1001 -3.57684e-05 0)
(0.100056 -3.05493e-05 0)
(0.100023 -1.4447e-05 0)
(0.0999945 -8.20918e-06 0)
(0.0999817 -1.31629e-05 0)
(0.099947 -2.38915e-05 0)
(0.100004 -6.95852e-07 0)
(0.100019 -2.9846e-06 0)
(0.100029 -5.32402e-06 0)
(0.100045 -4.80128e-06 0)
(0.100068 -2.88086e-06 0)
(0.10009 -1.72201e-06 0)
(0.10011 -2.32409e-06 0)
(0.100128 -4.67456e-06 0)
(0.100142 -8.00749e-06 0)
(0.10015 -1.18366e-05 0)
(0.100155 -1.45914e-05 0)
(0.100157 -1.86423e-05 0)
(0.100152 -2.57452e-05 0)
(0.100131 -3.40953e-05 0)
(0.100101 -3.73835e-05 0)
(0.100059 -3.69126e-05 0)
(0.100028 -3.11724e-05 0)
(0.099995 -3.12343e-05 0)
(0.0999835 -3.26753e-05 0)
(0.0999361 -4.19194e-05 0)
)
;

boundaryField
{
    sides
    {
        type            calculated;
        value           nonuniform List<vector> 
40
(
(0.100004 0 0)
(0.100019 0 0)
(0.100029 0 0)
(0.100045 0 0)
(0.100068 0 0)
(0.10009 0 0)
(0.10011 0 0)
(0.100128 0 0)
(0.100142 0 0)
(0.10015 0 0)
(0.100155 0 0)
(0.100157 0 0)
(0.100152 0 0)
(0.100131 0 0)
(0.100101 0 0)
(0.100059 0 0)
(0.100028 0 0)
(0.099995 0 0)
(0.0999835 0 0)
(0.0999361 0 0)
(0.0999905 0 0)
(0.100003 0 0)
(0.100011 0 0)
(0.100028 0 0)
(0.100054 0 0)
(0.100077 0 0)
(0.100098 0 0)
(0.100119 0 0)
(0.100135 0 0)
(0.100146 0 0)
(0.100154 0 0)
(0.100161 0 0)
(0.100161 0 0)
(0.100147 0 0)
(0.10012 0 0)
(0.100091 0 0)
(0.100067 0 0)
(0.100061 0 0)
(0.100056 0 0)
(0.100058 0 0)
)
;
    }
    inlet
    {
        type            calculated;
        value           nonuniform List<vector> 
20
(
(0.0999851 0 0)
(0.0999863 0 0)
(0.0999867 0 0)
(0.099987 0 0)
(0.0999867 0 0)
(0.0999859 0 0)
(0.0999847 0 0)
(0.0999834 0 0)
(0.0999824 0 0)
(0.0999824 0 0)
(0.0999831 0 0)
(0.0999846 0 0)
(0.0999868 0 0)
(0.0999894 0 0)
(0.0999919 0 0)
(0.0999942 0 0)
(0.0999959 0 0)
(0.0999971 0 0)
(0.0999978 0 0)
(0.099999 0 0)
)
;
    }
    outlet
    {
        type            calculated;
        value           nonuniform List<vector> 
20
(
(0.100059 -2.52964e-05 0)
(0.10005 1.12517e-05 0)
(0.100056 -5.51319e-06 0)
(0.100053 7.7321e-06 0)
(0.100063 2.61223e-05 0)
(0.100069 1.39017e-05 0)
(0.100078 6.21727e-05 0)
(0.100094 1.78222e-05 0)
(0.10006 2.9067e-05 0)
(0.0998556 -1.53662e-05 0)
(0.0998504 -9.11023e-05 0)
(0.100042 -0.000130016 0)
(0.100062 -0.000114642 0)
(0.100034 -0.000160296 0)
(0.100014 -9.40233e-05 0)
(0.0999931 -0.000120107 0)
(0.0999745 -6.70608e-05 0)
(0.099959 -7.42886e-05 0)
(0.0999466 -2.38914e-05 0)
(0.0999354 -4.19191e-05 0)
)
;
    }
    frontAndBack
    {
        type            empty;
    }
}


// ************************************************************************* //
