/*--------------------------------*- C++ -*----------------------------------*\
  =========                 |
  \\      /  F ield         | OpenFOAM: The Open Source CFD Toolbox
   \\    /   O peration     | Website:  https://openfoam.org
    \\  /    A nd           | Version:  9
     \\/     M anipulation  |
\*---------------------------------------------------------------------------*/
FoamFile
{
    format      ascii;
    class       volScalarField;
    location    "0.4";
    object      delta;
}
// * * * * * * * * * * * * * * * * * * * * * * * * * * * * * * * * * * * * * //

dimensions      [0 0 0 0 0 0 0];

internalField   nonuniform List<scalar> 
500
(
6.76183e-59
5.75032e-56
2.5468e-53
6.88418e-51
1.24898e-48
1.62079e-46
1.57475e-44
1.18573e-42
7.10858e-41
3.4678e-39
1.40149e-37
4.7636e-36
1.37934e-34
3.44051e-33
7.46469e-32
1.4209e-30
2.39112e-29
3.58185e-28
4.80596e-27
5.8086e-26
6.35668e-25
6.32879e-24
5.75774e-23
4.80612e-22
3.69485e-21
2.62543e-20
1.73001e-19
1.06047e-18
6.06498e-18
3.24525e-17
1.62891e-16
7.68887e-16
3.42114e-15
1.43814e-14
5.72386e-14
2.16133e-13
7.75793e-13
2.65202e-12
8.64946e-12
2.69604e-11
8.04455e-11
2.30143e-10
6.32221e-10
1.67011e-09
4.24844e-09
1.04209e-08
2.46789e-08
5.64977e-08
1.25181e-07
2.68745e-07
5.59655e-07
1.13171e-06
2.2245e-06
4.25439e-06
7.92434e-06
1.43882e-05
2.54889e-05
4.40927e-05
7.45437e-05
0.000123262
0.000199503
0.000316299
0.000491567
0.000749385
0.00112138
0.00164819
0.0023809
0.00338232
0.00472805
0.00650713
0.00882216
0.0117888
0.0155345
0.0201965
0.0259187
0.0328485
0.0411322
0.05091
0.0623115
0.07545
0.0904177
0.107281
0.126077
0.14681
0.169451
0.193935
0.220161
0.247998
0.277283
0.307828
0.33942
0.371834
0.404831
0.438166
0.471596
0.504883
0.537798
0.570128
0.601677
0.632269
0.661754
0.690002
0.716911
0.742401
0.766416
0.788923
0.80991
0.829383
0.847365
0.863892
0.879015
0.892791
0.905288
0.916578
0.926737
0.935843
0.943973
0.951207
0.957621
0.963287
0.968277
0.972656
0.976488
0.979831
0.982738
0.98526
0.987441
0.989321
0.990939
0.992328
0.993516
0.994531
0.995396
0.996131
0.996754
0.997282
0.997727
0.998103
0.998419
0.998684
0.998907
0.999093
0.999249
0.999378
0.999486
0.999576
0.999651
0.999712
0.999763
0.999806
0.999841
0.999869
0.999893
0.999913
0.999929
0.999942
0.999952
0.999961
0.999968
0.999974
0.999979
0.999983
0.999986
0.999989
0.999991
0.999993
0.999994
0.999995
0.999996
0.999997
0.999997
0.999998
0.999998
0.999999
0.999999
0.999999
0.999999
0.999999
1
1
1
1
1
1
1
1
1
1
1
1
1
1
1
1
1
1
1
1
1
1
1
1
1
1
1
1
1
1
1
1
1
1
1
1
1
1
1
1
1
1
1
1
1
1
1
1
1
1
1
1
1
1
1
1
1
1
1
1
1
1.00001
1.00001
1.00001
1.00001
1.00001
1.00001
1.00001
1.00002
1.00002
1.00002
1.00003
1.00003
1.00004
1.00004
1.00005
1.00006
1.00007
1.00008
1.00009
1.0001
1.00012
1.00014
1.00016
1.00018
1.00021
1.00024
1.00027
1.00031
1.00036
1.00041
1.00047
1.00053
1.0006
1.00069
1.00078
1.00088
1.001
1.00113
1.00128
1.00144
1.00163
1.00183
1.00206
1.00232
1.0026
1.00292
1.00327
1.00366
1.00409
1.00457
1.0051
1.00569
1.00633
1.00705
1.00783
1.00869
1.00964
1.01069
1.01183
1.01309
1.01446
1.01597
1.01761
1.01941
1.02137
1.02351
1.02584
1.02837
1.03113
1.03412
1.03737
1.0409
1.04472
1.04886
1.05334
1.05818
1.0634
1.06904
1.07512
1.08168
1.08873
1.09631
1.10447
1.11322
1.12262
1.1327
1.14349
1.15505
1.16741
1.18063
1.19475
1.20982
1.22589
1.24303
1.26127
1.28069
1.30134
1.32329
1.3466
1.37134
1.39757
1.42537
1.45481
1.48597
1.51893
1.55376
1.59055
1.62938
1.67033
1.7135
1.75898
1.80686
1.85723
1.91019
1.96583
2.02426
2.08558
2.14989
2.21729
2.28789
2.3618
2.43912
2.51997
2.60445
2.69269
2.78477
2.88083
2.98098
3.08532
3.19398
3.30706
3.42468
3.54696
3.674
3.80593
3.94284
4.08486
4.2321
4.38466
4.54265
4.70618
4.87535
5.05027
5.23104
5.41775
5.6105
5.80939
6.0145
6.22593
6.44376
6.66807
6.89894
7.13645
7.38066
7.63165
7.88947
8.15418
8.42585
8.70451
8.99022
9.28302
9.58294
9.89001
10.2043
10.5257
10.8544
11.1902
11.5334
11.8837
12.2413
12.606
12.978
13.3571
13.7433
14.1367
14.5371
14.9445
15.3589
15.7801
16.2082
16.6431
17.0846
17.5328
17.9874
18.4485
18.9158
19.3894
19.8691
20.3548
20.8463
21.3436
21.8464
22.3547
22.8684
23.3872
23.9111
24.4398
24.9732
25.5112
26.0536
26.6001
27.1507
27.7052
28.2633
28.8249
29.3898
29.9578
30.5287
31.1023
31.6785
32.257
32.8376
33.4201
34.0043
34.5901
35.1771
35.7652
36.3543
36.944
37.5341
38.1246
38.7151
39.3054
39.8954
40.4848
41.0735
41.6612
42.2477
42.8328
43.4164
43.9982
44.5781
45.1558
45.7312
46.304
46.8741
47.4413
48.0055
48.5664
49.1238
49.6777
50.2279
50.7741
51.3162
51.8541
52.3876
52.9166
53.441
53.9605
54.4751
54.9846
55.4889
55.9879
56.4814
56.9694
57.4518
57.9284
58.3991
58.8639
59.3226
59.7752
)
;

boundaryField
{
    lowValue
    {
        type            calculated;
        value           uniform 1.18972e-61;
    }
    highValue
    {
        type            calculated;
        value           uniform 60;
    }
    defaultFaces
    {
        type            empty;
    }
}


// ************************************************************************* //
