/*--------------------------------*- C++ -*----------------------------------*\
  =========                 |
  \\      /  F ield         | OpenFOAM: The Open Source CFD Toolbox
   \\    /   O peration     | Website:  https://openfoam.org
    \\  /    A nd           | Version:  9
     \\/     M anipulation  |
\*---------------------------------------------------------------------------*/
FoamFile
{
    format      ascii;
    class       volScalarField;
    location    "0.4";
    object      V;
}
// * * * * * * * * * * * * * * * * * * * * * * * * * * * * * * * * * * * * * //

dimensions      [0 1 0 0 0 0 0];

internalField   nonuniform List<scalar> 
500
(
3.16637e-62
7.16289e-59
6.06636e-56
2.67446e-53
7.1959e-51
1.29948e-48
1.67846e-46
1.62315e-44
1.21646e-42
7.25866e-41
3.5245e-39
1.4178e-37
4.79688e-36
1.38267e-34
3.4334e-33
7.41662e-32
1.40572e-30
2.35577e-29
3.5148e-28
4.69797e-27
5.6575e-26
6.17023e-25
6.12375e-24
5.55511e-23
4.62497e-22
3.54753e-21
2.51591e-20
1.65529e-19
1.01351e-18
5.79229e-18
3.09854e-17
1.55561e-16
7.34817e-16
3.27362e-15
1.37859e-14
5.49978e-14
2.08283e-13
7.50269e-13
2.57546e-12
8.44019e-12
2.64519e-11
7.9412e-11
2.28734e-10
6.33064e-10
1.68606e-09
4.32726e-09
1.07165e-08
2.56419e-08
5.93535e-08
1.33064e-07
2.89262e-07
6.10403e-07
1.2517e-06
2.4968e-06
4.84952e-06
9.18028e-06
1.69532e-05
3.05684e-05
5.38622e-05
9.28205e-05
0.000156565
0.000258685
0.000418977
0.000665675
0.00103821
0.00159054
0.00239511
0.00354724
0.00517016
0.0074202
0.0104923
0.0146252
0.0201067
0.0272775
0.036535
0.0483349
0.0631917
0.0816774
0.104418
0.132087
0.165399
0.205101
0.25196
0.30675
0.370239
0.443176
0.526277
0.620211
0.725587
0.842943
0.972736
1.11534
1.27103
1.43998
1.62228
1.81792
2.02678
2.24868
2.48334
2.73041
2.98948
3.26006
3.54166
3.83372
4.13565
4.44687
4.76676
5.09473
5.43017
5.7725
6.12114
6.47554
6.83519
7.19958
7.56826
7.94078
8.31674
8.69577
9.07753
9.46169
9.84799
10.2362
10.626
11.0172
11.4097
11.8033
12.1978
12.5931
12.9892
13.3858
13.783
14.1806
14.5785
14.9768
15.3754
15.7742
16.1732
16.5724
16.9717
17.3711
17.7706
18.1702
18.5698
18.9696
19.3693
19.7691
20.169
20.5689
20.9687
21.3687
21.7686
22.1685
22.5685
22.9684
23.3684
23.7684
24.1684
24.5683
24.9683
25.3683
25.7683
26.1683
26.5683
26.9683
27.3683
27.7683
28.1683
28.5683
28.9683
29.3683
29.7683
30.1683
30.5683
30.9683
31.3683
31.7683
32.1683
32.5683
32.9683
33.3683
33.7683
34.1683
34.5683
34.9683
35.3683
35.7683
36.1683
36.5683
36.9683
37.3683
37.7683
38.1683
38.5683
38.9683
39.3683
39.7683
40.1683
40.5683
40.9683
41.3683
41.7683
42.1683
42.5683
42.9683
43.3683
43.7683
44.1683
44.5683
44.9683
45.3683
45.7683
46.1683
46.5683
46.9683
47.3683
47.7683
48.1683
48.5683
48.9683
49.3683
49.7683
50.1683
50.5683
50.9683
51.3683
51.7683
52.1683
52.5683
52.9683
53.3683
53.7683
54.1683
54.5683
54.9683
55.3683
55.7683
56.1683
56.5683
56.9683
57.3683
57.7683
58.1683
58.5683
58.9683
59.3683
59.7683
60.1683
60.5683
60.9683
61.3683
61.7683
62.1684
62.5684
62.9684
63.3684
63.7684
64.1685
64.5685
64.9686
65.3686
65.7687
66.1687
66.5688
66.9689
67.369
67.7691
68.1692
68.5693
68.9695
69.3697
69.7699
70.1701
70.5704
70.9707
71.3711
71.7715
72.1719
72.5724
72.973
73.3736
73.7744
74.1752
74.5761
74.9771
75.3783
75.7796
76.181
76.5827
76.9845
77.3865
77.7887
78.1913
78.594
78.9971
79.4006
79.8044
80.2086
80.6133
81.0185
81.4242
81.8306
82.2375
82.6452
83.0537
83.463
83.8732
84.2845
84.6968
85.1103
85.5251
85.9413
86.3591
86.7784
87.1995
87.6226
88.0477
88.4751
88.9048
89.3372
89.7723
90.2105
90.6519
91.0967
91.5453
91.9978
92.4547
92.9161
93.3824
93.854
94.3311
94.8143
95.3037
95.8
96.3035
96.8147
97.3341
97.8622
98.3995
98.9466
99.5041
100.073
100.653
101.245
101.851
102.47
103.104
103.754
104.419
105.102
105.803
106.522
107.262
108.022
108.805
109.611
110.441
111.297
112.179
113.089
114.029
114.999
116.001
117.037
118.108
119.215
120.361
121.546
122.772
124.041
125.356
126.717
128.126
129.586
131.098
132.664
134.287
135.968
137.71
139.514
141.383
143.319
145.325
147.402
149.553
151.781
154.088
156.476
158.948
161.506
164.153
166.892
169.725
172.655
175.685
178.817
182.054
185.399
188.855
192.423
196.109
199.913
203.839
207.89
212.068
216.377
220.82
225.398
230.116
234.976
239.98
245.133
250.436
255.892
261.505
267.277
273.211
279.309
285.575
292.011
298.619
305.404
312.366
319.509
326.836
334.348
342.049
349.94
358.025
366.305
374.782
383.46
392.34
401.425
410.716
420.215
429.925
439.847
449.983
460.335
470.905
481.694
492.704
503.935
515.391
527.072
538.978
551.113
563.476
576.068
588.891
601.945
615.232
628.751
642.504
656.491
670.712
685.168
699.86
714.787
729.949
745.347
760.981
776.85
792.954
809.293
825.867
842.675
859.716
876.991
894.498
912.236
930.206
948.405
966.833
985.489
1004.37
1023.48
1042.81
1062.37
1082.14
1102.14
1122.36
1142.79
1163.44
1184.3
1205.37
1226.65
1248.14
1269.84
1291.74
1313.84
1336.14
1358.65
1381.34
1404.23
1427.31
1450.58
1474.03
1497.67
1521.49
)
;

boundaryField
{
    lowValue
    {
        type            fixedValue;
        value           uniform 0;
    }
    highValue
    {
        type            fixedGradient;
        gradient        uniform 60;
    }
    defaultFaces
    {
        type            empty;
    }
}


// ************************************************************************* //
