/*--------------------------------*- C++ -*----------------------------------*\
  =========                 |
  \\      /  F ield         | OpenFOAM: The Open Source CFD Toolbox
   \\    /   O peration     | Website:  https://openfoam.org
    \\  /    A nd           | Version:  9
     \\/     M anipulation  |
\*---------------------------------------------------------------------------*/
FoamFile
{
    format      ascii;
    class       volScalarField;
    location    "89";
    object      ddt0(h);
}
// * * * * * * * * * * * * * * * * * * * * * * * * * * * * * * * * * * * * * //

dimensions      [0 1 -1 0 0 0 0];

internalField   nonuniform List<scalar> 
400
(
-1.81471e-08
3.50186e-09
-7.95787e-10
-6.11086e-10
2.48729e-08
2.67817e-09
-3.9707e-09
-2.8493e-08
-6.94514e-09
-1.32823e-08
-6.62461e-09
-7.36058e-09
-2.10791e-09
1.9518e-08
8.04408e-09
-6.9383e-09
-2.26321e-08
-1.8131e-08
-2.74823e-10
3.11839e-09
-4.03836e-09
-3.32524e-09
-8.06177e-09
8.57953e-09
2.45382e-09
-1.69376e-09
-4.29926e-09
-5.10871e-09
-9.09967e-09
1.09452e-08
-3.18507e-09
6.86893e-09
8.45647e-09
1.1449e-08
1.27115e-08
-6.06421e-09
-1.01921e-08
-2.79098e-09
-1.64284e-09
-2.57776e-09
1.19636e-08
-8.78808e-09
-4.00572e-09
2.90325e-09
-2.62134e-08
1.92116e-09
5.82209e-09
1.81747e-08
3.04914e-09
1.00119e-08
2.58521e-08
-6.4275e-09
2.33501e-08
3.15031e-09
-7.75454e-09
-9.08001e-09
6.10613e-09
2.10988e-08
6.27525e-09
-3.29969e-09
1.84018e-08
-1.97364e-09
-3.11746e-10
-1.91e-08
-2.56106e-08
5.15066e-09
2.60404e-08
2.95442e-09
4.04938e-08
-1.22329e-08
2.27348e-08
3.45203e-08
-1.89618e-08
1.18186e-08
-1.32563e-08
-2.14166e-08
7.08295e-09
2.18701e-08
8.35884e-09
9.39975e-11
1.60144e-08
4.31795e-09
-1.72296e-09
-2.44912e-08
-1.73157e-08
2.2806e-08
-9.16835e-09
4.55851e-08
-2.76252e-08
1.16315e-07
-1.45801e-07
5.65319e-08
3.2234e-08
-3.65586e-08
-3.43747e-09
1.22365e-09
4.23042e-09
7.10021e-09
4.79345e-09
1.9666e-09
7.71422e-09
2.61778e-09
-1.0023e-09
-1.72004e-08
1.20724e-08
-4.03117e-09
2.84218e-10
-5.90242e-10
4.4156e-08
-1.58264e-08
4.47395e-08
-2.23886e-07
5.97187e-08
4.27121e-08
-9.45667e-09
6.58243e-09
5.75962e-09
-9.14408e-09
-8.30826e-09
-1.81655e-09
-1.62055e-09
-1.06801e-09
-5.97692e-11
8.17626e-09
9.35572e-09
-7.92858e-09
-2.75718e-08
3.24064e-09
1.2973e-07
-4.52589e-07
2.7789e-07
-6.23966e-08
-2.15182e-07
8.8639e-09
4.95309e-08
2.56726e-08
5.33214e-09
-1.29775e-08
-1.43348e-08
-5.11605e-09
-7.09593e-09
-3.85016e-09
7.32171e-09
1.57467e-08
9.77871e-09
-3.09274e-08
-2.2133e-08
5.11408e-08
-1.27974e-07
1.02933e-07
3.63828e-06
2.53261e-07
-5.16185e-08
-6.14816e-08
2.83882e-08
3.7487e-08
1.39346e-08
-9.69651e-09
-1.54303e-08
-4.6765e-09
-8.03141e-09
-2.65483e-09
1.02787e-08
1.82637e-08
-1.35028e-08
-1.35121e-08
-1.60265e-08
-1.88669e-08
1.65128e-07
-1.11145e-07
-3.52768e-06
-3.01536e-07
2.34223e-08
5.48353e-08
1.07918e-08
1.93299e-08
-1.76955e-08
4.01199e-09
-6.18056e-09
-3.56288e-09
-5.60351e-09
-2.00352e-10
9.74204e-09
7.96996e-09
-1.78004e-08
-1.42217e-08
3.84022e-08
-2.01376e-09
-1.37666e-07
4.07248e-07
-3.89557e-07
1.20365e-07
1.75202e-07
-4.16838e-08
-4.29706e-08
-2.93125e-10
5.31072e-08
1.38556e-08
1.76069e-09
-3.4653e-09
-2.05463e-09
1.14729e-10
2.39505e-09
4.286e-09
-1.58725e-08
8.50335e-09
3.0697e-08
8.81707e-09
-1.69954e-07
1.21126e-07
-3.72457e-09
2.1764e-07
-1.41331e-08
-7.27856e-08
-4.99134e-08
-1.65001e-08
5.45701e-09
8.82916e-09
-2.00936e-09
-6.36908e-09
-4.02712e-09
-7.68258e-11
-5.50134e-09
7.14006e-09
1.57128e-09
4.15077e-10
3.59997e-08
-4.94343e-08
4.63407e-08
-3.63417e-07
-2.70215e-06
-1.66655e-07
-4.70859e-08
-7.14132e-09
-3.47313e-08
-1.81383e-08
-3.50527e-09
-7.10662e-09
-1.20258e-08
-6.17555e-09
-1.12694e-08
-9.4613e-10
-3.37758e-09
8.74301e-09
2.24058e-08
-1.28505e-08
-1.55892e-08
3.84151e-08
-6.18116e-08
2.4439e-07
2.51098e-06
9.54927e-08
-9.28739e-09
-2.44674e-08
1.69982e-08
2.06609e-08
-3.74096e-09
-1.8646e-08
-1.09902e-08
-1.24822e-09
-1.39606e-08
7.26567e-10
1.08719e-09
8.42486e-09
2.6182e-08
-1.02523e-08
-4.40271e-08
8.7125e-09
1.32572e-07
-2.02922e-07
2.90535e-07
-9.89728e-08
-5.82312e-08
4.97998e-08
5.36206e-08
2.42957e-08
-8.56712e-09
-1.81226e-08
1.18385e-09
7.25535e-09
-2.56521e-09
8.50184e-10
2.12712e-09
-6.12062e-09
2.11782e-08
1.10778e-09
-3.9588e-08
-2.63946e-08
3.83286e-08
9.30101e-08
3.5429e-08
1.08037e-08
7.7853e-08
5.81873e-08
2.73442e-08
8.90717e-10
-1.51695e-08
-1.30646e-08
5.95749e-09
8.51512e-09
1.84894e-08
-1.15643e-09
-1.17035e-08
-1.85505e-08
6.79104e-10
2.66175e-08
-1.24167e-08
-2.73899e-08
-1.34747e-08
2.97689e-08
-4.0429e-08
4.18385e-08
3.89068e-08
8.02633e-09
-1.74067e-08
-2.76688e-08
-1.8438e-08
-6.61626e-09
1.00595e-09
2.11259e-09
2.98887e-08
-2.76823e-10
-2.26103e-08
-2.85266e-08
-8.27232e-09
2.75461e-08
2.91083e-08
-4.02173e-09
-2.2242e-08
-1.5196e-08
-1.29749e-08
-3.21527e-09
-1.56911e-08
-3.50002e-08
-4.98e-08
-4.18184e-08
-9.02883e-09
5.93824e-09
-1.0399e-09
-3.02598e-09
1.89352e-08
2.15244e-09
-1.17628e-08
-2.32514e-08
-1.34596e-08
1.79363e-08
3.02346e-08
1.84323e-08
-3.17783e-09
-2.56574e-09
4.95552e-09
-6.57936e-09
-2.17866e-08
-3.25904e-08
-3.48023e-08
-2.24346e-08
1.50839e-09
1.26694e-08
6.66365e-09
9.03292e-10
-6.88727e-09
1.67722e-09
6.80973e-09
3.77769e-09
-4.24884e-09
3.45413e-10
3.94481e-10
1.9704e-11
-3.95324e-10
7.16348e-09
1.21794e-08
9.11948e-09
6.8092e-10
4.15641e-09
1.15829e-08
5.15343e-09
2.39843e-09
1.2764e-08
1.69033e-08
7.23944e-09
-3.26975e-08
-9.53678e-11
1.99861e-08
2.67729e-08
1.39427e-08
-1.09799e-08
-2.57021e-08
-2.99121e-08
-1.21978e-08
-1.94364e-09
4.52314e-09
9.72065e-09
1.27817e-08
3.11454e-08
4.06477e-08
1.94779e-08
-4.17869e-09
3.35787e-09
1.64297e-08
8.95174e-09
)
;

boundaryField
{
    sides
    {
        type            calculated;
        value           nonuniform List<scalar> 
40
(
-3.26975e-08
-9.53678e-11
1.99861e-08
2.67729e-08
1.39427e-08
-1.09799e-08
-2.57021e-08
-2.99121e-08
-1.21978e-08
-1.94364e-09
4.52314e-09
9.72065e-09
1.27817e-08
3.11454e-08
4.06477e-08
1.94779e-08
-4.17869e-09
3.35787e-09
1.64297e-08
8.95174e-09
-1.81471e-08
3.50186e-09
-7.95787e-10
-6.11086e-10
2.48729e-08
2.67817e-09
-3.9707e-09
-2.8493e-08
-6.94514e-09
-1.32823e-08
-6.62461e-09
-7.36058e-09
-2.10791e-09
1.9518e-08
8.04408e-09
-6.9383e-09
-2.26321e-08
-1.8131e-08
-2.74823e-10
3.11839e-09
)
;
    }
    inlet
    {
        type            calculated;
        value           nonuniform List<scalar> 
20
(
-1.81471e-08
-4.03836e-09
1.19636e-08
1.84018e-08
1.60144e-08
7.71422e-09
-1.62055e-09
-7.09593e-09
-8.03141e-09
-5.60351e-09
-2.05463e-09
-4.02712e-09
-1.12694e-08
-1.39606e-08
-2.56521e-09
1.84894e-08
2.98887e-08
1.89352e-08
-6.88727e-09
-3.26975e-08
)
;
    }
    outlet
    {
        type            calculated;
        value           uniform 0;
    }
    frontAndBack
    {
        type            empty;
    }
}


// ************************************************************************* //
