/*--------------------------------*- C++ -*----------------------------------*\
  =========                 |
  \\      /  F ield         | OpenFOAM: The Open Source CFD Toolbox
   \\    /   O peration     | Website:  https://openfoam.org
    \\  /    A nd           | Version:  9
     \\/     M anipulation  |
\*---------------------------------------------------------------------------*/
FoamFile
{
    format      ascii;
    class       volVectorField;
    location    "89";
    object      ddtCorrDdt0(hU);
}
// * * * * * * * * * * * * * * * * * * * * * * * * * * * * * * * * * * * * * //

dimensions      [0 2 -2 0 0 0 0];

internalField   nonuniform List<vector> 
400
(
(-3.83035e-09 -2.9572e-10 0)
(-4.6566e-09 8.74975e-11 0)
(-1.60519e-09 1.33954e-09 0)
(3.71806e-10 -1.67193e-10 0)
(1.24541e-09 -5.3688e-10 0)
(5.25757e-10 1.57936e-09 0)
(2.63784e-09 7.35248e-10 0)
(1.22843e-09 7.96111e-10 0)
(1.75381e-09 -8.95392e-10 0)
(-2.52565e-09 -1.2222e-09 0)
(-8.5991e-10 -1.9505e-10 0)
(9.05865e-10 -2.27663e-09 0)
(1.26161e-09 -1.07091e-09 0)
(1.89282e-09 -3.22897e-09 0)
(-1.90824e-09 -2.45469e-09 0)
(3.87745e-10 -1.09179e-09 0)
(1.172e-09 -2.4919e-09 0)
(-4.21938e-09 -2.89289e-09 0)
(-4.83733e-09 -2.45921e-10 0)
(-6.83966e-10 1.90699e-10 0)
(-2.14697e-09 -2.38195e-09 0)
(-4.18955e-09 1.71194e-10 0)
(-2.55533e-09 2.74709e-09 0)
(-6.76747e-10 -4.21258e-10 0)
(6.55189e-10 9.41801e-10 0)
(1.44013e-09 3.49197e-09 0)
(1.86748e-09 2.07213e-09 0)
(2.04623e-09 -5.28189e-10 0)
(-5.70785e-10 -1.97807e-09 0)
(4.82944e-10 -4.34824e-09 0)
(-1.56129e-09 -1.8468e-09 0)
(1.46031e-09 -4.17873e-09 0)
(1.58922e-09 -4.83458e-09 0)
(-3.57132e-10 -6.10517e-09 0)
(6.24746e-10 -5.13064e-09 0)
(3.63537e-10 -2.80558e-09 0)
(5.62525e-10 -4.84872e-09 0)
(-3.66899e-10 -5.48981e-09 0)
(-1.90079e-09 -1.41014e-09 0)
(-1.35313e-09 5.1434e-10 0)
(1.09654e-09 -4.30984e-09 0)
(-1.67437e-09 -2.53307e-10 0)
(-2.57918e-09 1.11121e-09 0)
(-1.31354e-09 8.75659e-10 0)
(-9.24902e-11 3.86437e-09 0)
(1.66391e-09 3.23728e-09 0)
(-2.13027e-10 9.56007e-10 0)
(2.00656e-09 -1.82711e-09 0)
(-1.14296e-09 -4.40421e-09 0)
(-4.34297e-10 -2.46514e-09 0)
(2.55202e-09 -8.1922e-09 0)
(-1.86462e-09 -1.45422e-09 0)
(2.24539e-09 -5.81486e-09 0)
(-7.51714e-13 -5.85813e-09 0)
(-4.06893e-10 -2.61507e-09 0)
(2.13319e-10 -1.91782e-09 0)
(1.25667e-09 -4.63629e-09 0)
(3.37997e-09 -6.37842e-09 0)
(1.92648e-09 -4.05944e-09 0)
(-1.04018e-10 -6.41427e-10 0)
(3.09457e-09 -3.78338e-09 0)
(7.49755e-10 -1.25488e-09 0)
(-9.78067e-10 -8.59275e-10 0)
(-9.06782e-10 2.43002e-09 0)
(5.21733e-11 3.90957e-09 0)
(-7.98369e-10 7.96551e-10 0)
(1.39046e-10 -8.53587e-10 0)
(-2.25317e-09 -1.96132e-11 0)
(3.5825e-09 -5.34803e-09 0)
(-5.90422e-09 -2.57666e-09 0)
(1.56431e-09 9.87333e-10 0)
(7.2233e-09 -9.87531e-09 0)
(-5.28913e-09 -2.05955e-10 0)
(3.01855e-09 -2.68146e-09 0)
(1.73345e-09 -1.18921e-09 0)
(-3.64874e-09 1.01871e-09 0)
(-2.28305e-09 -1.26055e-09 0)
(3.02917e-09 -4.43234e-09 0)
(5.0309e-09 -4.13126e-09 0)
(3.77514e-09 -1.45025e-09 0)
(3.29748e-09 -2.20798e-09 0)
(2.52932e-09 -1.78601e-09 0)
(8.68119e-10 -8.01084e-10 0)
(5.43607e-10 2.08242e-09 0)
(-1.10226e-09 7.41785e-10 0)
(-1.08983e-09 -2.60534e-09 0)
(-2.13892e-09 9.787e-10 0)
(7.07797e-10 -2.75263e-09 0)
(-7.1473e-09 4.40578e-09 0)
(1.61493e-08 -1.5508e-08 0)
(-2.20425e-08 1.50662e-08 0)
(3.16172e-09 -3.6192e-09 0)
(1.13834e-08 -8.25212e-09 0)
(-5.00494e-09 2.89952e-09 0)
(3.35088e-09 2.17519e-09 0)
(6.57493e-10 2.38695e-09 0)
(-4.48401e-09 3.53839e-09 0)
(-4.05578e-10 2.28001e-09 0)
(4.88988e-09 1.73053e-10 0)
(5.2615e-09 -2.3744e-10 0)
(2.43464e-09 -2.79125e-10 0)
(3.24373e-09 -1.19952e-09 0)
(2.43767e-09 -2.06008e-11 0)
(5.89707e-10 1.204e-10 0)
(-1.25006e-09 -3.29178e-09 0)
(-1.59794e-09 -2.40666e-09 0)
(-1.96482e-09 -1.57032e-10 0)
(9.87124e-10 2.58648e-09 0)
(-8.57483e-09 -7.97432e-09 0)
(2.80713e-09 1.39506e-08 0)
(1.6802e-08 -1.21194e-08 0)
(-4.24971e-08 4.47423e-08 0)
(9.69236e-09 2.80338e-10 0)
(1.71528e-08 -5.38795e-09 0)
(9.71694e-10 1.31725e-09 0)
(-1.66148e-10 2.44609e-09 0)
(-2.54366e-09 5.41882e-09 0)
(-2.73502e-09 7.03843e-09 0)
(9.46619e-10 4.70287e-09 0)
(2.69777e-09 1.416e-09 0)
(1.20169e-09 1.65306e-09 0)
(3.31432e-09 1.35203e-10 0)
(2.18653e-09 3.23565e-11 0)
(1.83773e-10 -2.33681e-09 0)
(-1.44623e-09 -4.27348e-09 0)
(-9.95273e-10 -1.03012e-09 0)
(1.46933e-09 1.23831e-09 0)
(-1.08017e-08 2.09277e-09 0)
(1.9165e-08 -9.98564e-09 0)
(-4.48563e-08 4.48334e-08 0)
(4.95701e-08 -4.81769e-08 0)
(6.56427e-09 4.53068e-09 0)
(-6.49077e-08 1.87407e-08 0)
(1.05383e-09 -3.6246e-09 0)
(1.63315e-08 -5.32626e-09 0)
(6.42042e-09 7.91982e-10 0)
(1.68967e-10 5.18568e-09 0)
(-2.31573e-09 7.90922e-09 0)
(-2.44029e-09 6.24941e-09 0)
(-2.20069e-09 2.20271e-09 0)
(2.8187e-10 3.00153e-09 0)
(2.05286e-09 1.0138e-09 0)
(8.67311e-10 -6.76279e-10 0)
(-8.76703e-10 -3.40197e-09 0)
(-6.08155e-10 -2.20585e-09 0)
(1.29619e-09 1.05213e-09 0)
(-6.77955e-10 9.11959e-10 0)
(-4.78095e-09 -6.59147e-10 0)
(1.47507e-08 1.84771e-08 0)
(-2.06794e-08 -4.04955e-08 0)
(3.3786e-07 4.92515e-08 0)
(7.49088e-08 -3.54075e-08 0)
(-9.72344e-09 -1.28194e-08 0)
(-1.79329e-08 7.00969e-09 0)
(8.85679e-09 -3.67536e-10 0)
(1.29799e-08 -3.1194e-09 0)
(5.30786e-09 4.20804e-10 0)
(-9.7665e-10 3.154e-09 0)
(-5.14237e-09 3.36515e-09 0)
(-6.21103e-09 7.91733e-10 0)
(-5.97728e-10 2.86929e-09 0)
(2.05069e-10 7.04592e-10 0)
(-9.5946e-10 -1.29636e-09 0)
(-7.8253e-10 -2.2454e-09 0)
(4.24942e-10 2.05712e-10 0)
(1.6407e-09 3.242e-09 0)
(1.24901e-09 -2.29569e-09 0)
(4.63102e-09 -4.58977e-09 0)
(-1.51397e-08 1.3742e-08 0)
(1.55723e-08 -3.37688e-08 0)
(-3.27947e-07 4.72314e-08 0)
(-8.15633e-08 -2.91366e-08 0)
(4.55186e-09 -3.74572e-09 0)
(1.84501e-08 8.04334e-09 0)
(1.58456e-09 2.83966e-09 0)
(6.03602e-09 -4.95346e-09 0)
(4.09403e-09 -5.4622e-09 0)
(2.87247e-09 -3.02594e-09 0)
(-3.59075e-09 -1.58854e-09 0)
(-6.20092e-09 7.48546e-11 0)
(-1.11971e-09 1.25245e-09 0)
(-1.4438e-09 -3.95857e-10 0)
(-1.57487e-09 -9.87271e-10 0)
(-4.59153e-10 8.76046e-11 0)
(1.93208e-09 1.5822e-09 0)
(5.95945e-10 1.43619e-09 0)
(-2.47033e-09 -3.00607e-09 0)
(6.29328e-09 -7.9713e-09 0)
(-1.38415e-08 -8.1177e-09 0)
(4.19233e-08 4.21911e-08 0)
(-6.20145e-08 -1.70952e-08 0)
(7.04549e-09 1.21171e-08 0)
(5.24464e-08 3.47722e-08 0)
(-9.18118e-09 7.40304e-09 0)
(-1.15788e-08 1.77886e-09 0)
(4.12678e-10 -1.81911e-09 0)
(1.11178e-08 -4.80518e-09 0)
(5.53366e-09 -4.3029e-09 0)
(-2.66391e-10 -3.57628e-09 0)
(-4.30012e-09 -9.04631e-10 0)
(-1.34608e-09 -5.69423e-10 0)
(-1.72462e-09 -1.05944e-09 0)
(-1.0861e-09 -1.41108e-11 0)
(3.01805e-10 2.01505e-09 0)
(1.4365e-09 5.81259e-10 0)
(-7.37555e-10 -1.19422e-09 0)
(-3.50639e-09 -2.27554e-09 0)
(1.69239e-09 7.3629e-10 0)
(5.58055e-09 -4.00664e-09 0)
(2.94188e-08 8.62346e-09 0)
(-8.16353e-09 2.44882e-09 0)
(2.47561e-08 6.82326e-08 0)
(-3.01295e-09 7.95605e-10 0)
(-2.76477e-08 1.86962e-09 0)
(-1.37146e-08 3.70202e-09 0)
(-4.20206e-09 1.15934e-09 0)
(3.90559e-09 -2.28572e-10 0)
(4.58432e-09 -1.50629e-09 0)
(-1.19819e-10 -2.25117e-09 0)
(-2.18184e-09 -1.76964e-09 0)
(-1.42276e-09 -1.61229e-09 0)
(-8.37779e-10 -4.98885e-10 0)
(1.82296e-11 6.30196e-10 0)
(1.88738e-10 2.23831e-09 0)
(6.26319e-10 -9.29184e-10 0)
(-9.11655e-10 -3.83216e-09 0)
(-9.82445e-10 3.93806e-09 0)
(4.7733e-10 6.15889e-09 0)
(1.44696e-08 -1.94795e-09 0)
(-3.09206e-08 -1.59804e-08 0)
(-2.3975e-07 -2.37737e-08 0)
(-2.02554e-08 -3.51313e-08 0)
(-3.93658e-08 -1.83657e-08 0)
(-2.27375e-09 -7.00154e-09 0)
(-1.11272e-08 -1.50286e-09 0)
(-5.23019e-09 3.97001e-09 0)
(2.7697e-09 4.30194e-09 0)
(1.15296e-09 1.39531e-09 0)
(-2.27801e-09 -1.00398e-09 0)
(-1.21531e-09 -7.91772e-10 0)
(-1.33266e-09 -1.81791e-09 0)
(6.07487e-10 4.8917e-10 0)
(9.77879e-10 9.72538e-10 0)
(-5.04073e-10 1.12909e-09 0)
(-7.55469e-10 -8.96775e-10 0)
(1.6942e-09 -4.14972e-09 0)
(1.81957e-09 3.24474e-09 0)
(-1.51564e-09 1.07197e-08 0)
(-6.7474e-09 -4.92886e-09 0)
(2.20952e-08 -1.05092e-08 0)
(2.2786e-07 -2.67527e-08 0)
(1.77438e-08 -3.78838e-08 0)
(2.51563e-08 -1.42818e-08 0)
(-5.75953e-09 -1.06294e-08 0)
(4.00869e-09 -1.66572e-09 0)
(5.65067e-09 5.18271e-09 0)
(3.62381e-10 3.66775e-09 0)
(-3.9607e-09 -1.78088e-10 0)
(-3.56333e-09 -1.34645e-09 0)
(1.25484e-11 -4.58618e-10 0)
(-5.61865e-10 -1.77511e-09 0)
(2.00549e-09 8.38308e-10 0)
(1.20302e-09 1.09958e-09 0)
(-1.15987e-09 8.01628e-10 0)
(-1.99001e-09 1.25904e-09 0)
(1.85184e-09 -1.68999e-09 0)
(5.57994e-09 -2.08659e-09 0)
(-1.99309e-09 3.98608e-09 0)
(4.16059e-10 9.18943e-09 0)
(-3.44957e-08 -5.56572e-09 0)
(3.78529e-08 6.09156e-09 0)
(-3.05266e-09 1.97561e-08 0)
(-1.39551e-08 -5.5107e-09 0)
(1.59244e-08 2.75351e-09 0)
(1.39184e-08 5.5112e-09 0)
(4.85436e-09 2.84601e-09 0)
(-3.2043e-09 -1.78493e-09 0)
(-5.69339e-09 -4.82851e-09 0)
(-1.49888e-09 -3.11268e-09 0)
(2.55612e-09 -5.48552e-10 0)
(1.32318e-09 -1.5446e-09 0)
(2.82382e-09 2.12406e-11 0)
(1.49042e-09 1.2483e-09 0)
(-1.36528e-09 1.5215e-09 0)
(-3.02622e-09 4.25327e-09 0)
(-4.80459e-10 2.3433e-09 0)
(4.53783e-09 -3.72658e-09 0)
(3.12881e-09 -5.74041e-09 0)
(-4.83991e-09 5.01078e-09 0)
(3.04466e-09 8.5537e-09 0)
(1.2877e-09 1.91593e-08 0)
(-1.56312e-09 -3.08612e-09 0)
(1.6319e-08 1.25566e-08 0)
(1.37462e-08 9.3579e-09 0)
(5.60268e-09 3.69859e-09 0)
(-3.13814e-09 -1.22565e-09 0)
(-8.53509e-09 -6.42421e-09 0)
(-5.59817e-09 -8.09627e-09 0)
(2.06462e-09 -4.16736e-09 0)
(5.42391e-09 -6.32583e-10 0)
(3.22906e-09 -3.07454e-10 0)
(2.92872e-09 -5.12898e-10 0)
(1.60553e-09 3.63615e-10 0)
(-3.46853e-10 1.55046e-09 0)
(-3.30535e-09 4.18242e-09 0)
(-2.58609e-09 5.85013e-09 0)
(3.11016e-12 -1.49734e-09 0)
(2.57466e-09 -8.0646e-09 0)
(5.74936e-10 -7.1875e-09 0)
(3.53603e-09 3.11265e-09 0)
(-6.44136e-09 4.77629e-10 0)
(3.2673e-09 6.65356e-09 0)
(8.55918e-09 5.15746e-09 0)
(2.54598e-09 5.39024e-10 0)
(-3.38096e-09 -2.91023e-09 0)
(-9.847e-09 -6.17196e-09 0)
(-1.11361e-08 -7.59992e-09 0)
(-3.20808e-09 -5.81165e-09 0)
(5.40567e-09 -2.04342e-09 0)
(7.35168e-09 -1.22042e-10 0)
(3.59342e-09 2.0799e-09 0)
(1.71108e-09 5.49265e-10 0)
(1.38123e-09 -1.26279e-09 0)
(7.26809e-10 -1.28225e-09 0)
(-1.32465e-09 6.92699e-10 0)
(-3.54136e-09 4.30703e-09 0)
(-3.15929e-09 2.71332e-09 0)
(-8.35798e-10 -2.99367e-09 0)
(4.41439e-10 -6.15179e-09 0)
(7.29297e-10 -5.16749e-09 0)
(-1.32587e-11 -6.57603e-09 0)
(1.64456e-09 -2.27885e-09 0)
(2.39953e-10 -3.78701e-09 0)
(-3.86081e-09 -4.79248e-09 0)
(-8.3558e-09 -5.9619e-09 0)
(-1.15126e-08 -6.15721e-09 0)
(-7.59812e-09 -2.30573e-09 0)
(1.03573e-09 2.14897e-09 0)
(6.57169e-09 3.12651e-09 0)
(7.08641e-09 1.22675e-09 0)
(1.64649e-09 4.16338e-09 0)
(-6.43483e-10 1.78831e-09 0)
(8.98925e-11 -1.6051e-09 0)
(1.54275e-09 -4.26926e-09 0)
(1.15399e-09 -4.26056e-09 0)
(-1.4676e-09 -9.28365e-10 0)
(-3.50876e-09 2.87636e-09 0)
(-2.14846e-09 3.81947e-09 0)
(-4.3027e-10 1.94985e-09 0)
(4.88231e-10 8.49518e-11 0)
(1.20615e-09 -2.24576e-09 0)
(1.06563e-09 -2.75738e-09 0)
(-6.33748e-10 -3.12972e-09 0)
(-3.81236e-09 -2.42552e-09 0)
(-6.08656e-09 -2.56458e-09 0)
(-5.15846e-09 -5.56514e-10 0)
(-8.0235e-10 5.70014e-09 0)
(3.53504e-09 1.04564e-08 0)
(4.97033e-09 8.60126e-09 0)
(4.20597e-09 3.00821e-09 0)
(-1.75585e-09 4.48451e-09 0)
(-2.98196e-09 1.87938e-09 0)
(-1.4317e-09 -9.5647e-10 0)
(1.52452e-09 -3.96554e-09 0)
(2.62915e-09 -6.34055e-09 0)
(7.96017e-10 -4.77579e-09 0)
(-1.62274e-09 -4.83089e-11 0)
(-1.6259e-09 4.78356e-09 0)
(-9.91968e-10 6.13631e-09 0)
(-7.8287e-10 5.23121e-09 0)
(-1.26926e-10 4.10205e-09 0)
(1.76724e-09 2.75858e-09 0)
(1.77907e-09 2.12921e-09 0)
(5.63057e-10 2.97483e-09 0)
(-4.17623e-11 3.10921e-09 0)
(1.85831e-09 4.1072e-09 0)
(4.60438e-09 8.7937e-09 0)
(4.2349e-09 1.23299e-08 0)
(1.26293e-09 9.71518e-09 0)
(-1.63525e-09 3.41654e-09 0)
(-4.97588e-09 2.06319e-09 0)
(-4.73325e-09 8.17308e-10 0)
(-2.3786e-09 -3.17545e-10 0)
(1.24592e-09 -1.50769e-09 0)
(3.17989e-09 -2.90621e-09 0)
(1.86663e-09 -2.80003e-09 0)
(2.5577e-10 -6.77449e-10 0)
(-9.17847e-10 1.73665e-09 0)
(-8.04822e-10 3.06037e-09 0)
(-1.24241e-09 3.08043e-09 0)
(-1.16521e-09 3.45666e-09 0)
(5.60939e-10 2.74032e-09 0)
(2.7738e-09 2.24495e-09 0)
(3.52157e-09 2.6103e-09 0)
(2.78281e-09 2.50727e-09 0)
(4.9444e-09 2.47935e-09 0)
(6.89797e-09 4.10386e-09 0)
(3.3872e-09 5.39909e-09 0)
(-2.59988e-09 4.20063e-09 0)
(-6.74512e-09 1.46448e-09 0)
)
;

boundaryField
{
    sides
    {
        type            calculated;
        value           nonuniform List<vector> 
40
(
(-4.97588e-09 0 0)
(-4.73325e-09 0 0)
(-2.3786e-09 0 0)
(1.24592e-09 0 0)
(3.17989e-09 0 0)
(1.86663e-09 0 0)
(2.5577e-10 0 0)
(-9.17847e-10 0 0)
(-8.04822e-10 0 0)
(-1.24241e-09 0 0)
(-1.16521e-09 0 0)
(5.60939e-10 0 0)
(2.7738e-09 0 0)
(3.52157e-09 0 0)
(2.78281e-09 0 0)
(4.9444e-09 0 0)
(6.89797e-09 0 0)
(3.3872e-09 0 0)
(-2.59988e-09 0 0)
(-6.74512e-09 0 0)
(-3.83035e-09 0 0)
(-4.6566e-09 0 0)
(-1.60519e-09 0 0)
(3.71806e-10 0 0)
(1.24541e-09 0 0)
(5.25757e-10 0 0)
(2.63784e-09 0 0)
(1.22843e-09 0 0)
(1.75381e-09 0 0)
(-2.52565e-09 0 0)
(-8.5991e-10 0 0)
(9.05865e-10 0 0)
(1.26161e-09 0 0)
(1.89282e-09 0 0)
(-1.90824e-09 0 0)
(3.87745e-10 0 0)
(1.172e-09 0 0)
(-4.21938e-09 0 0)
(-4.83733e-09 0 0)
(-6.83966e-10 0 0)
)
;
    }
    inlet
    {
        type            calculated;
        value           uniform (0 0 0);
    }
    outlet
    {
        type            calculated;
        value           nonuniform List<vector> 
20
(
(-6.83966e-10 1.90699e-10 0)
(-1.35313e-09 5.1434e-10 0)
(-1.04018e-10 -6.41427e-10 0)
(3.77514e-09 -1.45025e-09 0)
(5.2615e-09 -2.3744e-10 0)
(2.69777e-09 1.416e-09 0)
(-2.20069e-09 2.20271e-09 0)
(-6.21103e-09 7.91733e-10 0)
(-6.20092e-09 7.48546e-11 0)
(-4.30012e-09 -9.04631e-10 0)
(-2.18184e-09 -1.76964e-09 0)
(-1.21531e-09 -7.91772e-10 0)
(1.25484e-11 -4.58618e-10 0)
(2.55612e-09 -5.48552e-10 0)
(5.42391e-09 -6.32583e-10 0)
(7.35168e-09 -1.22042e-10 0)
(7.08641e-09 1.22675e-09 0)
(4.20597e-09 3.00821e-09 0)
(-1.63525e-09 3.41654e-09 0)
(-6.74512e-09 1.46448e-09 0)
)
;
    }
    frontAndBack
    {
        type            empty;
    }
}


// ************************************************************************* //
