/*--------------------------------*- C++ -*----------------------------------*\
  =========                 |
  \\      /  F ield         | OpenFOAM: The Open Source CFD Toolbox
   \\    /   O peration     | Website:  https://openfoam.org
    \\  /    A nd           | Version:  9
     \\/     M anipulation  |
\*---------------------------------------------------------------------------*/
FoamFile
{
    format      ascii;
    class       surfaceScalarField;
    location    "89";
    object      phi;
}
// * * * * * * * * * * * * * * * * * * * * * * * * * * * * * * * * * * * * * //

dimensions      [0 4 -1 0 0 0 0];

internalField   nonuniform List<scalar> 
760
(
5.00009e-06
-9.29691e-11
5.0004e-06
-3.05925e-10
5.00092e-06
-5.11746e-10
5.00162e-06
-7.06123e-10
5.00249e-06
-8.761e-10
5.0035e-06
-1.00184e-09
5.00456e-06
-1.05718e-09
5.00557e-06
-1.01031e-09
5.0064e-06
-8.29887e-10
5.00692e-06
-5.22552e-10
5.00705e-06
-1.23182e-10
5.00665e-06
3.9516e-10
5.0058e-06
8.52486e-10
5.00469e-06
1.09931e-09
5.00352e-06
1.16893e-09
5.00257e-06
9.51814e-10
5.00186e-06
7.14228e-10
5.00161e-06
2.43435e-10
5.00151e-06
1.05961e-10
-3.91744e-10
5.00012e-06
-2.14428e-10
5.00045e-06
-6.33407e-10
5.00098e-06
-1.04508e-09
5.00172e-06
-1.44522e-09
5.00265e-06
-1.80645e-09
5.00374e-06
-2.09142e-09
5.00493e-06
-2.24255e-09
5.00611e-06
-2.18895e-09
5.00713e-06
-1.85045e-09
5.00777e-06
-1.16879e-09
5.00774e-06
-9.57032e-11
5.00726e-06
8.84015e-10
5.00627e-06
1.8378e-09
5.00495e-06
2.40915e-09
5.00368e-06
2.44084e-09
5.00278e-06
1.85689e-09
5.00225e-06
1.24409e-09
5.00191e-06
5.77329e-10
5.00165e-06
3.65967e-10
-1.48012e-10
5.00011e-06
-3.23051e-10
5.00043e-06
-9.53012e-10
5.00096e-06
-1.5781e-09
5.00172e-06
-2.20654e-09
5.00273e-06
-2.80395e-09
5.00395e-06
-3.31345e-09
5.00532e-06
-3.62246e-09
5.00672e-06
-3.59134e-09
5.00793e-06
-3.06008e-09
5.00872e-06
-1.96086e-09
5.00893e-06
-3.13709e-10
5.00825e-06
1.56368e-09
5.00687e-06
3.21923e-09
5.00515e-06
4.12677e-09
5.00351e-06
4.08986e-09
5.00231e-06
3.05634e-09
5.00167e-06
1.8883e-09
5.00148e-06
7.6538e-10
5.00145e-06
3.93427e-10
-2.22801e-10
5.0001e-06
-4.22711e-10
5.00041e-06
-1.2629e-09
5.00094e-06
-2.11405e-09
5.00175e-06
-3.00798e-09
5.00286e-06
-3.90984e-09
5.00429e-06
-4.74846e-09
5.00602e-06
-5.35272e-09
5.00795e-06
-5.52891e-09
5.00984e-06
-4.95162e-09
5.01107e-06
-3.20032e-09
5.0112e-06
-4.30315e-10
5.00999e-06
2.76028e-09
5.00765e-06
5.56429e-09
5.00515e-06
6.63433e-09
5.00347e-06
5.76146e-09
5.0027e-06
3.83109e-09
5.00248e-06
2.11174e-09
5.00231e-06
9.35259e-10
5.002e-06
7.07454e-10
3.38865e-10
5.00008e-06
-5.04077e-10
5.00034e-06
-1.52215e-09
5.00083e-06
-2.60688e-09
5.00164e-06
-3.80901e-09
5.00286e-06
-5.13296e-09
5.00458e-06
-6.46819e-09
5.0068e-06
-7.57739e-09
5.00942e-06
-8.1526e-09
5.01239e-06
-7.91908e-09
5.01478e-06
-5.60574e-09
5.01482e-06
-4.71225e-10
5.01286e-06
4.74934e-09
5.00867e-06
9.73428e-09
5.0046e-06
1.07123e-08
5.00224e-06
8.12148e-09
5.00174e-06
4.32791e-09
5.00204e-06
1.8093e-09
5.00226e-06
7.26712e-10
5.00202e-06
9.52968e-10
6.28062e-10
5.00004e-06
-5.44955e-10
5.0002e-06
-1.67806e-09
5.00054e-06
-2.94633e-09
5.00121e-06
-4.48168e-09
5.00241e-06
-6.33458e-09
5.00452e-06
-8.58057e-09
5.0076e-06
-1.06575e-08
5.01167e-06
-1.22186e-08
5.01551e-06
-1.17912e-08
5.01902e-06
-9.05403e-09
5.0202e-06
-1.68354e-09
5.01602e-06
8.96345e-09
5.00952e-06
1.62628e-08
5.00422e-06
1.60019e-08
5.00217e-06
1.01598e-08
5.00249e-06
4.00361e-09
5.00327e-06
1.03499e-09
5.00339e-06
6.02562e-10
5.0028e-06
1.55102e-09
1.42467e-09
4.99998e-06
-5.24174e-10
4.99994e-06
-1.63532e-09
5.00003e-06
-3.03875e-09
5.00036e-06
-4.81298e-09
5.00122e-06
-7.19528e-09
5.00292e-06
-1.02805e-08
5.00681e-06
-1.45347e-08
5.01391e-06
-1.93416e-08
5.02375e-06
-2.16004e-08
5.03093e-06
-1.62323e-08
5.02875e-06
5.35204e-10
5.01671e-06
2.09232e-08
5.00418e-06
2.88193e-08
4.99874e-06
2.14616e-08
5.00058e-06
8.31463e-09
5.00285e-06
1.7297e-09
5.00371e-06
1.64254e-10
5.00366e-06
6.55999e-10
5.00305e-06
2.16743e-09
1.68355e-09
4.99987e-06
-3.89137e-10
4.99955e-06
-1.3208e-09
4.99912e-06
-2.61224e-09
4.99885e-06
-4.54432e-09
4.99933e-06
-7.66919e-09
5.00036e-06
-1.13056e-08
5.00365e-06
-1.78269e-08
5.00981e-06
-2.55082e-08
5.02489e-06
-3.66557e-08
5.05607e-06
-4.74988e-08
5.05007e-06
7.63453e-09
5.02319e-06
4.7808e-08
4.99818e-06
5.38113e-08
4.9935e-06
2.61444e-08
4.99947e-06
2.34488e-09
5.00407e-06
-2.87922e-09
5.0049e-06
-6.71349e-10
5.00372e-06
1.83485e-09
5.0035e-06
2.38219e-09
9.70742e-10
4.99977e-06
-1.57203e-10
4.99915e-06
-7.05197e-10
4.99792e-06
-1.38031e-09
4.99611e-06
-2.73324e-09
4.99402e-06
-5.57723e-09
4.99374e-06
-1.1026e-08
4.99945e-06
-2.35341e-08
5.01714e-06
-4.32079e-08
5.05569e-06
-7.52336e-08
5.06688e-06
-5.85881e-08
5.0497e-06
2.3719e-08
4.99649e-06
1.0102e-07
4.98931e-06
6.10218e-08
4.99591e-06
1.95435e-08
5.00019e-06
-1.94011e-09
5.00293e-06
-5.61962e-09
5.00252e-06
-2.7393e-10
5.00184e-06
2.51467e-09
5.00254e-06
1.6764e-09
7.85592e-11
4.99986e-06
-1.6e-11
4.9992e-06
-5.20714e-11
4.99791e-06
-8.69078e-11
4.9953e-06
-1.27044e-10
4.9899e-06
-1.66873e-10
4.97909e-06
-2.17662e-10
4.95582e-06
-2.71547e-10
4.91297e-06
-3.37593e-10
4.83814e-06
-4.2233e-10
4.77998e-06
-4.40832e-10
4.80427e-06
-5.89082e-10
4.90606e-06
-6.97099e-10
4.96778e-06
-7.30118e-10
4.98822e-06
-8.99173e-10
4.98745e-06
-1.16408e-09
4.98327e-06
-1.42946e-09
4.98456e-06
-1.56195e-09
4.9889e-06
-1.83092e-09
4.99247e-06
-1.89772e-09
-2.58596e-09
4.99986e-06
1.25208e-10
4.99921e-06
6.01046e-10
4.99791e-06
1.21148e-09
4.9953e-06
2.48471e-09
4.98988e-06
5.25192e-09
4.97905e-06
1.06009e-08
4.95577e-06
2.30112e-08
4.9129e-06
4.25441e-08
4.83805e-06
7.44575e-08
4.77974e-06
5.78327e-08
4.80425e-06
-2.51278e-08
4.90599e-06
-1.02456e-07
4.96775e-06
-6.25316e-08
4.98806e-06
-2.12041e-08
4.98735e-06
-4.52103e-10
4.98294e-06
2.99735e-09
4.98443e-06
-3.05295e-09
4.98889e-06
-6.2872e-09
4.99235e-06
-5.35968e-09
-4.98499e-09
4.99977e-06
3.56699e-10
4.99915e-06
1.22248e-09
4.99792e-06
2.44384e-09
4.9961e-06
4.29835e-09
4.99402e-06
7.33451e-09
4.99373e-06
1.08841e-08
4.99942e-06
1.73182e-08
5.01708e-06
2.49008e-08
5.05563e-06
3.59133e-08
5.06713e-06
4.635e-08
5.04944e-06
-8.01001e-09
4.99607e-06
-4.91509e-08
4.98884e-06
-5.52741e-08
4.99569e-06
-2.80488e-08
5.0001e-06
-4.86366e-09
5.00232e-06
7.91468e-10
5.00166e-06
-2.38984e-09
5.0009e-06
-5.53425e-09
5.00168e-06
-6.13815e-09
-5.95228e-09
4.99987e-06
4.92643e-10
4.99955e-06
1.54172e-09
4.99911e-06
2.87974e-09
4.99883e-06
4.57923e-09
4.99927e-06
6.88865e-09
5.00027e-06
9.89213e-09
5.00348e-06
1.41048e-08
5.0096e-06
1.8776e-08
5.0246e-06
2.09232e-08
5.05552e-06
1.54175e-08
5.04978e-06
-1.69293e-09
5.02285e-06
-2.21515e-08
4.99787e-06
-3.03117e-08
4.99316e-06
-2.33334e-08
4.99864e-06
-1.03423e-08
5.00345e-06
-4.01914e-09
5.00373e-06
-2.67113e-09
5.00235e-06
-4.16196e-09
5.00216e-06
-5.94532e-09
-6.53638e-09
4.99998e-06
5.16311e-10
4.99993e-06
1.59165e-09
5.00001e-06
2.80224e-09
5.00031e-06
4.27468e-09
5.00113e-06
6.06458e-09
5.0028e-06
8.23381e-09
5.00669e-06
1.02187e-08
5.01378e-06
1.16663e-08
5.02356e-06
1.11355e-08
5.0307e-06
8.28391e-09
5.02841e-06
6.52133e-10
5.01625e-06
-1.0026e-08
5.00351e-06
-1.75461e-08
4.99778e-06
-1.76012e-08
4.99941e-06
-1.19831e-08
5.00161e-06
-6.21897e-09
5.0024e-06
-3.46815e-09
5.00213e-06
-3.89216e-09
5.0012e-06
-5.01004e-09
-5.97854e-09
5.00004e-06
4.79435e-10
5.00018e-06
1.44642e-09
5.0005e-06
2.48029e-09
5.00115e-06
3.62818e-09
5.00232e-06
4.89512e-09
5.00439e-06
6.16295e-09
5.00742e-06
7.20001e-09
5.0114e-06
7.68595e-09
5.01513e-06
7.38386e-09
5.01853e-06
4.88589e-09
5.01956e-06
-3.85266e-10
5.01524e-06
-5.69111e-09
5.00855e-06
-1.08626e-08
5.00311e-06
-1.21769e-08
5.00087e-06
-9.7571e-09
5.001e-06
-6.35447e-09
5.00155e-06
-4.01478e-09
5.00132e-06
-3.65528e-09
5.00036e-06
-4.04816e-09
-4.97874e-09
5.00008e-06
4.01096e-10
5.00032e-06
1.20072e-09
5.00079e-06
2.00985e-09
5.00157e-06
2.85637e-09
5.00275e-06
3.71214e-09
5.00441e-06
4.50232e-09
5.00656e-06
5.05482e-09
5.0091e-06
5.15209e-09
5.01203e-06
4.44681e-09
5.0144e-06
2.50357e-09
5.01414e-06
-1.43645e-10
5.01209e-06
-3.64022e-09
5.00775e-06
-6.54081e-09
5.00348e-06
-7.91728e-09
5.00092e-06
-7.1979e-09
5.00013e-06
-5.55764e-09
5.0001e-06
-3.98759e-09
4.99988e-06
-3.42231e-09
4.99918e-06
-3.34168e-09
-4.17326e-09
5.0001e-06
3.01324e-10
5.00039e-06
9.03937e-10
5.00091e-06
1.50076e-09
5.00168e-06
2.09002e-09
5.00274e-06
2.64819e-09
5.00412e-06
3.11308e-09
5.00579e-06
3.38465e-09
5.00763e-06
3.31345e-09
5.00933e-06
2.7541e-09
5.01027e-06
1.56895e-09
5.01043e-06
-3.05999e-10
5.00903e-06
-2.23891e-09
5.0065e-06
-4.01282e-09
5.00367e-06
-5.08346e-09
5.00154e-06
-5.06192e-09
5.00034e-06
-4.3544e-09
4.99971e-06
-3.34124e-09
4.99917e-06
-2.88181e-09
4.99846e-06
-2.62121e-09
-3.215e-09
5.0001e-06
1.97535e-10
5.00041e-06
5.95644e-10
5.00093e-06
9.86611e-10
5.00166e-06
1.35793e-09
5.00262e-06
1.69132e-09
5.00378e-06
1.94623e-09
5.00509e-06
2.06374e-09
5.00645e-06
1.95692e-09
5.00765e-06
1.55915e-09
5.00839e-06
8.31153e-10
5.00821e-06
-1.27948e-10
5.00734e-06
-1.35657e-09
5.0057e-06
-2.37254e-09
5.00368e-06
-3.05887e-09
5.00179e-06
-3.16295e-09
5.00034e-06
-2.8921e-09
4.99932e-06
-2.31856e-09
4.99853e-06
-2.0853e-09
4.99773e-06
-1.82574e-09
-2.27632e-09
5.00008e-06
1.13202e-10
5.00037e-06
3.05222e-10
5.00087e-06
4.95077e-10
5.00155e-06
6.75109e-10
5.00241e-06
8.30926e-10
5.00341e-06
9.43971e-10
5.00448e-06
9.90405e-10
5.00551e-06
9.32836e-10
5.00633e-06
7.36854e-10
5.0068e-06
3.63047e-10
5.00681e-06
-1.39942e-10
5.00608e-06
-6.24399e-10
5.00479e-06
-1.08562e-09
5.00315e-06
-1.42069e-09
5.00148e-06
-1.49307e-09
5.00003e-06
-1.43163e-09
4.99889e-06
-1.18126e-09
4.99793e-06
-1.12833e-09
4.99707e-06
-9.71388e-10
-1.42343e-09
5.00012e-06
5.00042e-06
5.00091e-06
5.00159e-06
5.00242e-06
5.00337e-06
5.00436e-06
5.0053e-06
5.00603e-06
5.00639e-06
5.00625e-06
5.00562e-06
5.00454e-06
5.00311e-06
5.0016e-06
5.00017e-06
4.99899e-06
4.99785e-06
4.99687e-06
)
;

boundaryField
{
    sides
    {
        type            calculated;
        value           uniform 0;
    }
    inlet
    {
        type            calculated;
        value           nonuniform List<scalar> 
20
(
-5e-06
-5e-06
-5e-06
-5e-06
-5e-06
-5e-06
-5e-06
-5e-06
-5e-06
-5e-06
-5e-06
-5e-06
-5e-06
-5e-06
-5e-06
-5e-06
-5e-06
-5e-06
-5e-06
-5e-06
)
;
    }
    outlet
    {
        type            calculated;
        value           nonuniform List<scalar> 
20
(
5.0019e-06
5.00141e-06
5.00152e-06
5.00144e-06
5.00173e-06
5.00201e-06
5.00279e-06
5.00422e-06
5.00343e-06
4.99514e-06
4.99475e-06
5.00265e-06
5.00275e-06
5.00064e-06
4.99936e-06
4.99837e-06
4.9975e-06
4.99679e-06
4.99621e-06
4.99544e-06
)
;
    }
    frontAndBack
    {
        type            empty;
        value           nonuniform List<scalar> 0();
    }
}


// ************************************************************************* //
