/*--------------------------------*- C++ -*----------------------------------*\
  =========                 |
  \\      /  F ield         | OpenFOAM: The Open Source CFD Toolbox
   \\    /   O peration     | Website:  https://openfoam.org
    \\  /    A nd           | Version:  9
     \\/     M anipulation  |
\*---------------------------------------------------------------------------*/
FoamFile
{
    format      ascii;
    class       surfaceScalarField;
    location    "89";
    object      phi_0;
}
// * * * * * * * * * * * * * * * * * * * * * * * * * * * * * * * * * * * * * //

dimensions      [0 4 -1 0 0 0 0];

internalField   nonuniform List<scalar> 
760
(
5.0001e-06
-9.17307e-11
5.0004e-06
-3.06242e-10
5.00091e-06
-5.13112e-10
5.00162e-06
-7.05666e-10
5.00249e-06
-8.77039e-10
5.00349e-06
-1.00352e-09
5.00455e-06
-1.05784e-09
5.00557e-06
-1.00944e-09
5.0064e-06
-8.28953e-10
5.00692e-06
-5.20015e-10
5.00705e-06
-1.21892e-10
5.00665e-06
3.97763e-10
5.0058e-06
8.54389e-10
5.00469e-06
1.10173e-09
5.00352e-06
1.17122e-09
5.00257e-06
9.53025e-10
5.00186e-06
7.16696e-10
5.00161e-06
2.46173e-10
5.00151e-06
1.06845e-10
-3.92173e-10
5.00012e-06
-2.12049e-10
5.00045e-06
-6.33405e-10
5.00098e-06
-1.04591e-09
5.00172e-06
-1.44549e-09
5.00265e-06
-1.80901e-09
5.00374e-06
-2.09325e-09
5.00493e-06
-2.24313e-09
5.00611e-06
-2.18688e-09
5.00713e-06
-1.84848e-09
5.00777e-06
-1.16629e-09
5.00774e-06
-9.1223e-11
5.00725e-06
8.85117e-10
5.00627e-06
1.84144e-09
5.00495e-06
2.41174e-09
5.00368e-06
2.44241e-09
5.00277e-06
1.85806e-09
5.00225e-06
1.24697e-09
5.00191e-06
5.81023e-10
5.00165e-06
3.67728e-10
-1.47731e-10
5.00011e-06
-3.20922e-10
5.00043e-06
-9.52123e-10
5.00096e-06
-1.57771e-09
5.00172e-06
-2.20838e-09
5.00273e-06
-2.80617e-09
5.00395e-06
-3.31451e-09
5.00532e-06
-3.62153e-09
5.00672e-06
-3.59105e-09
5.00793e-06
-3.05623e-09
5.00872e-06
-1.96081e-09
5.00893e-06
-3.09615e-10
5.00825e-06
1.56586e-09
5.00687e-06
3.21995e-09
5.00515e-06
4.12917e-09
5.00351e-06
4.09003e-09
5.00231e-06
3.05607e-09
5.00167e-06
1.8898e-09
5.00147e-06
7.67948e-10
5.00144e-06
3.95704e-10
-2.22153e-10
5.0001e-06
-4.21476e-10
5.00041e-06
-1.26172e-09
5.00094e-06
-2.1136e-09
5.00175e-06
-3.00926e-09
5.00286e-06
-3.91073e-09
5.00429e-06
-4.74745e-09
5.00602e-06
-5.35358e-09
5.00795e-06
-5.52774e-09
5.00984e-06
-4.95223e-09
5.01107e-06
-3.19363e-09
5.0112e-06
-4.41295e-10
5.00999e-06
2.76549e-09
5.00765e-06
5.56561e-09
5.00514e-06
6.6332e-09
5.00347e-06
5.76228e-09
5.0027e-06
3.83128e-09
5.00248e-06
2.11094e-09
5.00231e-06
9.34735e-10
5.002e-06
7.07933e-10
3.39294e-10
5.00008e-06
-5.03883e-10
5.00034e-06
-1.5215e-09
5.00083e-06
-2.60666e-09
5.00164e-06
-3.80918e-09
5.00286e-06
-5.13108e-09
5.00458e-06
-6.46746e-09
5.0068e-06
-7.57798e-09
5.00942e-06
-8.1528e-09
5.01239e-06
-7.91974e-09
5.01477e-06
-5.60385e-09
5.01483e-06
-4.65385e-10
5.01285e-06
4.73189e-09
5.00867e-06
9.73887e-09
5.0046e-06
1.07148e-08
5.00224e-06
8.11998e-09
5.00174e-06
4.32722e-09
5.00205e-06
1.80727e-09
5.00226e-06
7.23524e-10
5.00201e-06
9.50847e-10
6.27467e-10
5.00004e-06
-5.4569e-10
5.0002e-06
-1.67809e-09
5.00054e-06
-2.94638e-09
5.00121e-06
-4.48001e-09
5.00241e-06
-6.33241e-09
5.00452e-06
-8.58015e-09
5.0076e-06
-1.06578e-08
5.01167e-06
-1.22216e-08
5.01552e-06
-1.17805e-08
5.01901e-06
-9.09075e-09
5.0202e-06
-1.66197e-09
5.01603e-06
8.95207e-09
5.00951e-06
1.62445e-08
5.00421e-06
1.60029e-08
5.00217e-06
1.01632e-08
5.00249e-06
4.0038e-09
5.00327e-06
1.03261e-09
5.0034e-06
5.98761e-10
5.0028e-06
1.54776e-09
1.42345e-09
4.99998e-06
-5.25499e-10
4.99994e-06
-1.63593e-09
5.00003e-06
-3.03827e-09
5.00036e-06
-4.81115e-09
5.00122e-06
-7.19367e-09
5.00292e-06
-1.0281e-08
5.00681e-06
-1.45363e-08
5.01392e-06
-1.93378e-08
5.02372e-06
-2.16149e-08
5.03096e-06
-1.62167e-08
5.0287e-06
5.26424e-10
5.01672e-06
2.095e-08
5.0042e-06
2.88223e-08
4.99874e-06
2.14567e-08
5.00058e-06
8.31547e-09
5.00284e-06
1.7304e-09
5.00371e-06
1.63467e-10
5.00366e-06
6.53892e-10
5.00305e-06
2.16484e-09
1.68258e-09
4.99987e-06
-3.90538e-10
4.99955e-06
-1.32128e-09
4.99912e-06
-2.61164e-09
4.99885e-06
-4.54286e-09
4.99933e-06
-7.66969e-09
5.00036e-06
-1.13061e-08
5.00365e-06
-1.78258e-08
5.00982e-06
-2.5513e-08
5.02487e-06
-3.66411e-08
5.0561e-06
-4.74676e-08
5.05007e-06
5.64157e-09
5.02318e-06
4.7782e-08
4.99818e-06
5.38306e-08
4.99351e-06
2.61504e-08
4.99947e-06
2.34472e-09
5.00407e-06
-2.87916e-09
5.0049e-06
-6.70772e-10
5.00372e-06
1.83567e-09
5.00351e-06
2.38235e-09
9.71006e-10
4.99977e-06
-1.5797e-10
4.99915e-06
-7.0525e-10
4.99792e-06
-1.37969e-09
4.99611e-06
-2.73332e-09
4.99402e-06
-5.57796e-09
4.99374e-06
-1.10271e-08
4.99945e-06
-2.35305e-08
5.01714e-06
-4.32022e-08
5.05571e-06
-7.52503e-08
5.06685e-06
-5.85752e-08
5.04969e-06
2.36827e-08
4.9965e-06
1.01044e-07
4.98931e-06
6.10198e-08
4.99591e-06
1.95374e-08
5.00019e-06
-1.94361e-09
5.00293e-06
-5.61928e-09
5.00252e-06
-2.59834e-10
5.00184e-06
2.51751e-09
5.00254e-06
1.67798e-09
7.83863e-11
4.99986e-06
-1.59267e-11
4.99921e-06
-5.16227e-11
4.99791e-06
-8.70406e-11
4.9953e-06
-1.27776e-10
4.9899e-06
-1.67492e-10
4.97909e-06
-2.16489e-10
4.95582e-06
-2.69724e-10
4.91295e-06
-3.36743e-10
4.83816e-06
-4.19992e-10
4.77995e-06
-4.6655e-10
4.80431e-06
-5.85542e-10
4.90604e-06
-7.16507e-10
4.96777e-06
-7.49543e-10
4.98822e-06
-9.03968e-10
4.98746e-06
-1.16662e-09
4.98327e-06
-1.43082e-09
4.98456e-06
-1.56232e-09
4.9889e-06
-1.82983e-09
4.99247e-06
-1.89669e-09
-2.58515e-09
4.99986e-06
1.25609e-10
4.99921e-06
6.01445e-10
4.99791e-06
1.21098e-09
4.99529e-06
2.48379e-09
4.98988e-06
5.25289e-09
4.97906e-06
1.06015e-08
4.95577e-06
2.30114e-08
4.91289e-06
4.25402e-08
4.83805e-06
7.44644e-08
4.77973e-06
5.78194e-08
4.80426e-06
-2.51078e-08
4.90597e-06
-1.02487e-07
4.96775e-06
-6.25256e-08
4.98806e-06
-2.11992e-08
4.98736e-06
-4.51517e-10
4.98294e-06
2.99627e-09
4.98443e-06
-3.05425e-09
4.98889e-06
-6.28824e-09
4.99235e-06
-5.35974e-09
-4.98462e-09
4.99977e-06
3.57068e-10
4.99915e-06
1.22241e-09
4.99792e-06
2.44354e-09
4.9961e-06
4.29784e-09
4.99402e-06
7.33591e-09
4.99373e-06
1.08853e-08
4.99942e-06
1.73134e-08
5.01707e-06
2.49029e-08
5.05561e-06
3.59113e-08
5.06715e-06
4.63788e-08
5.04943e-06
-6.71173e-09
4.99609e-06
-4.91094e-08
4.98884e-06
-5.52665e-08
4.99569e-06
-2.80446e-08
5.00011e-06
-4.86066e-09
5.00232e-06
7.91704e-10
5.00165e-06
-2.39138e-09
5.0009e-06
-5.53539e-09
5.00168e-06
-6.13788e-09
-5.95186e-09
4.99987e-06
4.9322e-10
4.99955e-06
1.54146e-09
4.99911e-06
2.87947e-09
4.99883e-06
4.57891e-09
4.99927e-06
6.88905e-09
5.00027e-06
9.89336e-09
5.00348e-06
1.41035e-08
5.0096e-06
1.8771e-08
5.0246e-06
2.0929e-08
5.05551e-06
1.54041e-08
5.0498e-06
-1.6236e-09
5.02283e-06
-2.21666e-08
4.99787e-06
-3.03058e-08
4.99316e-06
-2.33275e-08
4.99864e-06
-1.03413e-08
5.00344e-06
-4.02034e-09
5.00373e-06
-2.67176e-09
5.00236e-06
-4.16088e-09
5.00216e-06
-5.94376e-09
-6.53573e-09
4.99998e-06
5.17567e-10
4.99993e-06
1.59156e-09
5.00001e-06
2.80176e-09
5.00031e-06
4.27353e-09
5.00113e-06
6.06294e-09
5.00279e-06
8.23433e-09
5.00668e-06
1.02204e-08
5.01379e-06
1.16653e-08
5.02356e-06
1.11262e-08
5.03072e-06
8.29611e-09
5.02839e-06
6.3433e-10
5.01626e-06
-1.00163e-08
5.00351e-06
-1.75427e-08
4.99778e-06
-1.76042e-08
4.99941e-06
-1.1987e-08
5.0016e-06
-6.22104e-09
5.0024e-06
-3.46686e-09
5.00213e-06
-3.88887e-09
5.0012e-06
-5.00784e-09
-5.97805e-09
5.00004e-06
4.80911e-10
5.00018e-06
1.44678e-09
5.0005e-06
2.47926e-09
5.00115e-06
3.62654e-09
5.00232e-06
4.89188e-09
5.00439e-06
6.16174e-09
5.00742e-06
7.20293e-09
5.0114e-06
7.68964e-09
5.01513e-06
7.38314e-09
5.01853e-06
4.87809e-09
5.01956e-06
-4.05415e-10
5.01524e-06
-5.69524e-09
5.00854e-06
-1.08686e-08
5.00311e-06
-1.21819e-08
5.00087e-06
-9.75989e-09
5.001e-06
-6.35454e-09
5.00155e-06
-4.0117e-09
5.00132e-06
-3.65126e-09
5.00036e-06
-4.04639e-09
-4.97865e-09
5.00007e-06
4.01316e-10
5.00032e-06
1.20092e-09
5.00079e-06
2.00966e-09
5.00157e-06
2.85546e-09
5.00275e-06
3.71026e-09
5.00441e-06
4.49968e-09
5.00656e-06
5.05612e-09
5.0091e-06
5.15644e-09
5.01203e-06
4.45087e-09
5.0144e-06
2.50385e-09
5.01415e-06
-1.4224e-10
5.01208e-06
-3.64277e-09
5.00775e-06
-6.54331e-09
5.00348e-06
-7.91823e-09
5.00092e-06
-7.19724e-09
5.00013e-06
-5.55531e-09
5.00011e-06
-3.98454e-09
4.99988e-06
-3.42047e-09
4.99917e-06
-3.34171e-09
-4.17364e-09
5.00009e-06
2.994e-10
5.00039e-06
9.03222e-10
5.00091e-06
1.50193e-09
5.00168e-06
2.09187e-09
5.00274e-06
2.64886e-09
5.00412e-06
3.11181e-09
5.00579e-06
3.3828e-09
5.00763e-06
3.31366e-09
5.00933e-06
2.75613e-09
5.01027e-06
1.57163e-09
5.01043e-06
-3.04109e-10
5.00903e-06
-2.23678e-09
5.0065e-06
-4.01069e-09
5.00367e-06
-5.08103e-09
5.00154e-06
-5.05862e-09
5.00035e-06
-4.35162e-09
4.99971e-06
-3.34134e-09
4.99917e-06
-2.88437e-09
4.99845e-06
-2.62372e-09
-3.21591e-09
5.0001e-06
1.9428e-10
5.00041e-06
5.94378e-10
5.00093e-06
9.88023e-10
5.00166e-06
1.36152e-09
5.00262e-06
1.69491e-09
5.00378e-06
1.94714e-09
5.00509e-06
2.06153e-09
5.00645e-06
1.95319e-09
5.00765e-06
1.55666e-09
5.00839e-06
8.30405e-10
5.00821e-06
-1.28139e-10
5.00733e-06
-1.3556e-09
5.0057e-06
-2.3711e-09
5.00368e-06
-3.057e-09
5.00179e-06
-3.1607e-09
5.00034e-06
-2.89153e-09
4.99932e-06
-2.32191e-09
4.99852e-06
-2.09095e-09
4.99773e-06
-1.83013e-09
-2.27786e-09
5.00009e-06
1.10514e-10
5.00038e-06
3.0424e-10
5.00087e-06
4.95935e-10
5.00155e-06
6.77664e-10
5.00241e-06
8.3439e-10
5.00341e-06
9.45727e-10
5.00448e-06
9.89369e-10
5.00551e-06
9.29531e-10
5.00633e-06
7.33537e-10
5.0068e-06
3.60269e-10
5.00681e-06
-1.41337e-10
5.00608e-06
-6.25739e-10
5.00479e-06
-1.08628e-09
5.00315e-06
-1.42083e-09
5.00148e-06
-1.49294e-09
5.00002e-06
-1.43237e-09
4.99889e-06
-1.18454e-09
4.99792e-06
-1.13304e-09
4.99706e-06
-9.74944e-10
-1.42477e-09
5.00012e-06
5.00042e-06
5.00091e-06
5.00158e-06
5.00242e-06
5.00336e-06
5.00436e-06
5.0053e-06
5.00603e-06
5.00639e-06
5.00625e-06
5.00562e-06
5.00453e-06
5.00311e-06
5.0016e-06
5.00017e-06
4.99898e-06
4.99785e-06
4.99687e-06
)
;

boundaryField
{
    sides
    {
        type            calculated;
        value           uniform 0;
    }
    inlet
    {
        type            calculated;
        value           nonuniform List<scalar> 
20
(
-5e-06
-5e-06
-5e-06
-5e-06
-5e-06
-5e-06
-5e-06
-5e-06
-5e-06
-5e-06
-5e-06
-5e-06
-5e-06
-5e-06
-5e-06
-5e-06
-5e-06
-5e-06
-5e-06
-5e-06
)
;
    }
    outlet
    {
        type            calculated;
        value           nonuniform List<scalar> 
20
(
5.0019e-06
5.00141e-06
5.00152e-06
5.00143e-06
5.00172e-06
5.002e-06
5.00279e-06
5.00422e-06
5.00344e-06
4.99514e-06
4.99475e-06
5.00265e-06
5.00275e-06
5.00064e-06
4.99935e-06
4.99837e-06
4.9975e-06
4.99679e-06
4.99621e-06
4.99544e-06
)
;
    }
    frontAndBack
    {
        type            empty;
        value           nonuniform List<scalar> 0();
    }
}


// ************************************************************************* //
