/*--------------------------------*- C++ -*----------------------------------*\
  =========                 |
  \\      /  F ield         | OpenFOAM: The Open Source CFD Toolbox
   \\    /   O peration     | Website:  https://openfoam.org
    \\  /    A nd           | Version:  9
     \\/     M anipulation  |
\*---------------------------------------------------------------------------*/
FoamFile
{
    format      ascii;
    class       volVectorField;
    location    "89";
    object      U;
}
// * * * * * * * * * * * * * * * * * * * * * * * * * * * * * * * * * * * * * //

dimensions      [0 1 -1 0 0 0 0];

internalField   nonuniform List<vector> 
400
(
(0.0999964 -2.41346e-06 0)
(0.100001 -7.05263e-06 0)
(0.100009 -1.13197e-05 0)
(0.100023 -1.52468e-05 0)
(0.10004 -1.87428e-05 0)
(0.100061 -2.16639e-05 0)
(0.100083 -2.3674e-05 0)
(0.100107 -2.45029e-05 0)
(0.100128 -2.36032e-05 0)
(0.100144 -2.1092e-05 0)
(0.100152 -1.68131e-05 0)
(0.100152 -1.28474e-05 0)
(0.10014 -9.90563e-06 0)
(0.10012 -9.33263e-06 0)
(0.100093 -9.98726e-06 0)
(0.100068 -1.35599e-05 0)
(0.100045 -1.56483e-05 0)
(0.100034 -2.01195e-05 0)
(0.100025 -1.88701e-05 0)
(0.100033 -2.68454e-05 0)
(0.099997 -2.66102e-06 0)
(0.100002 -7.87716e-06 0)
(0.100011 -1.28203e-05 0)
(0.100025 -1.74302e-05 0)
(0.100044 -2.13485e-05 0)
(0.100066 -2.40019e-05 0)
(0.100091 -2.45391e-05 0)
(0.100117 -2.19776e-05 0)
(0.100141 -1.53974e-05 0)
(0.100161 -4.72409e-06 0)
(0.100171 9.41292e-06 0)
(0.100169 2.4758e-05 0)
(0.100154 3.89316e-05 0)
(0.100129 4.76206e-05 0)
(0.1001 5.04718e-05 0)
(0.100071 4.52012e-05 0)
(0.10005 3.78732e-05 0)
(0.100037 2.57281e-05 0)
(0.100033 2.0547e-05 0)
(0.100029 8.11694e-06 0)
(0.0999968 -5.26765e-06 0)
(0.100002 -1.59057e-05 0)
(0.100011 -2.66974e-05 0)
(0.100025 -3.73921e-05 0)
(0.100044 -4.73446e-05 0)
(0.100068 -5.55178e-05 0)
(0.100096 -6.0326e-05 0)
(0.100127 -5.97301e-05 0)
(0.100156 -5.1775e-05 0)
(0.10018 -3.51514e-05 0)
(0.100193 -1.1024e-05 0)
(0.100192 1.62377e-05 0)
(0.100174 4.01309e-05 0)
(0.100142 5.1955e-05 0)
(0.100102 4.99433e-05 0)
(0.100066 3.54256e-05 0)
(0.100038 2.03602e-05 0)
(0.100026 4.62607e-06 0)
(0.100021 -3.17607e-07 0)
(0.100029 -1.17065e-05 0)
(0.0999963 -7.37463e-06 0)
(0.100001 -2.2249e-05 0)
(0.10001 -3.75177e-05 0)
(0.100025 -5.30478e-05 0)
(0.100046 -6.80298e-05 0)
(0.100073 -8.09922e-05 0)
(0.100107 -8.89337e-05 0)
(0.100146 -8.85752e-05 0)
(0.100186 -7.55943e-05 0)
(0.100222 -4.7543e-05 0)
(0.100243 -2.3384e-06 0)
(0.10024 4.91695e-05 0)
(0.100211 9.36351e-05 0)
(0.100159 0.000113934 0)
(0.100104 0.000105491 0)
(0.100061 7.43807e-05 0)
(0.100041 4.24345e-05 0)
(0.100035 1.69896e-05 0)
(0.10004 1.01734e-05 0)
(0.100035 3.38991e-08 0)
(0.0999953 -9.11727e-06 0)
(0.0999994 -2.78247e-05 0)
(0.100008 -4.77212e-05 0)
(0.100023 -6.93741e-05 0)
(0.100045 -9.20491e-05 0)
(0.100076 -0.000113969 0)
(0.100117 -0.000129955 0)
(0.100168 -0.000133808 0)
(0.100225 -0.000117581 0)
(0.100281 -7.8043e-05 0)
(0.100318 -1.70413e-05 0)
(0.100316 5.78016e-05 0)
(0.100267 0.000122993 0)
(0.100182 0.000151169 0)
(0.100091 0.000137566 0)
(0.100029 9.65334e-05 0)
(0.10001 5.81831e-05 0)
(0.100019 3.14211e-05 0)
(0.100036 2.6191e-05 0)
(0.100043 1.67866e-05 0)
(0.0999939 -1.03462e-05 0)
(0.0999968 -3.18716e-05 0)
(0.100003 -5.62108e-05 0)
(0.100015 -8.44356e-05 0)
(0.100036 -0.000117289 0)
(0.10007 -0.000152585 0)
(0.100122 -0.000186024 0)
(0.100193 -0.000205502 0)
(0.100277 -0.000191389 0)
(0.100357 -0.000120092 0)
(0.100414 8.37503e-06 0)
(0.100415 0.000154501 0)
(0.100339 0.000243343 0)
(0.100208 0.000230436 0)
(0.100085 0.000143035 0)
(0.100015 4.9291e-05 0)
(0.100012 1.35206e-06 0)
(0.100035 -8.54304e-06 0)
(0.100065 6.00861e-06 0)
(0.100055 4.99759e-06 0)
(0.0999923 -1.02599e-05 0)
(0.0999928 -3.33558e-05 0)
(0.0999948 -6.01749e-05 0)
(0.100001 -9.61865e-05 0)
(0.100016 -0.000139287 0)
(0.100046 -0.000194713 0)
(0.100103 -0.000249015 0)
(0.100202 -0.000308507 0)
(0.100349 -0.000323579 0)
(0.100519 -0.000287899 0)
(0.100632 -6.76024e-05 0)
(0.10059 0.000255521 0)
(0.100383 0.000483008 0)
(0.100118 0.000473646 0)
(0.099948 0.000302786 0)
(0.099922 0.000126405 0)
(0.0999926 4.31233e-05 0)
(0.100056 3.26596e-05 0)
(0.100095 5.62057e-05 0)
(0.100067 5.34007e-05 0)
(0.0999905 -9.24042e-06 0)
(0.0999873 -2.88706e-05 0)
(0.0999806 -5.76892e-05 0)
(0.0999769 -9.56933e-05 0)
(0.0999774 -0.000157793 0)
(0.100001 -0.000234526 0)
(0.100047 -0.000340292 0)
(0.10016 -0.000412532 0)
(0.100335 -0.000437167 0)
(0.100658 -0.000255151 0)
(0.101006 7.59711e-05 0)
(0.101014 0.000427129 0)
(0.100606 0.000472206 0)
(0.100072 0.000278362 0)
(0.0997821 7.3529e-05 0)
(0.0997969 -2.74786e-05 0)
(0.0999672 -2.86061e-05 0)
(0.100089 -9.90735e-07 0)
(0.100138 2.12004e-05 0)
(0.100087 1.02871e-05 0)
(0.0999894 -4.89887e-06 0)
(0.0999805 -2.03736e-05 0)
(0.0999628 -3.86565e-05 0)
(0.0999377 -7.35197e-05 0)
(0.0999106 -0.000133863 0)
(0.0999019 -0.000248094 0)
(0.0999568 -0.000468717 0)
(0.100145 -0.000806939 0)
(0.100536 -0.001329 0)
(0.101062 -0.00149289 0)
(0.101323 0.000385188 0)
(0.100996 0.00187491 0)
(0.100241 0.00157854 0)
(0.0997201 0.000574046 0)
(0.0996445 -3.16091e-05 0)
(0.099822 -0.000126387 0)
(0.100024 -9.49399e-06 0)
(0.100107 6.34297e-05 0)
(0.100113 6.51671e-05 0)
(0.100055 2.43679e-05 0)
(0.0999703 -1.96231e-06 0)
(0.100006 -6.66422e-06 0)
(0.0999077 -1.51504e-05 0)
(0.0999716 -2.48754e-05 0)
(0.0997258 -5.92048e-05 0)
(0.0998441 -0.000113073 0)
(0.0992765 -0.000288211 0)
(0.0996752 -0.00055895 0)
(0.0991183 -0.00115384 0)
(0.102003 -0.00141492 0)
(0.10628 3.02274e-05 0)
(0.101267 0.00146749 0)
(0.0990079 0.0013075 0)
(0.0982224 0.000513181 0)
(0.0988553 1.93548e-05 0)
(0.0996052 -7.81914e-05 0)
(0.0999352 -1.12085e-05 0)
(0.0999522 2.47864e-05 0)
(0.099867 1.73917e-05 0)
(0.099849 -1.85049e-05 0)
(0.0999709 1.30752e-06 0)
(0.100006 4.5892e-06 0)
(0.0999083 1.17408e-05 0)
(0.0999722 2.00126e-05 0)
(0.0997262 5.29465e-05 0)
(0.0998441 0.000105094 0)
(0.0992762 0.000278455 0)
(0.0996744 0.000546889 0)
(0.0991172 0.001139 0)
(0.102001 0.0013976 0)
(0.106277 -5.2181e-05 0)
(0.101265 -0.00149391 0)
(0.0990077 -0.00133971 0)
(0.098222 -0.0005526 0)
(0.0988538 -6.47687e-05 0)
(0.0996016 2.47874e-05 0)
(0.0999311 -4.72865e-05 0)
(0.0999479 -0.000100281 0)
(0.0998659 -9.88901e-05 0)
(0.0998442 -8.88797e-05 0)
(0.0999914 4.25178e-06 0)
(0.0999825 1.83885e-05 0)
(0.0999648 3.53465e-05 0)
(0.0999397 6.87563e-05 0)
(0.0999124 0.000127652 0)
(0.0999038 0.000240071 0)
(0.0999582 0.000458851 0)
(0.100146 0.000794409 0)
(0.100537 0.00131384 0)
(0.101064 0.00147314 0)
(0.101325 -0.000407936 0)
(0.100995 -0.00190299 0)
(0.100235 -0.00161013 0)
(0.0997121 -0.00061211 0)
(0.0996386 -8.39279e-06 0)
(0.0998173 7.75741e-05 0)
(0.100015 -4.26984e-05 0)
(0.100092 -0.000130507 0)
(0.100093 -0.000137934 0)
(0.100038 -0.000125081 0)
(0.0999938 8.61518e-06 0)
(0.0999906 2.70108e-05 0)
(0.0999838 5.44926e-05 0)
(0.0999798 9.10388e-05 0)
(0.0999798 0.000151367 0)
(0.100003 0.000226097 0)
(0.100048 0.000329381 0)
(0.100159 0.000399297 0)
(0.100332 0.000421363 0)
(0.100654 0.000236497 0)
(0.101 -9.8838e-05 0)
(0.101008 -0.000454854 0)
(0.100601 -0.000502402 0)
(0.100067 -0.000312981 0)
(0.0997751 -0.000113048 0)
(0.0997847 -2.50599e-05 0)
(0.099951 -3.22143e-05 0)
(0.100066 -7.4108e-05 0)
(0.100112 -9.66907e-05 0)
(0.100057 -0.000107383 0)
(0.0999971 9.67371e-06 0)
(0.0999974 3.15743e-05 0)
(0.0999992 5.71594e-05 0)
(0.100005 9.17483e-05 0)
(0.100019 0.00013337 0)
(0.100049 0.000187093 0)
(0.100105 0.000239903 0)
(0.100203 0.000297645 0)
(0.10035 0.000311414 0)
(0.100519 0.000273477 0)
(0.100631 5.14997e-05 0)
(0.100586 -0.000275128 0)
(0.100375 -0.00050779 0)
(0.100105 -0.00050698 0)
(0.0999305 -0.00034484 0)
(0.0998989 -0.00017938 0)
(0.0999681 -0.000102084 0)
(0.100026 -0.000105889 0)
(0.100065 -0.000130683 0)
(0.100025 -0.000151548 0)
(0.1 9.82305e-06 0)
(0.100003 3.02667e-05 0)
(0.100009 5.3524e-05 0)
(0.10002 8.05449e-05 0)
(0.10004 0.000112161 0)
(0.100073 0.000145988 0)
(0.100124 0.000177879 0)
(0.100194 0.000195133 0)
(0.100276 0.000178376 0)
(0.100353 0.000103694 0)
(0.100407 -2.76626e-05 0)
(0.100405 -0.00017802 0)
(0.100326 -0.000270867 0)
(0.10019 -0.000263089 0)
(0.100064 -0.000177904 0)
(0.099989 -8.95916e-05 0)
(0.0999835 -4.27589e-05 0)
(0.0999983 -4.47992e-05 0)
(0.100024 -6.16284e-05 0)
(0.100002 -8.48583e-05 0)
(0.100003 8.65204e-06 0)
(0.100007 2.64271e-05 0)
(0.100015 4.53858e-05 0)
(0.100029 6.61128e-05 0)
(0.10005 8.77665e-05 0)
(0.10008 0.000108508 0)
(0.10012 0.000123079 0)
(0.10017 0.000125312 0)
(0.100225 0.000107333 0)
(0.100279 6.57126e-05 0)
(0.100315 1.80607e-06 0)
(0.100309 -7.69807e-05 0)
(0.100256 -0.000144982 0)
(0.100166 -0.000177495 0)
(0.100072 -0.000166914 0)
(0.100003 -0.00013492 0)
(0.0999792 -0.000102986 0)
(0.0999768 -9.36931e-05 0)
(0.0999895 -9.45219e-05 0)
(0.0999776 -0.000110851 0)
(0.100005 6.96567e-06 0)
(0.10001 2.10016e-05 0)
(0.100019 3.5395e-05 0)
(0.100033 5.00985e-05 0)
(0.100053 6.43688e-05 0)
(0.100079 7.6587e-05 0)
(0.100111 8.38184e-05 0)
(0.100148 8.26336e-05 0)
(0.100186 6.91152e-05 0)
(0.100218 4.05872e-05 0)
(0.100235 -4.74559e-06 0)
(0.100228 -5.76373e-05 0)
(0.100195 -0.000103614 0)
(0.100139 -0.000128207 0)
(0.100077 -0.000123033 0)
(0.100023 -9.94852e-05 0)
(0.0999952 -7.01943e-05 0)
(0.0999764 -5.56262e-05 0)
(0.099977 -4.86796e-05 0)
(0.099957 -5.98216e-05 0)
(0.100007 5.06101e-06 0)
(0.100012 1.50262e-05 0)
(0.100021 2.47062e-05 0)
(0.100034 3.38588e-05 0)
(0.100053 4.20876e-05 0)
(0.100076 4.82567e-05 0)
(0.100103 5.08419e-05 0)
(0.100131 4.73624e-05 0)
(0.100159 3.61785e-05 0)
(0.100182 1.55959e-05 0)
(0.100193 -1.16776e-05 0)
(0.100186 -4.21175e-05 0)
(0.100162 -6.81485e-05 0)
(0.100122 -8.4197e-05 0)
(0.100078 -8.4977e-05 0)
(0.100032 -7.70392e-05 0)
(0.100001 -6.37346e-05 0)
(0.0999728 -5.95786e-05 0)
(0.099965 -5.6064e-05 0)
(0.0999397 -6.8442e-05 0)
(0.100009 3.46157e-06 0)
(0.100013 1.05032e-05 0)
(0.100021 1.74985e-05 0)
(0.100034 2.41812e-05 0)
(0.100051 3.01503e-05 0)
(0.100071 3.48597e-05 0)
(0.100094 3.7445e-05 0)
(0.100117 3.68656e-05 0)
(0.100138 3.20178e-05 0)
(0.100153 2.24415e-05 0)
(0.10016 8.63011e-06 0)
(0.100155 -7.02255e-06 0)
(0.100137 -2.05451e-05 0)
(0.100105 -2.96107e-05 0)
(0.100068 -3.11063e-05 0)
(0.100027 -2.80917e-05 0)
(0.0999973 -2.0204e-05 0)
(0.0999659 -1.68005e-05 0)
(0.0999542 -1.17905e-05 0)
(0.0999258 -1.98059e-05 0)
(0.10001 -4.11137e-07 0)
(0.100015 -9.80501e-07 0)
(0.100023 -1.27327e-06 0)
(0.100036 -1.46881e-06 0)
(0.100053 -1.74147e-06 0)
(0.100072 -2.34811e-06 0)
(0.100094 -3.43254e-06 0)
(0.100115 -5.37008e-06 0)
(0.100134 -8.17974e-06 0)
(0.100147 -1.22165e-05 0)
(0.100152 -1.69965e-05 0)
(0.100145 -2.31283e-05 0)
(0.100129 -2.90195e-05 0)
(0.1001 -3.40652e-05 0)
(0.100069 -3.58997e-05 0)
(0.10003 -3.6754e-05 0)
(0.100003 -3.42158e-05 0)
(0.099967 -3.52662e-05 0)
(0.0999558 -3.2772e-05 0)
(0.0999144 -4.10506e-05 0)
)
;

boundaryField
{
    sides
    {
        type            calculated;
        value           nonuniform List<vector> 
40
(
(0.10001 0 0)
(0.100015 0 0)
(0.100023 0 0)
(0.100036 0 0)
(0.100053 0 0)
(0.100072 0 0)
(0.100094 0 0)
(0.100115 0 0)
(0.100134 0 0)
(0.100147 0 0)
(0.100152 0 0)
(0.100145 0 0)
(0.100129 0 0)
(0.1001 0 0)
(0.100069 0 0)
(0.10003 0 0)
(0.100003 0 0)
(0.099967 0 0)
(0.0999558 0 0)
(0.0999144 0 0)
(0.0999964 0 0)
(0.100001 0 0)
(0.100009 0 0)
(0.100023 0 0)
(0.10004 0 0)
(0.100061 0 0)
(0.100083 0 0)
(0.100107 0 0)
(0.100128 0 0)
(0.100144 0 0)
(0.100152 0 0)
(0.100152 0 0)
(0.10014 0 0)
(0.10012 0 0)
(0.100093 0 0)
(0.100068 0 0)
(0.100045 0 0)
(0.100034 0 0)
(0.100025 0 0)
(0.100033 0 0)
)
;
    }
    inlet
    {
        type            calculated;
        value           nonuniform List<vector> 
20
(
(0.0999963 0 0)
(0.0999968 0 0)
(0.0999966 0 0)
(0.0999961 0 0)
(0.0999951 0 0)
(0.0999938 0 0)
(0.0999923 0 0)
(0.0999909 0 0)
(0.0999899 0 0)
(0.0999899 0 0)
(0.0999905 0 0)
(0.0999919 0 0)
(0.0999943 0 0)
(0.099997 0 0)
(0.0999999 0 0)
(0.100003 0 0)
(0.100005 0 0)
(0.100007 0 0)
(0.100009 0 0)
(0.10001 0 0)
)
;
    }
    outlet
    {
        type            calculated;
        value           nonuniform List<vector> 
20
(
(0.100033 -2.68455e-05 0)
(0.100029 8.11693e-06 0)
(0.10003 -1.17066e-05 0)
(0.100035 3.3899e-08 0)
(0.100043 1.67866e-05 0)
(0.100055 4.99755e-06 0)
(0.100066 5.34e-05 0)
(0.100085 1.02869e-05 0)
(0.100054 2.43676e-05 0)
(0.0998504 -1.85052e-05 0)
(0.0998455 -8.88808e-05 0)
(0.100037 -0.00012508 0)
(0.100055 -0.000107381 0)
(0.100024 -0.000151545 0)
(0.100001 -8.48573e-05 0)
(0.0999769 -0.00011085 0)
(0.0999562 -5.98211e-05 0)
(0.0999388 -6.84414e-05 0)
(0.0999249 -1.98057e-05 0)
(0.099913 -4.105e-05 0)
)
;
    }
    frontAndBack
    {
        type            empty;
    }
}


// ************************************************************************* //
