/*--------------------------------*- C++ -*----------------------------------*\
  =========                 |
  \\      /  F ield         | OpenFOAM: The Open Source CFD Toolbox
   \\    /   O peration     | Website:  https://openfoam.org
    \\  /    A nd           | Version:  9
     \\/     M anipulation  |
\*---------------------------------------------------------------------------*/
FoamFile
{
    format      ascii;
    class       surfaceScalarField;
    location    "25";
    object      ddtCorrDdt0(phi);
}
// * * * * * * * * * * * * * * * * * * * * * * * * * * * * * * * * * * * * * //

dimensions      [0 4 -2 0 0 0 0];

internalField   nonuniform List<scalar> 
760
(
4.39547e-10
3.37002e-10
5.14877e-10
1.07159e-09
8.67199e-10
1.00028e-09
1.53298e-09
4.07307e-10
2.04418e-09
9.80411e-12
1.89532e-09
1.00576e-10
1.20003e-09
3.15666e-10
5.41523e-10
2.90911e-10
3.50265e-10
1.74844e-11
4.84537e-10
-1.81763e-10
6.61401e-10
-3.41681e-11
5.76938e-10
-3.69057e-11
1.78365e-10
1.04564e-10
-4.59997e-10
3.26537e-11
-1.04238e-09
-2.05105e-10
-1.13408e-09
-4.52535e-10
-1.0428e-09
-4.59533e-10
-1.12742e-09
5.86241e-12
-1.40994e-09
1.59696e-10
2.38284e-11
3.42679e-10
8.05412e-10
5.16896e-10
2.05568e-09
8.31546e-10
1.82252e-09
1.42658e-09
6.66209e-10
1.92905e-09
-5.57128e-11
1.81476e-09
1.23271e-10
1.19337e-09
5.83402e-10
5.66418e-10
5.50278e-10
3.66888e-10
8.32591e-11
4.58471e-10
-3.0643e-10
5.72891e-10
-3.61236e-10
4.96141e-10
-3.29158e-11
1.24463e-10
3.20814e-10
-4.58438e-10
1.69762e-10
-1.00398e-09
-3.18068e-10
-1.16928e-09
-7.35232e-10
-1.11468e-09
-7.63937e-10
-1.18172e-09
1.84662e-12
-1.3381e-09
3.49469e-10
-2.53675e-12
4.02129e-10
1.12321e-09
5.08877e-10
2.74602e-09
7.76419e-10
2.46007e-09
1.31041e-09
9.23304e-10
1.67637e-09
-1.36181e-10
1.62555e-09
9.50258e-11
1.17614e-09
7.73733e-10
6.7334e-10
7.34384e-10
4.54363e-10
2.63316e-10
4.20022e-10
-3.15037e-10
4.92477e-10
-1.36143e-10
4.2686e-10
1.90702e-10
-2.63495e-11
5.80733e-10
-5.55359e-10
4.41636e-10
-9.84035e-10
-2.7771e-10
-1.10191e-09
-9.9788e-10
-1.0128e-09
-1.0531e-09
-1.07183e-09
4.54714e-11
-1.3684e-09
6.52118e-10
1.61949e-11
3.31981e-10
1.23577e-09
4.63915e-10
3.16017e-09
7.16218e-10
2.78608e-09
1.07421e-09
8.90192e-10
1.3441e-09
-3.22808e-10
1.4187e-09
5.99198e-11
1.08861e-09
8.43012e-10
8.5496e-10
9.80449e-10
4.57085e-10
3.05978e-10
5.84195e-10
-1.88805e-10
2.35845e-10
-2.52214e-10
2.34105e-10
5.20834e-10
-8.44156e-11
8.35292e-10
-6.22002e-10
6.10191e-10
-9.44369e-10
-8.27437e-11
-1.17353e-09
-9.61784e-10
-1.29219e-09
-1.08455e-09
-1.28208e-09
9.78513e-11
-1.16075e-09
6.65319e-10
4.83623e-11
2.5489e-10
1.24767e-09
4.0712e-10
3.24617e-09
5.75591e-10
2.79367e-09
8.0396e-10
7.84486e-10
1.0002e-09
-4.8141e-10
1.09962e-09
-6.92363e-11
1.10632e-09
8.70188e-10
9.75468e-10
1.06845e-09
5.87152e-10
2.94972e-10
4.20754e-10
1.00989e-11
3.22107e-10
1.22639e-11
-9.96699e-11
5.1827e-10
-2.49152e-10
1.26211e-09
-6.37899e-10
8.88104e-10
-1.02665e-09
-4.19202e-11
-1.1375e-09
-9.57815e-10
-1.12305e-09
-1.07854e-09
-1.19071e-09
2.7395e-10
-1.29047e-09
9.14605e-10
9.20088e-11
1.3969e-10
1.13481e-09
2.69151e-10
3.00561e-09
3.97846e-10
2.55538e-09
5.17555e-10
6.23614e-10
6.34808e-10
-6.04021e-10
8.212e-10
-1.89701e-10
1.12406e-09
7.85037e-10
9.5324e-10
8.73199e-10
1.01312e-09
5.5439e-10
2.44923e-10
-2.74318e-10
1.50323e-10
5.86471e-10
-2.59982e-10
6.28556e-10
-5.81356e-10
1.11207e-09
-6.40176e-10
1.02421e-09
-8.76228e-10
1.70487e-10
-1.18614e-09
-7.0831e-10
-1.36764e-09
-9.07047e-10
-1.30044e-09
2.99958e-10
-1.19466e-09
8.41272e-10
7.7584e-11
-4.82201e-12
9.1554e-10
1.23021e-10
2.48279e-09
2.1369e-10
2.0672e-09
1.93809e-10
3.91228e-10
2.45861e-10
-6.6838e-10
6.08134e-10
-2.68371e-10
9.92533e-10
5.67771e-10
1.16904e-09
8.53964e-10
7.76875e-10
3.01769e-10
7.41042e-10
2.15024e-10
-5.73746e-10
1.79154e-09
-3.39421e-10
1.25559e-09
-6.35687e-10
1.24873e-09
-8.52147e-10
9.39697e-10
-9.09804e-10
2.13648e-10
-1.15349e-09
-5.36306e-10
-1.34713e-09
-1.31533e-09
-1.37443e-09
2.13297e-10
-1.3063e-09
7.42394e-10
7.56182e-11
-1.64499e-10
6.6113e-10
-3.03764e-11
1.79918e-09
1.56105e-11
1.45319e-09
-9.87192e-11
1.95679e-10
-3.96956e-11
-5.94976e-10
3.80712e-10
-3.06918e-10
1.05008e-09
3.42343e-10
1.2919e-09
4.53204e-10
8.72682e-10
4.75072e-10
2.52215e-09
3.80182e-10
-2.10623e-09
-6.34896e-08
-1.20997e-09
-5.19952e-11
-8.76615e-10
1.08346e-09
-8.14709e-10
8.48537e-10
-9.51517e-10
2.80288e-10
-1.18874e-09
-3.81408e-10
-1.30756e-09
-4.67518e-10
-1.3931e-09
1.43311e-10
-1.29219e-09
5.03734e-10
4.56068e-11
-2.82262e-10
3.40062e-10
-1.63914e-10
9.84945e-10
-1.35089e-10
7.6309e-10
-3.18074e-10
6.97009e-11
-2.47432e-10
-3.44064e-10
2.39015e-10
-2.36773e-10
9.02181e-10
1.18534e-10
1.40388e-09
2.28671e-10
1.33739e-09
-5.81727e-11
-1.71345e-09
2.06593e-10
1.40412e-09
1.78198e-09
-4.68463e-10
8.99865e-10
-1.04856e-09
5.77308e-10
-9.81902e-10
3.91738e-10
-9.79583e-10
2.16859e-10
-1.11131e-09
-2.04294e-10
-1.33457e-09
-6.23284e-10
-1.39733e-09
1.63042e-11
-1.32115e-09
1.30936e-10
1.00701e-11
-3.97104e-10
6.22518e-11
-2.57845e-10
5.60022e-11
-2.27392e-10
2.62485e-11
-4.08895e-10
-6.38522e-12
-3.87742e-10
-4.80756e-11
1.64292e-10
-1.24625e-10
9.80621e-10
-1.61744e-10
1.36129e-09
-1.9169e-10
1.19292e-09
-4.93115e-11
3.66737e-11
-3.28258e-10
2.91465e-11
5.87817e-10
-1.06895e-09
5.37607e-11
-1.17947e-09
2.2466e-11
-1.07467e-09
6.76386e-11
-9.21883e-10
8.50137e-12
-1.03083e-09
-6.02838e-11
-1.31256e-09
-1.09012e-10
-1.3987e-09
-1.157e-10
-1.38464e-09
-2.09649e-10
-1.07995e-10
-4.12987e-10
-3.52491e-10
-2.61214e-10
-9.08537e-10
-2.34692e-10
-7.29387e-10
-4.07542e-10
-7.90401e-11
-4.17824e-10
2.60689e-10
1.62736e-10
-3.14952e-11
9.55142e-10
-4.47276e-10
1.4109e-09
-4.9911e-10
9.03339e-10
-3.87588e-10
7.84241e-10
2.86467e-10
-5.49951e-10
-2.29631e-09
-1.19164e-09
-2.11316e-10
-1.10654e-09
-1.3851e-10
-1.06819e-09
-2.54853e-10
-9.01494e-10
-1.54879e-10
-1.02498e-09
9.56595e-11
-1.34042e-09
1.13813e-10
-1.40239e-09
-2.7264e-10
-1.34663e-09
-5.14564e-10
-1.52149e-10
-2.73955e-10
-6.45204e-10
-1.47661e-10
-1.76427e-09
-1.07843e-10
-1.44384e-09
-2.80643e-10
-2.15171e-10
-2.9844e-10
4.55538e-10
2.56321e-10
7.75569e-11
9.5975e-10
-6.60772e-10
1.21427e-09
-7.96522e-10
1.26706e-09
-3.79066e-10
-1.83873e-09
-5.54571e-10
9.48719e-10
5.56108e-08
-8.74004e-10
-7.49818e-10
-1.14229e-09
-7.31571e-10
-8.90065e-10
-5.77461e-10
-8.09227e-10
-1.69165e-10
-1.04061e-09
-2.41265e-10
-1.38334e-09
3.44465e-10
-1.4269e-09
-3.9211e-10
-1.32158e-09
-7.95918e-10
-1.93654e-10
-1.76195e-10
-9.62698e-10
1.81437e-12
-2.50774e-09
6.83798e-11
-2.07191e-09
-8.18703e-11
-4.43454e-10
-9.2542e-11
5.24063e-10
3.63733e-10
8.68956e-11
1.02156e-09
-8.84237e-10
1.33678e-09
-1.19217e-09
8.92628e-10
-6.54888e-10
2.65272e-09
2.32281e-10
-1.94208e-09
-3.0092e-09
-7.15129e-10
-4.11659e-10
-8.30796e-10
-8.84564e-10
-8.25997e-10
-7.559e-10
-8.9936e-10
-1.6027e-10
-1.12425e-09
4.49644e-10
-1.34047e-09
4.88267e-10
-1.39507e-09
-4.38284e-10
-1.33499e-09
-9.9506e-10
-2.15925e-10
-6.70519e-14
-1.16972e-09
1.89523e-10
-3.02154e-09
2.59218e-10
-2.55878e-09
1.83598e-10
-6.5457e-10
2.55646e-10
4.87701e-10
5.6425e-10
-2.97451e-11
9.70599e-10
-1.02226e-09
1.158e-09
-1.24343e-09
9.46563e-10
-6.90258e-10
-3.48259e-11
-1.94214e-10
1.67157e-10
3.22858e-10
-3.21796e-10
-4.68929e-10
-6.32062e-10
-9.43646e-10
-8.05381e-10
-8.06132e-10
-9.48367e-10
-1.24984e-10
-1.1229e-09
6.35186e-10
-1.31994e-09
7.05503e-10
-1.34069e-09
-4.6084e-10
-1.32825e-09
-1.10564e-09
-2.20864e-10
1.70172e-10
-1.26137e-09
3.52059e-10
-3.2672e-09
4.57676e-10
-2.85094e-09
4.98131e-10
-8.96767e-10
6.30455e-10
3.24499e-10
8.12317e-10
-1.24597e-10
9.76838e-10
-1.08824e-09
1.05885e-09
-1.19302e-09
7.9316e-10
-5.8741e-10
3.89738e-10
9.54998e-11
4.79685e-11
1.26159e-10
-2.63648e-10
-3.86915e-10
-4.66608e-10
-9.06706e-10
-6.99238e-10
-7.49762e-10
-9.10437e-10
4.56161e-11
-1.11871e-09
8.72632e-10
-1.24965e-09
8.77697e-10
-1.29249e-09
-4.16397e-10
-1.33259e-09
-1.10756e-09
-2.02784e-10
3.04892e-10
-1.30421e-09
4.55531e-10
-3.2412e-09
6.34831e-10
-2.87519e-09
8.32041e-10
-1.06378e-09
1.03944e-09
1.10051e-10
1.09502e-09
-2.6667e-10
1.04497e-09
-1.05604e-09
8.3494e-10
-1.07605e-09
6.16289e-10
-3.2869e-10
4.01416e-10
2.43191e-10
2.31677e-10
3.22827e-10
-1.06708e-11
-2.03828e-10
-2.58818e-10
-6.54234e-10
-5.74493e-10
-4.9011e-10
-9.13636e-10
2.0379e-10
-1.08788e-09
9.49594e-10
-1.14986e-09
9.55801e-10
-1.24068e-09
-2.81638e-10
-1.35528e-09
-9.79277e-10
-1.67484e-10
3.80034e-10
-1.14788e-09
5.08844e-10
-2.85672e-09
7.26981e-10
-2.53894e-09
1.1105e-09
-9.73297e-10
1.421e-09
1.15284e-11
1.42747e-09
-3.13847e-10
1.11374e-09
-9.49667e-10
7.48544e-10
-8.69441e-10
4.94072e-10
-1.91318e-10
3.80081e-10
4.23647e-10
4.17015e-10
4.20297e-10
2.29398e-10
3.81543e-11
-9.95797e-11
-3.46955e-10
-5.32573e-10
-2.79358e-10
-8.88337e-10
2.79154e-10
-1.09093e-09
9.22771e-10
-1.15887e-09
9.15757e-10
-1.23812e-09
-1.83531e-10
-1.36281e-09
-7.96634e-10
-1.31815e-10
3.81053e-10
-8.84206e-10
5.31263e-10
-2.096e-09
8.19654e-10
-1.90876e-09
1.33651e-09
-8.15442e-10
1.74158e-09
-6.9504e-11
1.70184e-09
-2.52216e-10
1.18259e-09
-7.04195e-10
6.29129e-10
-6.21815e-10
3.72466e-10
-9.07715e-11
4.33996e-10
3.62427e-10
4.48595e-10
4.3339e-10
3.9599e-10
1.20213e-10
4.66783e-11
-1.92218e-10
-4.5186e-10
-1.13686e-10
-8.9513e-10
3.14079e-10
-1.11188e-09
7.4459e-10
-1.13021e-09
7.00535e-10
-1.23213e-09
-1.09866e-10
-1.41244e-09
-5.52064e-10
-8.25388e-11
4.39578e-10
-6.12425e-10
5.05055e-10
-1.1365e-09
8.63577e-10
-9.75411e-10
1.52771e-09
-3.8793e-10
1.96371e-09
-3.51477e-11
1.84929e-09
-1.40175e-10
1.23933e-09
-4.09793e-10
6.05514e-10
-3.48672e-10
3.67633e-10
-4.43858e-11
4.21193e-10
2.23403e-10
5.96023e-10
2.15142e-10
5.1848e-10
1.08215e-10
9.47278e-11
-5.92192e-11
-4.79788e-10
-1.28126e-11
-9.56163e-10
1.97637e-10
-1.13555e-09
3.93931e-10
-1.10189e-09
3.60661e-10
-1.24194e-09
-4.18632e-11
-1.48655e-09
-2.66279e-10
-3.36889e-11
3.41837e-10
5.08229e-10
8.70577e-10
1.55835e-09
2.09198e-09
1.93026e-09
1.26579e-09
5.61454e-10
2.9782e-10
4.25408e-10
5.87268e-10
5.32231e-10
1.51103e-10
-4.50284e-10
-1.00326e-09
-1.20574e-09
-1.1242e-09
-1.23496e-09
-1.49391e-09
)
;

boundaryField
{
    sides
    {
        type            calculated;
        value           uniform 0;
    }
    inlet
    {
        type            calculated;
        value           uniform 0;
    }
    outlet
    {
        type            calculated;
        value           nonuniform List<scalar> 
20
(
-1.43218e-09
-1.31974e-09
-1.3864e-09
-1.12556e-09
-1.24273e-09
-1.19469e-09
-1.28264e-09
-1.36476e-09
-1.42976e-09
-1.46958e-09
-1.42175e-09
-1.37929e-09
-1.39029e-09
-1.3636e-09
-1.3669e-09
-1.40183e-09
-1.3889e-09
-1.42673e-09
-1.49427e-09
-1.51074e-09
)
;
    }
    frontAndBack
    {
        type            empty;
        value           nonuniform List<scalar> 0();
    }
}


// ************************************************************************* //
