/*--------------------------------*- C++ -*----------------------------------*\
  =========                 |
  \\      /  F ield         | OpenFOAM: The Open Source CFD Toolbox
   \\    /   O peration     | Website:  https://openfoam.org
    \\  /    A nd           | Version:  9
     \\/     M anipulation  |
\*---------------------------------------------------------------------------*/
FoamFile
{
    format      ascii;
    class       volScalarField;
    location    "25";
    object      h;
}
// * * * * * * * * * * * * * * * * * * * * * * * * * * * * * * * * * * * * * //

dimensions      [0 1 0 0 0 0 0];

internalField   nonuniform List<scalar> 
400
(
0.0100008
0.0100008
0.0100007
0.0100003
0.00999983
0.00999938
0.009999
0.00999871
0.00999853
0.0099984
0.00999833
0.00999831
0.00999836
0.00999851
0.00999877
0.00999909
0.00999941
0.00999968
0.00999985
0.00999997
0.0100007
0.0100006
0.0100005
0.0100002
0.0099997
0.00999926
0.00999888
0.00999857
0.00999834
0.00999819
0.0099981
0.0099981
0.00999819
0.00999839
0.00999868
0.00999902
0.00999933
0.00999957
0.00999976
0.00999992
0.0100005
0.0100005
0.0100004
0.0100001
0.00999965
0.00999923
0.00999883
0.00999848
0.0099982
0.00999799
0.00999788
0.00999787
0.00999801
0.00999829
0.00999869
0.00999912
0.00999948
0.00999973
0.00999987
0.00999995
0.0100004
0.0100004
0.0100003
0.00999999
0.00999962
0.00999921
0.00999878
0.00999834
0.00999792
0.00999758
0.00999738
0.0099974
0.00999769
0.00999819
0.00999876
0.00999924
0.00999953
0.00999967
0.00999976
0.00999989
0.0100003
0.0100003
0.0100002
0.00999997
0.00999966
0.00999926
0.00999877
0.00999818
0.00999758
0.009997
0.00999664
0.00999666
0.00999717
0.00999806
0.00999902
0.0099997
0.00999996
0.00999994
0.00999987
0.00999992
0.0100002
0.0100002
0.0100002
0.01
0.00999981
0.00999942
0.00999883
0.00999803
0.00999711
0.00999626
0.00999568
0.00999568
0.00999649
0.00999789
0.00999924
0.00999999
0.0100001
0.00999986
0.00999971
0.00999983
0.0100002
0.0100002
0.0100002
0.0100002
0.0100001
0.00999979
0.00999915
0.00999805
0.00999645
0.00999465
0.00999341
0.00999384
0.00999607
0.00999893
0.0100008
0.0100011
0.0100004
0.00999971
0.0099995
0.00999978
0.0100002
0.0100002
0.0100004
0.0100005
0.0100006
0.0100004
0.00999981
0.00999862
0.00999661
0.00999342
0.00998975
0.00998942
0.0099938
0.00999963
0.0100028
0.0100026
0.0100009
0.00999951
0.00999926
0.00999974
0.0100001
0.0100003
0.0100006
0.010001
0.0100014
0.0100015
0.0100009
0.00999881
0.00999466
0.00998883
0.00998576
0.00998891
0.00999731
0.0100031
0.0100039
0.010002
0.0099999
0.00999901
0.00999919
0.00999978
0.0100001
0.0100003
0.0100006
0.0100013
0.0100022
0.0100036
0.0100053
0.0100071
0.010004
0.00897749
0.00895144
0.00997494
0.010008
0.0100172
0.0100099
0.0100019
0.00999847
0.00999856
0.00999953
0.0100001
0.01
0.0100002
0.0100006
0.0100012
0.0100021
0.0100035
0.0100053
0.0100071
0.010004
0.00897746
0.00895143
0.00997488
0.010008
0.0100171
0.0100099
0.0100019
0.00999846
0.00999855
0.0099995
0.01
0.00999995
0.0100001
0.0100004
0.0100008
0.0100012
0.0100013
0.0100007
0.00999863
0.00999449
0.00998862
0.00998559
0.00998873
0.00999718
0.010003
0.0100038
0.0100019
0.00999981
0.00999899
0.00999921
0.0099998
0.00999983
0.00999991
0.0100001
0.0100002
0.0100003
0.0100001
0.00999952
0.00999835
0.00999634
0.00999322
0.0099895
0.00998921
0.00999356
0.00999936
0.0100026
0.0100024
0.0100007
0.00999943
0.00999923
0.00999973
0.00999973
0.00999975
0.00999978
0.00999978
0.00999967
0.00999937
0.00999875
0.00999765
0.00999604
0.00999424
0.00999303
0.00999349
0.00999573
0.00999862
0.0100006
0.0100009
0.0100002
0.00999956
0.0099994
0.00999974
0.00999965
0.00999964
0.0099996
0.00999948
0.00999925
0.00999888
0.0099983
0.00999752
0.0099966
0.00999577
0.00999523
0.00999523
0.00999608
0.0099975
0.00999888
0.00999968
0.00999983
0.00999966
0.00999959
0.0099998
0.00999961
0.00999958
0.00999949
0.00999929
0.00999898
0.00999859
0.00999811
0.00999755
0.00999695
0.00999639
0.00999602
0.00999607
0.0099966
0.00999752
0.00999853
0.00999926
0.0099996
0.00999966
0.00999968
0.00999985
0.00999959
0.00999957
0.00999945
0.00999919
0.00999882
0.00999841
0.00999799
0.00999756
0.00999716
0.00999684
0.00999668
0.00999672
0.00999703
0.00999758
0.00999823
0.00999881
0.0099992
0.00999944
0.00999962
0.00999984
0.00999959
0.00999958
0.00999945
0.00999913
0.00999872
0.00999829
0.00999789
0.00999755
0.00999727
0.00999706
0.00999696
0.00999699
0.00999719
0.00999754
0.00999801
0.0099985
0.00999894
0.00999929
0.00999957
0.00999984
0.00999959
0.00999959
0.00999945
0.00999911
0.00999867
0.00999823
0.00999784
0.00999755
0.00999734
0.00999721
0.00999714
0.00999716
0.00999729
0.00999755
0.00999793
0.00999837
0.00999881
0.0099992
0.00999954
0.00999984
0.00999952
0.00999952
0.00999939
0.00999902
0.00999855
0.0099981
0.00999772
0.00999744
0.00999725
0.00999715
0.0099971
0.00999713
0.00999724
0.00999745
0.00999778
0.00999819
0.00999863
0.00999904
0.00999943
0.00999979
)
;

boundaryField
{
    sides
    {
        type            zeroGradient;
    }
    inlet
    {
        type            zeroGradient;
    }
    outlet
    {
        type            fixedValue;
        value           uniform 0.01;
    }
    frontAndBack
    {
        type            empty;
    }
}


// ************************************************************************* //
