/*--------------------------------*- C++ -*----------------------------------*\
  =========                 |
  \\      /  F ield         | OpenFOAM: The Open Source CFD Toolbox
   \\    /   O peration     | Website:  https://openfoam.org
    \\  /    A nd           | Version:  9
     \\/     M anipulation  |
\*---------------------------------------------------------------------------*/
FoamFile
{
    format      ascii;
    class       volScalarField;
    location    "25";
    object      h_0;
}
// * * * * * * * * * * * * * * * * * * * * * * * * * * * * * * * * * * * * * //

dimensions      [0 1 0 0 0 0 0];

internalField   nonuniform List<scalar> 
400
(
0.0100007
0.0100007
0.0100007
0.0100004
0.00999992
0.00999944
0.009999
0.00999866
0.00999843
0.00999831
0.00999826
0.00999827
0.00999837
0.00999854
0.00999879
0.0099991
0.00999942
0.00999969
0.00999986
0.00999998
0.0100006
0.0100006
0.0100005
0.0100002
0.00999978
0.00999931
0.00999887
0.0099985
0.00999825
0.00999809
0.00999803
0.00999807
0.0099982
0.00999842
0.00999871
0.00999904
0.00999935
0.00999959
0.00999977
0.00999992
0.0100004
0.0100005
0.0100004
0.0100001
0.0099997
0.00999925
0.00999881
0.00999841
0.0099981
0.00999789
0.0099978
0.00999783
0.00999801
0.00999832
0.00999873
0.00999915
0.00999951
0.00999975
0.00999988
0.00999996
0.0100003
0.0100004
0.0100003
0.01
0.00999964
0.00999921
0.00999874
0.00999827
0.00999782
0.00999748
0.00999729
0.00999736
0.00999768
0.00999821
0.00999881
0.00999929
0.00999958
0.00999971
0.00999979
0.0099999
0.0100003
0.0100002
0.0100002
0.00999996
0.00999964
0.00999923
0.00999873
0.00999812
0.00999749
0.00999692
0.00999656
0.00999661
0.00999715
0.00999807
0.00999905
0.00999975
0.01
0.00999999
0.00999991
0.00999993
0.0100002
0.0100002
0.0100001
0.01
0.00999976
0.00999938
0.0099988
0.00999798
0.00999705
0.00999618
0.00999562
0.00999561
0.00999646
0.0099979
0.00999927
0.01
0.0100001
0.00999992
0.00999976
0.00999985
0.0100002
0.0100002
0.0100002
0.0100002
0.01
0.00999975
0.00999913
0.00999804
0.00999642
0.00999461
0.00999335
0.00999381
0.00999603
0.00999891
0.0100008
0.0100011
0.0100005
0.00999978
0.00999955
0.0099998
0.0100001
0.0100002
0.0100003
0.0100005
0.0100005
0.0100004
0.00999982
0.00999864
0.00999661
0.00999345
0.00998939
0.00998937
0.00999376
0.00999961
0.0100028
0.0100027
0.0100009
0.00999958
0.0099993
0.00999975
0.0100001
0.0100002
0.0100005
0.0100009
0.0100013
0.0100015
0.0100009
0.00999887
0.00999471
0.00998879
0.00998605
0.00998885
0.00999724
0.010003
0.0100039
0.010002
0.00999997
0.00999907
0.00999924
0.0099998
0.0100001
0.0100002
0.0100006
0.0100012
0.0100021
0.0100036
0.0100054
0.0100072
0.0100041
0.00897751
0.00895143
0.00997488
0.010008
0.0100171
0.0100099
0.0100019
0.00999852
0.00999862
0.00999957
0.0100001
0.01
0.0100002
0.0100005
0.0100011
0.010002
0.0100035
0.0100053
0.0100072
0.010004
0.00897751
0.00895137
0.00997485
0.0100079
0.0100171
0.0100099
0.0100019
0.00999851
0.00999861
0.00999955
0.01
0.00999994
0.01
0.0100003
0.0100007
0.0100011
0.0100013
0.0100007
0.00999868
0.00999454
0.00998862
0.00998583
0.00998867
0.00999713
0.010003
0.0100038
0.0100019
0.00999987
0.00999905
0.00999926
0.00999981
0.00999983
0.00999988
0.00999999
0.0100001
0.0100002
0.0100001
0.00999953
0.00999837
0.00999635
0.00999321
0.0099892
0.00998918
0.00999351
0.00999934
0.0100026
0.0100025
0.0100008
0.0099995
0.00999928
0.00999975
0.00999972
0.00999973
0.00999974
0.00999972
0.00999962
0.00999933
0.00999873
0.00999764
0.00999602
0.00999419
0.00999302
0.00999343
0.00999569
0.00999862
0.0100006
0.0100009
0.0100003
0.00999963
0.00999945
0.00999976
0.00999963
0.00999962
0.00999957
0.00999944
0.00999921
0.00999884
0.00999826
0.00999748
0.00999655
0.00999571
0.00999516
0.00999519
0.00999606
0.00999752
0.00999892
0.00999974
0.00999989
0.00999972
0.00999963
0.00999981
0.00999957
0.00999956
0.00999948
0.00999928
0.00999897
0.00999856
0.00999807
0.00999749
0.00999688
0.00999631
0.00999595
0.00999603
0.00999659
0.00999755
0.00999857
0.00999932
0.00999965
0.00999971
0.00999972
0.00999986
0.00999954
0.00999954
0.00999946
0.00999921
0.00999884
0.00999842
0.00999796
0.00999749
0.00999707
0.00999676
0.00999661
0.00999669
0.00999704
0.00999761
0.00999827
0.00999885
0.00999925
0.00999948
0.00999965
0.00999985
0.00999951
0.00999955
0.00999947
0.00999919
0.00999878
0.00999833
0.00999788
0.00999749
0.00999718
0.00999697
0.00999689
0.00999696
0.0099972
0.00999758
0.00999805
0.00999854
0.00999897
0.00999931
0.00999959
0.00999985
0.00999948
0.00999954
0.00999948
0.00999919
0.00999875
0.00999829
0.00999785
0.0099975
0.00999726
0.00999712
0.00999708
0.00999713
0.0099973
0.00999758
0.00999797
0.0099984
0.00999884
0.00999922
0.00999956
0.00999985
0.00999941
0.00999948
0.00999942
0.00999911
0.00999866
0.00999818
0.00999774
0.0099974
0.00999718
0.00999706
0.00999704
0.00999711
0.00999725
0.00999749
0.00999782
0.00999822
0.00999865
0.00999906
0.00999944
0.0099998
)
;

boundaryField
{
    sides
    {
        type            zeroGradient;
    }
    inlet
    {
        type            zeroGradient;
    }
    outlet
    {
        type            fixedValue;
        value           uniform 0.01;
    }
    frontAndBack
    {
        type            empty;
    }
}


// ************************************************************************* //
