/*--------------------------------*- C++ -*----------------------------------*\
  =========                 |
  \\      /  F ield         | OpenFOAM: The Open Source CFD Toolbox
   \\    /   O peration     | Website:  https://openfoam.org
    \\  /    A nd           | Version:  9
     \\/     M anipulation  |
\*---------------------------------------------------------------------------*/
FoamFile
{
    format      ascii;
    class       volVectorField;
    location    "25";
    object      hU;
}
// * * * * * * * * * * * * * * * * * * * * * * * * * * * * * * * * * * * * * //

dimensions      [0 2 -1 0 0 0 0];

internalField   nonuniform List<vector> 
400
(
(0.00100006 -5.38362e-09 0)
(0.000999973 -6.34111e-08 0)
(0.000999983 -1.31212e-07 0)
(0.0010002 -1.70914e-07 0)
(0.00100044 -1.79688e-07 0)
(0.00100061 -1.88247e-07 0)
(0.00100077 -2.15114e-07 0)
(0.00100095 -2.4543e-07 0)
(0.00100112 -2.48705e-07 0)
(0.00100124 -2.17345e-07 0)
(0.00100128 -1.57585e-07 0)
(0.00100122 -1.11575e-07 0)
(0.00100107 -8.81268e-08 0)
(0.00100089 -9.65278e-08 0)
(0.00100069 -1.15717e-07 0)
(0.00100051 -1.50218e-07 0)
(0.00100033 -1.5796e-07 0)
(0.0010002 -1.95749e-07 0)
(0.0010001 -1.85098e-07 0)
(0.00100021 -2.68221e-07 0)
(0.00100005 2.30237e-08 0)
(0.000999983 -4.91563e-08 0)
(0.001 -1.6286e-07 0)
(0.00100023 -2.20698e-07 0)
(0.00100046 -2.00905e-07 0)
(0.00100065 -1.73227e-07 0)
(0.00100083 -1.91032e-07 0)
(0.00100103 -2.19708e-07 0)
(0.00100123 -1.86987e-07 0)
(0.00100138 -6.70753e-08 0)
(0.00100143 1.11743e-07 0)
(0.00100136 2.89325e-07 0)
(0.0010012 4.13778e-07 0)
(0.00100098 4.56014e-07 0)
(0.00100074 4.54159e-07 0)
(0.00100053 4.04715e-07 0)
(0.00100037 3.85637e-07 0)
(0.00100024 3.01879e-07 0)
(0.0010002 1.96567e-07 0)
(0.00100018 5.33932e-08 0)
(0.00100005 2.28279e-08 0)
(0.000999999 -1.07074e-07 0)
(0.00100002 -3.12201e-07 0)
(0.00100022 -4.42373e-07 0)
(0.00100045 -4.58484e-07 0)
(0.00100066 -4.60124e-07 0)
(0.00100088 -5.26052e-07 0)
(0.00100112 -6.01952e-07 0)
(0.00100136 -5.71326e-07 0)
(0.00100155 -3.83689e-07 0)
(0.00100163 -8.46645e-08 0)
(0.00100158 2.25018e-07 0)
(0.00100139 4.38341e-07 0)
(0.0010011 4.88813e-07 0)
(0.00100076 4.22735e-07 0)
(0.00100048 2.8674e-07 0)
(0.00100026 2.14145e-07 0)
(0.00100013 1.06016e-07 0)
(0.00100007 -8.62851e-09 0)
(0.00100018 -1.44806e-07 0)
(0.00100004 2.34742e-08 0)
(0.00100001 -1.57065e-07 0)
(0.00100004 -4.3571e-07 0)
(0.00100023 -6.21334e-07 0)
(0.00100046 -6.66819e-07 0)
(0.00100069 -6.97326e-07 0)
(0.00100096 -8.02334e-07 0)
(0.00100129 -9.02006e-07 0)
(0.00100164 -8.33034e-07 0)
(0.00100193 -5.24561e-07 0)
(0.00100208 9.7921e-09 0)
(0.00100201 5.76362e-07 0)
(0.00100172 9.86628e-07 0)
(0.00100126 1.10436e-06 0)
(0.00100079 9.60913e-07 0)
(0.00100043 6.60901e-07 0)
(0.00100027 4.45069e-07 0)
(0.00100023 2.51526e-07 0)
(0.0010003 9.54163e-08 0)
(0.00100026 -3.75073e-08 0)
(0.00100003 1.74873e-08 0)
(0.00100003 -2.03591e-07 0)
(0.00100005 -5.45404e-07 0)
(0.0010002 -8.02233e-07 0)
(0.00100043 -9.19391e-07 0)
(0.0010007 -1.031e-06 0)
(0.00100105 -1.21859e-06 0)
(0.0010015 -1.36778e-06 0)
(0.00100199 -1.27124e-06 0)
(0.00100246 -8.39223e-07 0)
(0.00100276 -1.49368e-07 0)
(0.00100271 6.59167e-07 0)
(0.00100224 1.28414e-06 0)
(0.00100147 1.47969e-06 0)
(0.00100067 1.2833e-06 0)
(0.00100015 8.81327e-07 0)
(0.001 6.08795e-07 0)
(0.00100009 4.14886e-07 0)
(0.00100024 2.55729e-07 0)
(0.00100034 1.23001e-07 0)
(0.00100002 6.37097e-09 0)
(0.00100003 -2.42589e-07 0)
(0.00100004 -6.34123e-07 0)
(0.00100014 -9.61223e-07 0)
(0.00100033 -1.18351e-06 0)
(0.00100063 -1.43124e-06 0)
(0.00100109 -1.79224e-06 0)
(0.00100172 -2.09852e-06 0)
(0.00100246 -2.02021e-06 0)
(0.00100314 -1.26922e-06 0)
(0.00100361 1.05388e-07 0)
(0.00100361 1.62215e-06 0)
(0.00100292 2.48375e-06 0)
(0.00100173 2.26408e-06 0)
(0.00100062 1.33175e-06 0)
(0.00100001 4.09812e-07 0)
(0.00100001 3.55562e-08 0)
(0.00100025 6.38631e-10 0)
(0.00100055 6.29758e-08 0)
(0.00100046 2.2545e-08 0)
(0.00100001 -2.41084e-09 0)
(0.00100003 -2.6367e-07 0)
(0.001 -6.69748e-07 0)
(0.00100001 -1.07521e-06 0)
(0.00100014 -1.41403e-06 0)
(0.00100041 -1.87585e-06 0)
(0.00100092 -2.44275e-06 0)
(0.00100181 -3.13285e-06 0)
(0.00100312 -3.33481e-06 0)
(0.00100461 -2.94764e-06 0)
(0.00100559 -6.44101e-07 0)
(0.00100518 2.62784e-06 0)
(0.00100331 4.87251e-06 0)
(0.00100093 4.69931e-06 0)
(0.000999419 2.92903e-06 0)
(0.000999184 1.17653e-06 0)
(0.000999835 4.59013e-07 0)
(0.00100044 4.23338e-07 0)
(0.00100085 5.65285e-07 0)
(0.00100058 5.06103e-07 0)
(0.000999991 -1.2061e-08 0)
(0.001 -2.3244e-07 0)
(0.0009999 -6.32465e-07 0)
(0.000999804 -1.0537e-06 0)
(0.000999778 -1.60729e-06 0)
(0.000999993 -2.30221e-06 0)
(0.00100042 -3.37823e-06 0)
(0.00100145 -4.17666e-06 0)
(0.00100299 -4.46121e-06 0)
(0.00100589 -2.60251e-06 0)
(0.00100896 7.51982e-07 0)
(0.00100897 4.31672e-06 0)
(0.00100534 4.75234e-06 0)
(0.00100055 2.75802e-06 0)
(0.000997948 6.6544e-07 0)
(0.000998081 -3.4615e-07 0)
(0.000999627 -2.68679e-07 0)
(0.00100075 6.52256e-08 0)
(0.00100125 2.22181e-07 0)
(0.00100077 9.05816e-08 0)
(0.000999984 3.36686e-09 0)
(0.000999955 -1.70272e-07 0)
(0.00099976 -4.28046e-07 0)
(0.000999449 -8.0593e-07 0)
(0.000999167 -1.36969e-06 0)
(0.000999091 -2.46632e-06 0)
(0.000999607 -4.68101e-06 0)
(0.00100131 -8.10749e-06 0)
(0.00100483 -1.33452e-05 0)
(0.00100945 -1.49476e-05 0)
(0.00101172 3.83741e-06 0)
(0.00100879 1.87586e-05 0)
(0.00100206 1.57978e-05 0)
(0.000997396 5.71432e-06 0)
(0.000996686 -3.61001e-07 0)
(0.000998255 -1.31139e-06 0)
(0.00100009 -9.20165e-08 0)
(0.00100088 6.72698e-07 0)
(0.001001 6.58366e-07 0)
(0.00100047 2.46241e-07 0)
(0.000999787 -2.11225e-09 0)
(0.00100022 -6.24637e-08 0)
(0.000999225 -1.78515e-07 0)
(0.000999817 -2.88753e-07 0)
(0.000997386 -6.20101e-07 0)
(0.000998709 -1.14099e-06 0)
(0.000993246 -2.89017e-06 0)
(0.000997447 -5.60193e-06 0)
(0.000991573 -1.15493e-05 0)
(0.000915708 -1.27071e-05 0)
(0.000951317 2.9265e-07 0)
(0.00101007 1.46455e-05 0)
(0.000990796 1.30757e-05 0)
(0.000983808 5.11137e-06 0)
(0.0009894 1.5233e-07 0)
(0.000996072 -8.23948e-07 0)
(0.000999041 -1.2533e-07 0)
(0.000999287 2.55259e-07 0)
(0.000998573 1.80773e-07 0)
(0.000998425 -1.63826e-07 0)
(0.000999787 -9.6217e-09 0)
(0.00100022 1.95231e-08 0)
(0.000999224 1.09036e-07 0)
(0.000999815 1.94859e-07 0)
(0.000997382 5.07786e-07 0)
(0.000998704 1.01851e-06 0)
(0.000993238 2.76677e-06 0)
(0.000997438 5.48445e-06 0)
(0.000991555 1.14231e-05 0)
(0.000915687 1.25719e-05 0)
(0.000951281 -4.66542e-07 0)
(0.00101004 -1.4916e-05 0)
(0.000990792 -1.34366e-05 0)
(0.0009838 -5.5731e-06 0)
(0.000989381 -6.83607e-07 0)
(0.000996039 2.17518e-07 0)
(0.000999002 -4.99572e-07 0)
(0.000999246 -1.03101e-06 0)
(0.00099856 -9.8078e-07 0)
(0.000998376 -8.53496e-07 0)
(0.000999983 -1.54183e-08 0)
(0.000999957 1.28422e-07 0)
(0.00099976 3.5997e-07 0)
(0.000999447 7.1449e-07 0)
(0.000999162 1.26004e-06 0)
(0.000999086 2.34457e-06 0)
(0.000999595 4.55696e-06 0)
(0.0010013 7.98014e-06 0)
(0.00100481 1.32117e-05 0)
(0.00100945 1.47851e-05 0)
(0.00101173 -4.04493e-06 0)
(0.00100876 -1.90359e-05 0)
(0.00100199 -1.61426e-05 0)
(0.000997315 -6.15894e-06 0)
(0.000996629 -9.97138e-08 0)
(0.000998203 7.59089e-07 0)
(0.000999979 -4.67525e-07 0)
(0.00100073 -1.36486e-06 0)
(0.00100081 -1.37674e-06 0)
(0.00100029 -1.20368e-06 0)
(0.000999991 -3.68698e-10 0)
(0.001 1.92291e-07 0)
(0.0009999 5.66222e-07 0)
(0.000999797 9.63606e-07 0)
(0.000999765 1.49502e-06 0)
(0.000999972 2.1769e-06 0)
(0.00100039 3.24579e-06 0)
(0.00100141 4.04261e-06 0)
(0.00100294 4.32121e-06 0)
(0.00100582 2.44765e-06 0)
(0.00100887 -9.61594e-07 0)
(0.00100889 -4.58947e-06 0)
(0.00100527 -5.08252e-06 0)
(0.0010005 -3.15977e-06 0)
(0.000997871 -1.12677e-06 0)
(0.000997944 -2.57463e-07 0)
(0.000999448 -3.87271e-07 0)
(0.00100052 -8.36294e-07 0)
(0.00100098 -9.64911e-07 0)
(0.00100048 -1.01387e-06 0)
(0.00100001 -1.1663e-08 0)
(0.00100003 2.2497e-07 0)
(0.000999999 6.07382e-07 0)
(0.001 9.88994e-07 0)
(0.00100012 1.30902e-06 0)
(0.00100038 1.76076e-06 0)
(0.00100089 2.32975e-06 0)
(0.00100177 3.02053e-06 0)
(0.00100308 3.22573e-06 0)
(0.00100457 2.82078e-06 0)
(0.00100554 5.02577e-07 0)
(0.00100512 -2.82215e-06 0)
(0.00100322 -5.14935e-06 0)
(0.00100079 -5.08994e-06 0)
(0.000999226 -3.42228e-06 0)
(0.000998937 -1.78197e-06 0)
(0.000999578 -1.09045e-06 0)
(0.00100014 -1.17161e-06 0)
(0.00100053 -1.3019e-06 0)
(0.00100016 -1.44573e-06 0)
(0.00100002 -1.9295e-08 0)
(0.00100004 2.0868e-07 0)
(0.00100004 5.78091e-07 0)
(0.00100013 8.82988e-07 0)
(0.00100031 1.08893e-06 0)
(0.0010006 1.32788e-06 0)
(0.00100105 1.68874e-06 0)
(0.00100167 1.99331e-06 0)
(0.00100239 1.90571e-06 0)
(0.00100306 1.12851e-06 0)
(0.00100352 -2.8445e-07 0)
(0.00100348 -1.86953e-06 0)
(0.00100275 -2.78982e-06 0)
(0.00100153 -2.64328e-06 0)
(0.0010004 -1.73897e-06 0)
(0.000999732 -8.69062e-07 0)
(0.000999708 -4.85466e-07 0)
(0.000999865 -5.60224e-07 0)
(0.00100012 -6.1023e-07 0)
(0.000999927 -7.75385e-07 0)
(0.00100003 -2.83898e-08 0)
(0.00100003 1.75453e-07 0)
(0.00100005 4.98409e-07 0)
(0.00100019 7.34819e-07 0)
(0.0010004 8.35592e-07 0)
(0.00100066 9.39288e-07 0)
(0.001001 1.12647e-06 0)
(0.00100143 1.28014e-06 0)
(0.00100191 1.1795e-06 0)
(0.00100238 7.33714e-07 0)
(0.00100266 6.19403e-09 0)
(0.00100259 -8.52748e-07 0)
(0.00100211 -1.52382e-06 0)
(0.00100128 -1.78128e-06 0)
(0.00100045 -1.61915e-06 0)
(0.000999853 -1.31145e-06 0)
(0.000999658 -1.08433e-06 0)
(0.00099964 -1.04849e-06 0)
(0.000999771 -9.34662e-07 0)
(0.000999683 -1.03505e-06 0)
(0.00100004 -3.18387e-08 0)
(0.00100001 1.32929e-07 0)
(0.00100004 3.93314e-07 0)
(0.00100021 5.63321e-07 0)
(0.00100042 6.00132e-07 0)
(0.00100065 6.26786e-07 0)
(0.00100091 7.33018e-07 0)
(0.00100122 8.37158e-07 0)
(0.00100155 7.76578e-07 0)
(0.00100181 4.70342e-07 0)
(0.00100194 -6.29249e-08 0)
(0.00100185 -6.52684e-07 0)
(0.00100152 -1.09813e-06 0)
(0.00100101 -1.27664e-06 0)
(0.00100048 -1.17399e-06 0)
(0.00100002 -9.54998e-07 0)
(0.000999786 -7.49638e-07 0)
(0.000999616 -6.53812e-07 0)
(0.00099963 -4.72883e-07 0)
(0.000999471 -5.30104e-07 0)
(0.00100005 -2.89017e-08 0)
(0.000999995 9.39549e-08 0)
(0.00100001 2.82003e-07 0)
(0.00100021 3.86282e-07 0)
(0.00100043 3.79274e-07 0)
(0.00100062 3.63193e-07 0)
(0.00100082 4.16426e-07 0)
(0.00100105 4.75635e-07 0)
(0.00100129 4.23968e-07 0)
(0.00100148 2.02499e-07 0)
(0.00100155 -1.33043e-07 0)
(0.00100145 -4.84966e-07 0)
(0.00100122 -7.31153e-07 0)
(0.00100085 -8.36956e-07 0)
(0.00100047 -8.0507e-07 0)
(0.00100009 -7.3585e-07 0)
(0.000999833 -6.67877e-07 0)
(0.000999561 -6.67999e-07 0)
(0.000999488 -5.52406e-07 0)
(0.00099929 -6.34093e-07 0)
(0.00100006 -1.37821e-08 0)
(0.000999979 6.86738e-08 0)
(0.000999987 1.93509e-07 0)
(0.00100019 2.68138e-07 0)
(0.00100041 2.71535e-07 0)
(0.00100058 2.68814e-07 0)
(0.00100074 3.10397e-07 0)
(0.00100092 3.63165e-07 0)
(0.0010011 3.53589e-07 0)
(0.00100122 2.48472e-07 0)
(0.00100126 7.39763e-08 0)
(0.00100116 -1.10507e-07 0)
(0.00100096 -2.38668e-07 0)
(0.00100067 -2.94837e-07 0)
(0.00100037 -2.81952e-07 0)
(0.00100004 -2.57583e-07 0)
(0.00099979 -2.23638e-07 0)
(0.000999478 -2.17904e-07 0)
(0.000999366 -1.13027e-07 0)
(0.000999148 -1.6544e-07 0)
(0.00100006 -1.90388e-08 0)
(0.000999972 -2.47119e-08 0)
(0.000999983 -1.19038e-08 0)
(0.00100019 -8.55715e-09 0)
(0.00100042 -2.6177e-08 0)
(0.00100058 -4.81951e-08 0)
(0.00100073 -5.63225e-08 0)
(0.00100089 -5.87184e-08 0)
(0.00100105 -7.49284e-08 0)
(0.00100115 -1.16479e-07 0)
(0.00100117 -1.77748e-07 0)
(0.00100106 -2.48905e-07 0)
(0.00100088 -3.01238e-07 0)
(0.00100062 -3.36958e-07 0)
(0.00100037 -3.46546e-07 0)
(0.00100006 -3.58993e-07 0)
(0.000999839 -3.50811e-07 0)
(0.000999478 -3.70626e-07 0)
(0.000999369 -3.24438e-07 0)
(0.000999027 -3.97649e-07 0)
)
;

boundaryField
{
    sides
    {
        type            slip;
    }
    inlet
    {
        type            fixedValue;
        value           uniform (0.001 0 0);
    }
    outlet
    {
        type            zeroGradient;
    }
    frontAndBack
    {
        type            empty;
    }
}


// ************************************************************************* //
