/*--------------------------------*- C++ -*----------------------------------*\
  =========                 |
  \\      /  F ield         | OpenFOAM: The Open Source CFD Toolbox
   \\    /   O peration     | Website:  https://openfoam.org
    \\  /    A nd           | Version:  9
     \\/     M anipulation  |
\*---------------------------------------------------------------------------*/
FoamFile
{
    format      ascii;
    class       volVectorField;
    location    "25";
    object      hU_0;
}
// * * * * * * * * * * * * * * * * * * * * * * * * * * * * * * * * * * * * * //

dimensions      [0 2 -1 0 0 0 0];

internalField   nonuniform List<vector> 
400
(
(0.00100006 -1.11475e-08 0)
(0.00099995 -7.6259e-08 0)
(0.000999969 -1.42211e-07 0)
(0.00100019 -1.74894e-07 0)
(0.00100041 -1.79242e-07 0)
(0.00100057 -1.89166e-07 0)
(0.00100074 -2.18966e-07 0)
(0.00100093 -2.491e-07 0)
(0.00100111 -2.49097e-07 0)
(0.00100123 -2.14656e-07 0)
(0.00100126 -1.54481e-07 0)
(0.00100121 -1.10137e-07 0)
(0.00100106 -8.82538e-08 0)
(0.00100089 -9.67459e-08 0)
(0.0010007 -1.14234e-07 0)
(0.00100053 -1.46599e-07 0)
(0.00100035 -1.5443e-07 0)
(0.00100022 -1.94916e-07 0)
(0.00100013 -1.85569e-07 0)
(0.00100024 -2.68255e-07 0)
(0.00100005 1.0285e-08 0)
(0.000999962 -8.18578e-08 0)
(0.000999991 -1.93003e-07 0)
(0.00100021 -2.32584e-07 0)
(0.00100043 -1.9955e-07 0)
(0.00100061 -1.73743e-07 0)
(0.0010008 -1.99412e-07 0)
(0.00100101 -2.28747e-07 0)
(0.00100122 -1.89215e-07 0)
(0.00100137 -6.2256e-08 0)
(0.00100142 1.17915e-07 0)
(0.00100135 2.91079e-07 0)
(0.00100119 4.10259e-07 0)
(0.00100098 4.53623e-07 0)
(0.00100076 4.58113e-07 0)
(0.00100055 4.15778e-07 0)
(0.00100039 3.98488e-07 0)
(0.00100026 3.01595e-07 0)
(0.00100022 1.87917e-07 0)
(0.00100021 5.22597e-08 0)
(0.00100005 5.72856e-09 0)
(0.00099998 -1.54291e-07 0)
(0.00100001 -3.56294e-07 0)
(0.00100021 -4.59033e-07 0)
(0.00100043 -4.54613e-07 0)
(0.00100063 -4.59151e-07 0)
(0.00100085 -5.377e-07 0)
(0.00100111 -6.15527e-07 0)
(0.00100135 -5.76231e-07 0)
(0.00100154 -3.78589e-07 0)
(0.00100162 -7.92182e-08 0)
(0.00100157 2.23721e-07 0)
(0.00100138 4.29999e-07 0)
(0.0010011 4.82176e-07 0)
(0.00100078 4.26711e-07 0)
(0.0010005 3.02469e-07 0)
(0.00100028 2.3222e-07 0)
(0.00100015 1.06998e-07 0)
(0.0010001 -1.80024e-08 0)
(0.00100021 -1.45677e-07 0)
(0.00100004 2.26834e-09 0)
(0.000999998 -2.15314e-07 0)
(0.00100003 -4.89037e-07 0)
(0.00100021 -6.39443e-07 0)
(0.00100044 -6.5963e-07 0)
(0.00100066 -6.95555e-07 0)
(0.00100094 -8.1721e-07 0)
(0.00100127 -9.21028e-07 0)
(0.00100162 -8.40578e-07 0)
(0.00100191 -5.20885e-07 0)
(0.00100206 1.51645e-08 0)
(0.00100201 5.70913e-07 0)
(0.00100172 9.72683e-07 0)
(0.00100126 1.09333e-06 0)
(0.0010008 9.63139e-07 0)
(0.00100045 6.79666e-07 0)
(0.0010003 4.67256e-07 0)
(0.00100026 2.51299e-07 0)
(0.00100033 8.23079e-08 0)
(0.00100028 -3.86815e-08 0)
(0.00100003 -4.53184e-09 0)
(0.00100002 -2.66247e-07 0)
(0.00100004 -6.02488e-07 0)
(0.00100019 -8.19822e-07 0)
(0.00100041 -9.09387e-07 0)
(0.00100068 -1.02779e-06 0)
(0.00100103 -1.23531e-06 0)
(0.00100148 -1.39017e-06 0)
(0.00100197 -1.28096e-06 0)
(0.00100245 -8.39504e-07 0)
(0.00100275 -1.4827e-07 0)
(0.0010027 6.50191e-07 0)
(0.00100224 1.26471e-06 0)
(0.00100147 1.46481e-06 0)
(0.00100069 1.28322e-06 0)
(0.00100017 8.98906e-07 0)
(0.00100003 6.31365e-07 0)
(0.00100011 4.12148e-07 0)
(0.00100027 2.37186e-07 0)
(0.00100037 1.20123e-07 0)
(0.00100002 -1.42276e-08 0)
(0.00100003 -3.0358e-07 0)
(0.00100004 -6.88992e-07 0)
(0.00100014 -9.7631e-07 0)
(0.00100032 -1.17121e-06 0)
(0.00100062 -1.42649e-06 0)
(0.00100107 -1.80917e-06 0)
(0.0010017 -2.12098e-06 0)
(0.00100244 -2.03212e-06 0)
(0.00100312 -1.26871e-06 0)
(0.00100361 1.00407e-07 0)
(0.00100361 1.60947e-06 0)
(0.00100292 2.46017e-06 0)
(0.00100174 2.24411e-06 0)
(0.00100064 1.32878e-06 0)
(0.00100002 4.24523e-07 0)
(0.00100004 5.46276e-08 0)
(0.00100028 -2.66963e-09 0)
(0.00100058 4.69598e-08 0)
(0.00100049 1.98529e-08 0)
(0.00100001 -1.95921e-08 0)
(0.00100003 -3.169e-07 0)
(0.000999996 -7.17253e-07 0)
(0.00100001 -1.0865e-06 0)
(0.00100013 -1.40059e-06 0)
(0.0010004 -1.87001e-06 0)
(0.00100091 -2.45695e-06 0)
(0.00100179 -3.15363e-06 0)
(0.0010031 -3.34805e-06 0)
(0.0010046 -2.95213e-06 0)
(0.00100558 -6.52607e-07 0)
(0.00100519 2.60906e-06 0)
(0.00100332 4.8493e-06 0)
(0.00100094 4.6793e-06 0)
(0.000999433 2.92402e-06 0)
(0.000999202 1.19086e-06 0)
(0.00099986 4.79085e-07 0)
(0.00100047 4.18936e-07 0)
(0.00100087 5.48249e-07 0)
(0.00100061 5.03597e-07 0)
(0.000999996 -2.46155e-08 0)
(0.00100001 -2.73471e-07 0)
(0.000999897 -6.68772e-07 0)
(0.000999802 -1.06103e-06 0)
(0.000999779 -1.59469e-06 0)
(0.000999989 -2.29596e-06 0)
(0.00100041 -3.3883e-06 0)
(0.00100143 -4.19265e-06 0)
(0.00100297 -4.47202e-06 0)
(0.00100588 -2.60944e-06 0)
(0.00100892 7.49248e-07 0)
(0.00100898 4.3053e-06 0)
(0.00100536 4.73168e-06 0)
(0.00100057 2.74163e-06 0)
(0.000997963 6.60851e-07 0)
(0.0009981 -3.35118e-07 0)
(0.000999651 -2.52016e-07 0)
(0.00100078 6.34771e-08 0)
(0.00100128 2.10165e-07 0)
(0.0010008 8.85462e-08 0)
(0.000999989 -5.28462e-09 0)
(0.000999965 -1.96869e-07 0)
(0.000999759 -4.50805e-07 0)
(0.000999449 -8.09728e-07 0)
(0.000999171 -1.36049e-06 0)
(0.00099909 -2.46084e-06 0)
(0.000999595 -4.68646e-06 0)
(0.00100129 -8.11688e-06 0)
(0.0010048 -1.33513e-05 0)
(0.00100943 -1.49521e-05 0)
(0.00101176 3.83627e-06 0)
(0.00100879 1.87501e-05 0)
(0.00100207 1.5781e-05 0)
(0.000997412 5.70107e-06 0)
(0.000996701 -3.64681e-07 0)
(0.000998273 -1.30592e-06 0)
(0.00100011 -8.2325e-08 0)
(0.00100091 6.72249e-07 0)
(0.00100103 6.52057e-07 0)
(0.00100049 2.45822e-07 0)
(0.000999793 -6.15894e-09 0)
(0.00100023 -7.26635e-08 0)
(0.000999226 -1.86585e-07 0)
(0.000999818 -2.89754e-07 0)
(0.000997391 -6.16205e-07 0)
(0.00099871 -1.13735e-06 0)
(0.000993235 -2.89016e-06 0)
(0.000997424 -5.60311e-06 0)
(0.000991547 -1.15498e-05 0)
(0.000915694 -1.27086e-05 0)
(0.000951318 2.86426e-07 0)
(0.00101008 1.46338e-05 0)
(0.000990816 1.30684e-05 0)
(0.000983827 5.10511e-06 0)
(0.000989416 1.50051e-07 0)
(0.000996088 -8.21697e-07 0)
(0.000999064 -1.20481e-07 0)
(0.000999317 2.5656e-07 0)
(0.000998602 1.81251e-07 0)
(0.000998454 -1.62122e-07 0)
(0.000999792 -7.0612e-09 0)
(0.00100023 2.7797e-08 0)
(0.000999225 1.16184e-07 0)
(0.000999816 1.9569e-07 0)
(0.000997388 5.05391e-07 0)
(0.000998705 1.01937e-06 0)
(0.000993228 2.77244e-06 0)
(0.000997415 5.49179e-06 0)
(0.00099153 1.14286e-05 0)
(0.000915674 1.25747e-05 0)
(0.000951273 -4.64506e-07 0)
(0.00101006 -1.49129e-05 0)
(0.000990814 -1.34347e-05 0)
(0.000983819 -5.56993e-06 0)
(0.000989397 -6.81308e-07 0)
(0.000996054 2.17912e-07 0)
(0.000999026 -4.99863e-07 0)
(0.000999277 -1.02722e-06 0)
(0.000998589 -9.72872e-07 0)
(0.000998404 -8.50698e-07 0)
(0.000999989 -7.90025e-09 0)
(0.000999968 1.5381e-07 0)
(0.000999759 3.82118e-07 0)
(0.000999447 7.184e-07 0)
(0.000999165 1.25273e-06 0)
(0.000999084 2.34339e-06 0)
(0.000999583 4.56852e-06 0)
(0.00100128 7.99565e-06 0)
(0.00100479 1.32214e-05 0)
(0.00100944 1.47915e-05 0)
(0.00101176 -4.04447e-06 0)
(0.00100877 -1.90275e-05 0)
(0.00100201 -1.61324e-05 0)
(0.000997331 -6.14998e-06 0)
(0.000996643 -9.68264e-08 0)
(0.000998218 7.54941e-07 0)
(0.001 -4.72607e-07 0)
(0.00100076 -1.36013e-06 0)
(0.00100084 -1.36383e-06 0)
(0.00100032 -1.19962e-06 0)
(0.000999996 1.19567e-08 0)
(0.00100001 2.32896e-07 0)
(0.000999896 6.02137e-07 0)
(0.000999795 9.71443e-07 0)
(0.000999766 1.48483e-06 0)
(0.000999967 2.17492e-06 0)
(0.00100038 3.26307e-06 0)
(0.00100139 4.0657e-06 0)
(0.00100292 4.33571e-06 0)
(0.0010058 2.45584e-06 0)
(0.00100883 -9.57556e-07 0)
(0.00100891 -4.57962e-06 0)
(0.00100529 -5.06765e-06 0)
(0.00100051 -3.14794e-06 0)
(0.000997885 -1.12438e-06 0)
(0.000997962 -2.66042e-07 0)
(0.000999472 -3.97011e-07 0)
(0.00100055 -8.29133e-07 0)
(0.00100101 -9.46598e-07 0)
(0.0010005 -1.00882e-06 0)
(0.00100001 5.90374e-09 0)
(0.00100003 2.78374e-07 0)
(0.000999993 6.54883e-07 0)
(0.000999999 1.00091e-06 0)
(0.00100011 1.29782e-06 0)
(0.00100037 1.75882e-06 0)
(0.00100088 2.3498e-06 0)
(0.00100175 3.04782e-06 0)
(0.00100306 3.24351e-06 0)
(0.00100456 2.82493e-06 0)
(0.00100554 5.1011e-07 0)
(0.00100512 -2.81117e-06 0)
(0.00100323 -5.13192e-06 0)
(0.0010008 -5.07422e-06 0)
(0.00099924 -3.41877e-06 0)
(0.000998956 -1.79317e-06 0)
(0.000999603 -1.10411e-06 0)
(0.00100017 -1.16364e-06 0)
(0.00100056 -1.28017e-06 0)
(0.00100019 -1.44022e-06 0)
(0.00100002 1.53681e-09 0)
(0.00100003 2.69964e-07 0)
(0.00100003 6.33561e-07 0)
(0.00100012 8.99561e-07 0)
(0.0010003 1.0792e-06 0)
(0.00100059 1.32693e-06 0)
(0.00100103 1.71002e-06 0)
(0.00100165 2.02117e-06 0)
(0.00100237 1.92203e-06 0)
(0.00100304 1.13081e-06 0)
(0.00100351 -2.85944e-07 0)
(0.00100348 -1.86243e-06 0)
(0.00100276 -2.77169e-06 0)
(0.00100154 -2.62742e-06 0)
(0.00100041 -1.73702e-06 0)
(0.00099975 -8.82822e-07 0)
(0.000999731 -5.01863e-07 0)
(0.000999891 -5.53709e-07 0)
(0.00100015 -5.87915e-07 0)
(0.000999955 -7.69787e-07 0)
(0.00100003 -5.63824e-09 0)
(0.00100002 2.3939e-07 0)
(0.00100004 5.56839e-07 0)
(0.00100018 7.54724e-07 0)
(0.00100038 8.28747e-07 0)
(0.00100064 9.40049e-07 0)
(0.00100098 1.14729e-06 0)
(0.00100141 1.30527e-06 0)
(0.0010019 1.19219e-06 0)
(0.00100236 7.33076e-07 0)
(0.00100266 2.75146e-09 0)
(0.00100259 -8.48362e-07 0)
(0.0010021 -1.5103e-06 0)
(0.00100129 -1.76904e-06 0)
(0.00100046 -1.61972e-06 0)
(0.000999873 -1.32802e-06 0)
(0.00099968 -1.10345e-06 0)
(0.000999664 -1.04281e-06 0)
(0.000999799 -9.12669e-07 0)
(0.000999712 -1.03001e-06 0)
(0.00100004 -9.61403e-09 0)
(0.000999999 1.92882e-07 0)
(0.00100002 4.48482e-07 0)
(0.00100019 5.83851e-07 0)
(0.0010004 5.96228e-07 0)
(0.00100062 6.28517e-07 0)
(0.00100089 7.50933e-07 0)
(0.00100121 8.57856e-07 0)
(0.00100154 7.84598e-07 0)
(0.0010018 4.65406e-07 0)
(0.00100193 -7.11776e-08 0)
(0.00100184 -6.52345e-07 0)
(0.00100152 -1.08854e-06 0)
(0.00100102 -1.26816e-06 0)
(0.00100049 -1.17745e-06 0)
(0.00100004 -9.72901e-07 0)
(0.000999808 -7.6877e-07 0)
(0.00099964 -6.49464e-07 0)
(0.000999658 -4.53662e-07 0)
(0.0009995 -5.25891e-07 0)
(0.00100005 -9.65849e-09 0)
(0.000999976 1.43214e-07 0)
(0.000999999 3.27014e-07 0)
(0.00100019 4.03575e-07 0)
(0.0010004 3.77266e-07 0)
(0.00100059 3.65653e-07 0)
(0.0010008 4.31427e-07 0)
(0.00100104 4.9142e-07 0)
(0.00100128 4.28301e-07 0)
(0.00100147 1.95383e-07 0)
(0.00100153 -1.43002e-07 0)
(0.00100144 -4.87847e-07 0)
(0.00100121 -7.26282e-07 0)
(0.00100085 -8.32799e-07 0)
(0.00100048 -8.09922e-07 0)
(0.00100011 -7.51038e-07 0)
(0.000999855 -6.83905e-07 0)
(0.000999582 -6.66375e-07 0)
(0.000999517 -5.38782e-07 0)
(0.00099932 -6.31034e-07 0)
(0.00100005 -1.83416e-09 0)
(0.000999957 9.97831e-08 0)
(0.000999972 2.22494e-07 0)
(0.00100017 2.80048e-07 0)
(0.00100037 2.71048e-07 0)
(0.00100054 2.70584e-07 0)
(0.00100071 3.20036e-07 0)
(0.0010009 3.72803e-07 0)
(0.00100109 3.55529e-07 0)
(0.00100121 2.42634e-07 0)
(0.00100124 6.65364e-08 0)
(0.00100115 -1.14061e-07 0)
(0.00100095 -2.37231e-07 0)
(0.00100067 -2.93494e-07 0)
(0.00100039 -2.86222e-07 0)
(0.00100006 -2.68546e-07 0)
(0.000999811 -2.34957e-07 0)
(0.000999498 -2.17179e-07 0)
(0.000999395 -1.0431e-07 0)
(0.00099918 -1.63648e-07 0)
(0.00100005 -1.58083e-08 0)
(0.00099995 -1.4855e-08 0)
(0.000999969 -1.97666e-09 0)
(0.00100018 -3.86345e-09 0)
(0.00100038 -2.59468e-08 0)
(0.00100054 -4.80203e-08 0)
(0.0010007 -5.37305e-08 0)
(0.00100087 -5.59858e-08 0)
(0.00100104 -7.42124e-08 0)
(0.00100114 -1.17997e-07 0)
(0.00100115 -1.80453e-07 0)
(0.00100105 -2.49795e-07 0)
(0.00100087 -3.00113e-07 0)
(0.00100062 -3.36444e-07 0)
(0.00100038 -3.48518e-07 0)
(0.00100008 -3.63321e-07 0)
(0.000999861 -3.54969e-07 0)
(0.000999498 -3.70168e-07 0)
(0.000999398 -3.21213e-07 0)
(0.000999058 -3.97064e-07 0)
)
;

boundaryField
{
    sides
    {
        type            slip;
    }
    inlet
    {
        type            fixedValue;
        value           uniform (0.001 0 0);
    }
    outlet
    {
        type            zeroGradient;
    }
    frontAndBack
    {
        type            empty;
    }
}


// ************************************************************************* //
