/*--------------------------------*- C++ -*----------------------------------*\
  =========                 |
  \\      /  F ield         | OpenFOAM: The Open Source CFD Toolbox
   \\    /   O peration     | Website:  https://openfoam.org
    \\  /    A nd           | Version:  9
     \\/     M anipulation  |
\*---------------------------------------------------------------------------*/
FoamFile
{
    format      ascii;
    class       surfaceScalarField;
    location    "25";
    object      phi;
}
// * * * * * * * * * * * * * * * * * * * * * * * * * * * * * * * * * * * * * //

dimensions      [0 4 -1 0 0 0 0];

internalField   nonuniform List<scalar> 
760
(
4.9997e-06
6.39208e-11
4.99984e-06
-2.01696e-10
5.00056e-06
-6.12572e-10
5.00163e-06
-8.41485e-10
5.00269e-06
-8.1811e-10
5.00361e-06
-7.70651e-10
5.00447e-06
-8.70272e-10
5.00532e-06
-1.00529e-09
5.00602e-06
-9.36401e-10
5.00637e-06
-5.87106e-10
5.00627e-06
-7.19581e-11
5.00564e-06
5.48552e-10
5.00471e-06
9.31399e-10
5.00372e-06
1.02632e-09
5.00275e-06
9.86987e-10
5.00197e-06
7.85012e-10
5.00124e-06
7.33555e-10
5.00087e-06
3.96544e-10
5.00082e-06
7.17293e-11
-4.58248e-10
4.99975e-06
1.04394e-10
4.99992e-06
-4.23469e-10
5.00065e-06
-1.23658e-09
5.00172e-06
-1.71889e-09
5.00283e-06
-1.7154e-09
5.00383e-06
-1.66634e-09
5.00482e-06
-1.90299e-09
5.00584e-06
-2.19881e-09
5.00673e-06
-2.07585e-09
5.0072e-06
-1.30372e-09
5.00693e-06
3.0577e-11
5.00625e-06
1.13362e-09
5.00519e-06
1.99877e-09
5.00398e-06
2.28205e-09
5.00289e-06
2.11549e-09
5.00215e-06
1.5706e-09
5.00164e-06
1.27802e-09
5.00127e-06
8.08405e-10
5.00102e-06
3.43703e-10
-3.06329e-10
4.99981e-06
1.1804e-10
5e-06
-6.58994e-10
5.00067e-06
-1.83702e-09
5.00168e-06
-2.58793e-09
5.00282e-06
-2.72057e-09
5.00399e-06
-2.78891e-09
5.00521e-06
-3.20588e-09
5.00646e-06
-3.64121e-09
5.00752e-06
-3.38157e-09
5.00813e-06
-2.16877e-09
5.00814e-06
-1.68366e-10
5.00727e-06
1.91666e-09
5.00582e-06
3.43574e-09
5.00418e-06
3.97013e-09
5.00272e-06
3.65554e-09
5.00169e-06
2.66684e-09
5.00105e-06
1.97959e-09
5.00077e-06
1.16391e-09
5.00082e-06
3.37461e-10
-3.72703e-10
4.99988e-06
1.02223e-10
5.00009e-06
-9.07509e-10
5.00071e-06
-2.43136e-09
5.00167e-06
-3.49497e-09
5.00285e-06
-3.86202e-09
5.00424e-06
-4.18543e-09
5.00584e-06
-4.92572e-09
5.00767e-06
-5.64141e-09
5.00941e-06
-5.37655e-09
5.01047e-06
-3.45197e-09
5.01038e-06
-3.10295e-10
5.00902e-06
3.17741e-09
5.00662e-06
5.81183e-09
5.00417e-06
6.45625e-09
5.00262e-06
5.29777e-09
5.00198e-06
3.42111e-09
5.00185e-06
2.20708e-09
5.00178e-06
1.33938e-09
5.0015e-06
6.90628e-10
1.58668e-10
4.99996e-06
5.40262e-11
5.00014e-06
-1.13978e-09
5.00063e-06
-2.94955e-09
5.00147e-06
-4.36181e-09
5.00271e-06
-5.1448e-09
5.00441e-06
-5.9533e-09
5.00658e-06
-7.19956e-09
5.0091e-06
-8.31993e-09
5.01193e-06
-8.43493e-09
5.01418e-06
-5.91586e-09
5.01401e-06
-3.25646e-10
5.01189e-06
5.15392e-09
5.00764e-06
1.0025e-08
5.0036e-06
1.05154e-08
5.00137e-06
7.60746e-09
5.00102e-06
3.88701e-09
5.00141e-06
1.95637e-09
5.00164e-06
1.23393e-09
5.0015e-06
9.3309e-10
4.36433e-10
5e-06
-5.85459e-12
5.00011e-06
-1.308e-09
5.00036e-06
-3.28747e-09
5.00095e-06
-5.04985e-09
5.00212e-06
-6.40895e-09
5.00424e-06
-8.16858e-09
5.00733e-06
-1.03733e-08
5.01133e-06
-1.24571e-08
5.01505e-06
-1.22835e-08
5.01833e-06
-9.41854e-09
5.01942e-06
-1.5576e-09
5.01513e-06
9.29125e-09
5.00857e-06
1.64908e-08
5.00325e-06
1.58452e-08
5.00122e-06
9.707e-09
5.00163e-06
3.59909e-09
5.00259e-06
1.15491e-09
5.00291e-06
1.0629e-09
5.00239e-06
1.56075e-09
1.2847e-09
5.00002e-06
-5.79819e-11
4.99995e-06
-1.32157e-09
4.99987e-06
-3.34898e-09
5e-06
-5.337e-09
5.00077e-06
-7.32351e-09
5.00252e-06
-1.00015e-08
5.00647e-06
-1.4361e-08
5.01356e-06
-1.95851e-08
5.02326e-06
-2.20905e-08
5.03031e-06
-1.65437e-08
5.02792e-06
5.76033e-10
5.01584e-06
2.13019e-08
5.00322e-06
2.90106e-08
4.99776e-06
2.12693e-08
4.99961e-06
7.90862e-09
5.00193e-06
1.3962e-09
5.00301e-06
2.54025e-10
5.00317e-06
1.05431e-09
5.00265e-06
2.19125e-09
1.58504e-09
4.99996e-06
-4.52738e-11
4.99963e-06
-1.09733e-09
4.99897e-06
-2.86817e-09
4.9984e-06
-4.97312e-09
4.99874e-06
-7.82121e-09
4.99985e-06
-1.11704e-08
5.00328e-06
-1.77559e-08
5.00945e-06
-2.57258e-08
5.02436e-06
-3.69935e-08
5.05558e-06
-4.77128e-08
5.0492e-06
5.36447e-09
5.02232e-06
4.79526e-08
4.99728e-06
5.39558e-08
4.9925e-06
2.5996e-08
4.9985e-06
1.93759e-09
5.00314e-06
-3.14343e-09
5.00417e-06
-6.36707e-10
5.00325e-06
2.13169e-09
5.00313e-06
2.41675e-09
9.43338e-10
4.99991e-06
8.77219e-12
4.99929e-06
-6.1005e-10
4.99776e-06
-1.55291e-09
4.99558e-06
-3.02428e-09
4.99333e-06
-5.73303e-09
4.99314e-06
-1.10107e-08
4.999e-06
-2.35316e-08
5.01674e-06
-4.33254e-08
5.05524e-06
-7.54128e-08
5.06604e-06
-5.86722e-08
5.04903e-06
2.37317e-08
4.99574e-06
1.01151e-07
4.98846e-06
6.10403e-08
4.99493e-06
1.94267e-08
4.99917e-06
-2.30167e-09
5.00195e-06
-5.83603e-09
5.00175e-06
-2.83421e-10
5.00139e-06
2.64511e-09
5.00219e-06
1.71385e-09
1.20227e-10
5.00001e-06
-2.62942e-11
4.99936e-06
-1.07064e-10
4.99776e-06
-1.75175e-10
4.99473e-06
-2.42943e-10
4.98913e-06
-2.95526e-10
4.97844e-06
-3.27823e-10
4.95537e-06
-3.34957e-10
4.91254e-06
-3.2827e-10
4.83762e-06
-3.57449e-10
4.77933e-06
-4.11742e-10
4.80358e-06
-5.14681e-10
4.90525e-06
-7.4113e-10
4.96695e-06
-8.3165e-10
4.98734e-06
-1.06011e-09
4.9864e-06
-1.38053e-09
4.98226e-06
-1.61847e-09
4.98376e-06
-1.66334e-09
4.98843e-06
-1.89211e-09
4.99211e-06
-1.87048e-09
-2.45263e-09
5.00001e-06
-7.53009e-11
4.99936e-06
3.93756e-10
4.99775e-06
1.208e-09
4.99471e-06
2.54627e-09
4.9891e-06
5.1532e-09
4.97842e-06
1.03592e-08
4.95533e-06
2.2875e-08
4.91249e-06
4.2682e-08
4.8375e-06
7.47396e-08
4.77913e-06
5.80629e-08
4.80349e-06
-2.50313e-08
4.90519e-06
-1.02587e-07
4.96694e-06
-6.27012e-08
4.98715e-06
-2.1366e-08
4.98634e-06
-5.83754e-10
4.98194e-06
2.86602e-09
4.98365e-06
-3.24845e-09
4.98842e-06
-6.51767e-09
4.99198e-06
-5.3404e-09
-4.78311e-09
4.99992e-06
-2.607e-11
4.99929e-06
8.88942e-10
4.99776e-06
2.52366e-09
4.99557e-06
4.50501e-09
4.99331e-06
7.24398e-09
4.9931e-06
1.05449e-08
4.99895e-06
1.71259e-08
5.01665e-06
2.50962e-08
5.05515e-06
3.63528e-08
5.06634e-06
4.6755e-08
5.0488e-06
-6.65461e-09
4.99536e-06
-4.92889e-08
4.98804e-06
-5.5528e-08
4.99481e-06
-2.82065e-08
4.99912e-06
-4.88822e-09
5.00132e-06
7.46303e-10
5.00089e-06
-2.68678e-09
5.00045e-06
-5.92824e-09
5.00133e-06
-6.12289e-09
-5.68364e-09
4.99996e-06
-1.69262e-11
4.99963e-06
1.11715e-09
4.99896e-06
3.02012e-09
4.99837e-06
4.8877e-09
4.99866e-06
6.78275e-09
4.99973e-06
9.41822e-09
5.00309e-06
1.38029e-08
5.00922e-06
1.90042e-08
5.02408e-06
2.14839e-08
5.05499e-06
1.58698e-08
5.04893e-06
-1.71525e-09
5.02202e-06
-2.2498e-08
4.99704e-06
-3.0665e-08
4.99225e-06
-2.34613e-08
4.99767e-06
-1.02773e-08
5.00254e-06
-4.00619e-09
5.00298e-06
-2.9675e-09
5.00187e-06
-4.67419e-09
5.00178e-06
-5.92773e-09
-6.21719e-09
5.00002e-06
-6.92868e-11
4.99994e-06
1.12261e-09
4.99984e-06
2.98997e-09
4.99993e-06
4.64127e-09
5.00065e-06
5.9166e-09
5.00235e-06
7.62938e-09
5.00629e-06
9.83037e-09
5.01338e-06
1.18916e-08
5.02309e-06
1.17056e-08
5.03007e-06
8.71096e-09
5.02769e-06
6.3346e-10
5.01545e-06
-1.04091e-08
5.00263e-06
-1.79402e-08
4.99685e-06
-1.77042e-08
4.99848e-06
-1.18347e-08
5.00073e-06
-6.1224e-09
5.0017e-06
-3.77974e-09
5.00164e-06
-4.45649e-09
5.0008e-06
-4.97618e-09
-5.61991e-09
5.00001e-06
-1.19545e-10
5.0001e-06
9.83483e-10
5.00032e-06
2.68932e-09
5.00087e-06
3.99607e-09
5.00198e-06
4.69871e-09
5.00406e-06
5.46579e-09
5.00708e-06
6.71139e-09
5.01103e-06
7.84919e-09
5.01466e-06
7.94352e-09
5.01791e-06
5.30583e-09
5.01881e-06
-4.32189e-10
5.0144e-06
-6.12233e-09
5.00766e-06
-1.12606e-08
5.00221e-06
-1.22221e-08
4.99999e-06
-9.5182e-09
5.00019e-06
-6.19063e-09
5.00088e-06
-4.31185e-09
5.00079e-06
-4.21717e-09
4.99992e-06
-3.99519e-09
-4.60687e-09
4.99996e-06
-1.50402e-10
5.00012e-06
7.80214e-10
5.00057e-06
2.2097e-09
5.00137e-06
3.17537e-09
5.00256e-06
3.4771e-09
5.00419e-06
3.77366e-09
5.00628e-06
4.51708e-09
5.00873e-06
5.23886e-09
5.01156e-06
4.93642e-09
5.01379e-06
2.88478e-09
5.01343e-06
-2.31441e-10
5.01125e-06
-4.03885e-09
5.00686e-06
-6.8764e-09
5.0026e-06
-7.9051e-09
5.00011e-06
-6.9331e-09
4.9994e-06
-5.36153e-09
4.99945e-06
-4.2237e-09
4.99929e-06
-3.92532e-09
4.99867e-06
-3.28812e-09
-3.8235e-09
4.99989e-06
-1.55905e-10
5.00006e-06
5.6202e-10
5.00063e-06
1.67209e-09
5.00154e-06
2.3458e-09
5.00267e-06
2.41214e-09
5.004e-06
2.44528e-09
5.00556e-06
2.87225e-09
5.00729e-06
3.33456e-09
5.00889e-06
3.11636e-09
5.00973e-06
1.83982e-09
5.0097e-06
-3.67257e-10
5.00816e-06
-2.57375e-09
5.00558e-06
-4.28688e-09
5.00279e-06
-5.06426e-09
5.00076e-06
-4.80847e-09
4.99966e-06
-4.15677e-09
4.99907e-06
-3.5336e-09
4.99856e-06
-3.30994e-09
4.99791e-06
-2.56903e-09
-2.91874e-09
4.9998e-06
-1.24351e-10
4.99996e-06
3.5952e-10
5.00061e-06
1.10461e-09
5.00158e-06
1.52534e-09
5.00265e-06
1.50624e-09
5.00373e-06
1.44907e-09
5.00489e-06
1.6684e-09
5.00612e-06
1.93611e-09
5.00723e-06
1.7902e-09
5.00783e-06
1.0156e-09
5.00752e-06
-2.15633e-10
5.00649e-06
-1.61031e-09
5.00478e-06
-2.5701e-09
5.00281e-06
-3.02757e-09
5.00104e-06
-2.96367e-09
4.9997e-06
-2.74383e-09
4.9987e-06
-2.45904e-09
4.99785e-06
-2.39623e-09
4.99713e-06
-1.78311e-09
-2.0642e-09
4.99973e-06
-6.34283e-11
4.99985e-06
1.78371e-10
5.00051e-06
5.58101e-10
5.0015e-06
7.65113e-10
5.00251e-06
7.25887e-10
5.00344e-06
6.66723e-10
5.00434e-06
7.66215e-10
5.00523e-06
9.10146e-10
5.00596e-06
8.47098e-10
5.00632e-06
4.41885e-10
5.00612e-06
-1.77737e-10
5.0052e-06
-7.57564e-10
5.00383e-06
-1.19205e-09
5.00228e-06
-1.41094e-09
5.00077e-06
-1.39301e-09
4.99943e-06
-1.35127e-09
4.99827e-06
-1.24751e-09
4.99721e-06
-1.28833e-09
4.99642e-06
-9.56413e-10
-1.31363e-09
4.9997e-06
4.99983e-06
5.00052e-06
5.00155e-06
5.00255e-06
5.0034e-06
5.00421e-06
5.005e-06
5.00565e-06
5.00589e-06
5.00557e-06
5.00475e-06
5.00358e-06
5.00223e-06
5.0009e-06
4.99959e-06
4.99838e-06
4.99714e-06
4.99621e-06
)
;

boundaryField
{
    sides
    {
        type            calculated;
        value           uniform 0;
    }
    inlet
    {
        type            calculated;
        value           nonuniform List<scalar> 
20
(
-5e-06
-5e-06
-5e-06
-5e-06
-5e-06
-5e-06
-5e-06
-5e-06
-5e-06
-5e-06
-5e-06
-5e-06
-5e-06
-5e-06
-5e-06
-5e-06
-5e-06
-5e-06
-5e-06
-5e-06
)
;
    }
    outlet
    {
        type            calculated;
        value           nonuniform List<scalar> 
20
(
5.00129e-06
5.00088e-06
5.0009e-06
5.001e-06
5.00126e-06
5.00158e-06
5.0024e-06
5.00381e-06
5.00305e-06
4.99471e-06
4.99434e-06
5.00226e-06
5.00235e-06
5.00024e-06
4.99894e-06
4.99792e-06
4.99704e-06
4.99629e-06
4.99569e-06
4.99492e-06
)
;
    }
    frontAndBack
    {
        type            empty;
        value           nonuniform List<scalar> 0();
    }
}


// ************************************************************************* //
