/*--------------------------------*- C++ -*----------------------------------*\
  =========                 |
  \\      /  F ield         | OpenFOAM: The Open Source CFD Toolbox
   \\    /   O peration     | Website:  https://openfoam.org
    \\  /    A nd           | Version:  9
     \\/     M anipulation  |
\*---------------------------------------------------------------------------*/
FoamFile
{
    format      ascii;
    class       surfaceScalarField;
    location    "25";
    object      phi_0;
}
// * * * * * * * * * * * * * * * * * * * * * * * * * * * * * * * * * * * * * //

dimensions      [0 4 -1 0 0 0 0];

internalField   nonuniform List<scalar> 
760
(
4.99965e-06
1.61033e-11
4.99976e-06
-3.07972e-10
5.00046e-06
-7.12152e-10
5.00148e-06
-8.82387e-10
5.0025e-06
-8.14706e-10
5.00344e-06
-7.70579e-10
5.00437e-06
-8.93678e-10
5.00528e-06
-1.03193e-09
5.00599e-06
-9.39213e-10
5.00632e-06
-5.69374e-10
5.00619e-06
-5.37156e-11
5.00556e-06
5.55933e-10
5.00467e-06
9.22083e-10
5.00376e-06
1.02025e-09
5.00285e-06
1.00106e-09
5.00208e-06
8.23442e-10
5.00134e-06
7.75904e-10
5.00098e-06
3.96852e-10
5.00095e-06
4.47751e-11
-4.61529e-10
4.9997e-06
2.72934e-11
4.99986e-06
-6.24133e-10
5.00056e-06
-1.42324e-09
5.00158e-06
-1.78777e-09
5.00265e-06
-1.69865e-09
5.00367e-06
-1.6609e-09
5.00472e-06
-1.94976e-09
5.00579e-06
-2.25155e-09
5.0067e-06
-2.08957e-09
5.00715e-06
-1.27423e-09
5.00685e-06
4.9722e-11
5.00618e-06
1.14103e-09
5.00516e-06
1.9722e-09
5.00402e-06
2.26157e-09
5.00299e-06
2.13726e-09
5.00226e-06
1.63495e-09
5.00175e-06
1.35137e-09
5.00138e-06
8.0936e-10
5.00115e-06
3.05678e-10
-3.0967e-10
4.99977e-06
1.52367e-11
4.99993e-06
-9.28781e-10
5.00058e-06
-2.08575e-09
5.00156e-06
-2.68022e-09
5.00267e-06
-2.69492e-09
5.00384e-06
-2.78086e-09
5.00511e-06
-3.27015e-09
5.0064e-06
-3.71804e-09
5.00748e-06
-3.41448e-09
5.00808e-06
-2.14473e-09
5.00808e-06
-1.45344e-10
5.0072e-06
1.90164e-09
5.0058e-06
3.38512e-09
5.00423e-06
3.92683e-09
5.00281e-06
3.67193e-09
5.0018e-06
2.75533e-09
5.00115e-06
2.08358e-09
5.00088e-06
1.16344e-09
5.00096e-06
2.66782e-10
-3.79492e-10
4.99984e-06
-1.16363e-11
5.00003e-06
-1.21487e-09
5.00063e-06
-2.71385e-09
5.00157e-06
-3.58772e-09
5.00273e-06
-3.81939e-09
5.00411e-06
-4.17175e-09
5.00575e-06
-5.00101e-09
5.00759e-06
-5.74804e-09
5.00936e-06
-5.41612e-09
5.0104e-06
-3.44428e-09
5.01033e-06
-2.88294e-10
5.00899e-06
3.13814e-09
5.00661e-06
5.73026e-09
5.00421e-06
6.39666e-09
5.00271e-06
5.30304e-09
5.00209e-06
3.50914e-09
5.00198e-06
2.31179e-09
5.00191e-06
1.33524e-09
5.00163e-06
6.20864e-10
1.4826e-10
4.99993e-06
-5.8239e-11
5.00009e-06
-1.45438e-09
5.00057e-06
-3.23348e-09
5.0014e-06
-4.44512e-09
5.00262e-06
-5.08943e-09
5.00431e-06
-5.93186e-09
5.00647e-06
-7.28432e-09
5.00902e-06
-8.43211e-09
5.01186e-06
-8.49023e-09
5.01414e-06
-5.9172e-09
5.01396e-06
-3.4008e-10
5.01187e-06
5.11315e-09
5.00765e-06
9.90983e-09
5.00365e-06
1.04228e-08
5.00146e-06
7.60391e-09
5.00113e-06
3.97565e-09
5.00152e-06
2.06661e-09
5.00176e-06
1.21375e-09
5.00164e-06
8.39469e-10
4.21642e-10
4.99999e-06
-1.07037e-10
5.00008e-06
-1.59759e-09
5.00033e-06
-3.54622e-09
5.00091e-06
-5.11869e-09
5.00205e-06
-6.3452e-09
5.00415e-06
-8.1423e-09
5.00723e-06
-1.04514e-08
5.01124e-06
-1.25636e-08
5.01496e-06
-1.23548e-08
5.01828e-06
-9.41559e-09
5.01941e-06
-1.61809e-09
5.01513e-06
9.21207e-09
5.00861e-06
1.63857e-08
5.0033e-06
1.57475e-08
5.00129e-06
9.68436e-09
5.00174e-06
3.66579e-09
5.00272e-06
1.24816e-09
5.00304e-06
1.04179e-09
5.00252e-06
1.47499e-09
1.27174e-09
5.00002e-06
-1.37407e-10
4.99994e-06
-1.55953e-09
4.99986e-06
-3.55854e-09
4.99998e-06
-5.38267e-09
5.00074e-06
-7.25805e-09
5.00246e-06
-9.97109e-09
5.00637e-06
-1.4424e-08
5.01345e-06
-1.96856e-08
5.02319e-06
-2.21432e-08
5.03023e-06
-1.66024e-08
5.02795e-06
6.67134e-10
5.01587e-06
2.11975e-08
5.00327e-06
2.88835e-08
4.99783e-06
2.11744e-08
4.99969e-06
7.88576e-09
5.00203e-06
1.44694e-09
5.00315e-06
2.95242e-10
5.00331e-06
1.0407e-09
5.0028e-06
2.11762e-09
1.57491e-09
4.99998e-06
-1.00963e-10
4.99965e-06
-1.26792e-09
4.99898e-06
-3.01563e-09
4.99841e-06
-4.99831e-09
4.99874e-06
-7.76325e-09
4.9998e-06
-1.11409e-08
5.00317e-06
-1.7794e-08
5.00933e-06
-2.57909e-08
5.02425e-06
-3.70561e-08
5.05544e-06
-4.7717e-08
5.04915e-06
6.80686e-09
5.02241e-06
4.7952e-08
4.99736e-06
5.38663e-08
4.99257e-06
2.59151e-08
4.99858e-06
1.90862e-09
5.00324e-06
-3.1078e-09
5.0043e-06
-5.82874e-10
5.00339e-06
2.1247e-09
5.00327e-06
2.36749e-09
9.35978e-10
4.99994e-06
-1.42739e-11
4.99932e-06
-7.03764e-10
4.99778e-06
-1.62965e-09
4.9956e-06
-3.03493e-09
4.99334e-06
-5.69982e-09
4.99311e-06
-1.09878e-08
4.99891e-06
-2.35491e-08
5.01661e-06
-4.33533e-08
5.05513e-06
-7.54192e-08
5.0661e-06
-5.87198e-08
5.04914e-06
2.38144e-08
4.99579e-06
1.01075e-07
4.98855e-06
6.09735e-08
4.99501e-06
1.93843e-08
4.99925e-06
-2.32416e-09
5.00205e-06
-5.81561e-09
5.00188e-06
-2.66928e-10
5.00154e-06
2.64877e-09
5.00234e-06
1.70163e-09
1.22178e-10
5.00006e-06
-3.0382e-11
4.9994e-06
-1.12702e-10
4.99778e-06
-1.77899e-10
4.99476e-06
-2.4318e-10
4.98915e-06
-2.91398e-10
4.97841e-06
-3.16153e-10
4.95527e-06
-3.19468e-10
4.91241e-06
-3.10303e-10
4.83751e-06
-3.46497e-10
4.77933e-06
-3.97212e-10
4.80359e-06
-5.42829e-10
4.90533e-06
-7.68928e-10
4.96706e-06
-8.38741e-10
4.98743e-06
-1.06869e-09
4.98647e-06
-1.38288e-09
4.98235e-06
-1.61268e-09
4.98388e-06
-1.654e-09
4.98858e-06
-1.88046e-09
4.99226e-06
-1.84931e-09
-2.44102e-09
5.00006e-06
-4.40555e-11
4.9994e-06
4.79956e-10
4.99778e-06
1.28127e-09
4.99474e-06
2.55723e-09
4.98912e-06
5.12872e-09
4.97838e-06
1.03616e-08
4.95523e-06
2.29218e-08
4.91236e-06
4.27437e-08
4.8374e-06
7.47802e-08
4.77909e-06
5.80742e-08
4.80351e-06
-2.51136e-08
4.9053e-06
-1.02544e-07
4.96705e-06
-6.26836e-08
4.98724e-06
-2.13445e-08
4.98642e-06
-5.7057e-10
4.98202e-06
2.85706e-09
4.98378e-06
-3.26304e-09
4.98856e-06
-6.49511e-09
4.99212e-06
-5.28951e-09
-4.76573e-09
4.99995e-06
3.57094e-11
4.99932e-06
1.0564e-09
4.99778e-06
2.66923e-09
4.99559e-06
4.53237e-09
4.99332e-06
7.19925e-09
4.99306e-06
1.05369e-08
4.99885e-06
1.71975e-08
5.01653e-06
2.51896e-08
5.05503e-06
3.64166e-08
5.06641e-06
4.68134e-08
5.04889e-06
-7.25492e-09
4.99543e-06
-4.92506e-08
4.98813e-06
-5.5455e-08
4.99489e-06
-2.81496e-08
4.99919e-06
-4.87282e-09
5.0014e-06
7.3055e-10
5.00103e-06
-2.72691e-09
5.0006e-06
-5.89702e-09
5.00147e-06
-6.04446e-09
-5.66132e-09
4.99999e-06
6.68715e-11
4.99964e-06
1.35595e-09
4.99896e-06
3.22869e-09
4.99837e-06
4.93707e-09
4.99866e-06
6.72831e-09
4.99968e-06
9.40602e-09
5.00299e-06
1.38993e-08
5.00909e-06
1.91379e-08
5.02399e-06
2.15689e-08
5.05484e-06
1.58836e-08
5.04892e-06
-1.68239e-09
5.02209e-06
-2.24366e-08
4.99711e-06
-3.05823e-08
4.99231e-06
-2.33885e-08
4.99775e-06
-1.02626e-08
5.00265e-06
-4.05025e-09
5.00311e-06
-3.02155e-09
5.00202e-06
-4.63958e-09
5.00193e-06
-5.82872e-09
-6.19124e-09
5.00003e-06
3.52261e-11
4.99993e-06
1.41221e-09
4.99982e-06
3.24907e-09
4.99991e-06
4.71258e-09
5.00062e-06
5.86305e-09
5.00229e-06
7.62243e-09
5.00619e-06
9.93327e-09
5.01327e-06
1.20332e-08
5.023e-06
1.17942e-08
5.03004e-06
8.73183e-09
5.02769e-06
6.37948e-10
5.01547e-06
-1.03756e-08
5.00267e-06
-1.7856e-08
4.99692e-06
-1.76289e-08
4.99856e-06
-1.18207e-08
5.00083e-06
-6.18232e-09
5.00183e-06
-3.85396e-09
5.00178e-06
-4.41946e-09
5.00094e-06
-4.86469e-09
-5.59194e-09
5e-06
-6.99893e-14
5.00007e-06
1.30061e-09
5.00028e-06
2.97907e-09
5.00082e-06
4.09115e-09
5.00192e-06
4.65794e-09
5.00398e-06
5.46274e-09
5.00699e-06
6.81405e-09
5.01093e-06
7.98038e-09
5.01459e-06
8.02171e-09
5.01787e-06
5.30945e-09
5.01879e-06
-4.47454e-10
5.01441e-06
-6.09256e-09
5.00769e-06
-1.11811e-08
5.00226e-06
-1.21488e-08
5.00007e-06
-9.51518e-09
5.0003e-06
-6.27047e-09
5.00101e-06
-4.40117e-09
5.00093e-06
-4.18265e-09
5.00006e-06
-3.88174e-09
-4.57991e-09
4.99993e-06
-3.07567e-11
5.00007e-06
1.09678e-09
5.00051e-06
2.49971e-09
5.00129e-06
3.28143e-09
5.00246e-06
3.4524e-09
5.00409e-06
3.77914e-09
5.00618e-06
4.6112e-09
5.00866e-06
5.35198e-09
5.0115e-06
4.98384e-09
5.01375e-06
2.87074e-09
5.01339e-06
-2.64912e-10
5.01123e-06
-4.02671e-09
5.00686e-06
-6.81616e-09
5.00264e-06
-7.85412e-09
5.00019e-06
-6.94579e-09
4.99951e-06
-5.44769e-09
4.99957e-06
-4.31808e-09
4.99942e-06
-3.90223e-09
4.99882e-06
-3.18699e-09
-3.80033e-09
4.99984e-06
-4.90733e-11
5e-06
8.42032e-10
5.00056e-06
1.92964e-09
5.00143e-06
2.44324e-09
5.00254e-06
2.39707e-09
5.00387e-06
2.45392e-09
5.00546e-06
2.95166e-09
5.00722e-06
3.42208e-09
5.00884e-06
3.14325e-09
5.00968e-06
1.80443e-09
5.00964e-06
-4.0899e-10
5.00812e-06
-2.58323e-09
5.00557e-06
-4.25595e-09
5.00283e-06
-5.03497e-09
5.00084e-06
-4.82879e-09
4.99976e-06
-4.24039e-09
4.99919e-06
-3.62367e-09
4.99868e-06
-3.29577e-09
4.99806e-06
-2.48643e-09
-2.90018e-09
4.99975e-06
-4.25909e-11
4.99989e-06
5.66723e-10
5.00052e-06
1.29573e-09
5.00146e-06
1.6051e-09
5.00249e-06
1.50344e-09
5.00358e-06
1.458e-09
5.00479e-06
1.72532e-09
5.00607e-06
1.99439e-09
5.00719e-06
1.80218e-09
5.00778e-06
9.82132e-10
5.00746e-06
-2.62018e-10
5.00643e-06
-1.62676e-09
5.00476e-06
-2.55466e-09
5.00284e-06
-3.01483e-09
5.00112e-06
-2.98904e-09
4.99981e-06
-2.81237e-09
4.99881e-06
-2.52883e-09
4.99798e-06
-2.38868e-09
4.99727e-06
-1.72581e-09
-2.052e-09
4.99967e-06
-2.88585e-11
4.99978e-06
2.90078e-10
5.00042e-06
6.58642e-10
5.00135e-06
8.04329e-10
5.00233e-06
7.21598e-10
5.00327e-06
6.70717e-10
5.00423e-06
7.99075e-10
5.00518e-06
9.41296e-10
5.00592e-06
8.52064e-10
5.00627e-06
4.19159e-10
5.00604e-06
-2.00905e-10
5.00512e-06
-7.71288e-10
5.0038e-06
-1.18869e-09
5.00231e-06
-1.409e-09
5.00086e-06
-1.40975e-09
4.99954e-06
-1.38843e-09
4.99838e-06
-1.28446e-09
4.99733e-06
-1.2861e-09
4.99658e-06
-9.28555e-10
-1.30801e-09
4.99965e-06
4.99976e-06
5.00042e-06
5.00139e-06
5.00236e-06
5.00323e-06
5.0041e-06
5.00496e-06
5.00562e-06
5.00584e-06
5.00549e-06
5.00467e-06
5.00355e-06
5.00226e-06
5.00099e-06
4.99971e-06
4.9985e-06
4.99726e-06
4.99637e-06
)
;

boundaryField
{
    sides
    {
        type            calculated;
        value           uniform 0;
    }
    inlet
    {
        type            calculated;
        value           nonuniform List<scalar> 
20
(
-5e-06
-5e-06
-5e-06
-5e-06
-5e-06
-5e-06
-5e-06
-5e-06
-5e-06
-5e-06
-5e-06
-5e-06
-5e-06
-5e-06
-5e-06
-5e-06
-5e-06
-5e-06
-5e-06
-5e-06
)
;
    }
    outlet
    {
        type            calculated;
        value           nonuniform List<scalar> 
20
(
5.00143e-06
5.00102e-06
5.00104e-06
5.00113e-06
5.0014e-06
5.00172e-06
5.00254e-06
5.00396e-06
5.0032e-06
4.99487e-06
4.99449e-06
5.00241e-06
5.0025e-06
5.00039e-06
4.99909e-06
4.99808e-06
4.99719e-06
4.99645e-06
4.99585e-06
4.99507e-06
)
;
    }
    frontAndBack
    {
        type            empty;
        value           nonuniform List<scalar> 0();
    }
}


// ************************************************************************* //
