/*--------------------------------*- C++ -*----------------------------------*\
  =========                 |
  \\      /  F ield         | OpenFOAM: The Open Source CFD Toolbox
   \\    /   O peration     | Website:  https://openfoam.org
    \\  /    A nd           | Version:  9
     \\/     M anipulation  |
\*---------------------------------------------------------------------------*/
FoamFile
{
    format      ascii;
    class       surfaceScalarField;
    location    "24";
    object      ddtCorrDdt0(phi);
}
// * * * * * * * * * * * * * * * * * * * * * * * * * * * * * * * * * * * * * //

dimensions      [0 4 -2 0 0 0 0];

internalField   nonuniform List<scalar> 
760
(
-6.91344e-10
8.34462e-11
-8.21951e-10
-6.51128e-10
-5.18258e-10
-9.109e-10
-5.76359e-10
-6.83068e-10
-1.12917e-09
-1.61528e-10
-1.55557e-09
9.17534e-11
-1.32837e-09
-7.61586e-11
-6.60106e-10
-2.99231e-10
-4.59373e-11
-2.79986e-10
-2.12961e-11
-1.23223e-10
-5.38492e-10
7.15784e-11
-1.28656e-09
2.3769e-10
-1.70273e-09
7.97311e-11
-1.48124e-09
-5.54085e-11
-9.2386e-10
-5.98189e-11
-4.64701e-10
1.7363e-10
-2.32993e-10
6.13797e-10
-2.26074e-10
4.86897e-10
1.24873e-11
-1.17194e-10
-1.69673e-10
-7.06054e-10
-1.33753e-11
-6.48783e-10
-1.12569e-09
-5.25619e-10
-1.92261e-09
-6.00804e-10
-1.3506e-09
-1.08434e-09
-2.46476e-10
-1.48094e-09
2.67738e-10
-1.27808e-09
-2.71985e-11
-6.4158e-10
-4.8496e-10
-1.01764e-10
-5.38953e-10
-3.25801e-11
-1.92681e-10
-5.79013e-10
2.57022e-10
-1.22952e-09
3.90319e-10
-1.59591e-09
1.74099e-10
-1.46412e-09
-1.64859e-10
-9.89689e-10
-1.57294e-10
-5.09566e-10
2.8968e-10
-2.47876e-10
9.93529e-10
-1.36582e-10
7.94371e-10
1.22201e-10
-3.27166e-11
-3.1293e-10
-5.56231e-10
1.08471e-10
-6.68055e-10
-1.50132e-09
-4.51166e-10
-2.38935e-09
-6.07557e-10
-1.71886e-09
-1.04758e-09
-2.5852e-10
-1.34872e-09
5.0518e-10
-1.19652e-09
1.29951e-10
-6.94732e-10
-5.44927e-10
-2.84125e-10
-6.34192e-10
-2.52199e-10
-2.11014e-10
-5.49991e-10
3.32017e-10
-1.16837e-09
4.70402e-10
-1.42243e-09
2.12969e-10
-1.31915e-09
-2.99558e-10
-9.4423e-10
-3.14742e-10
-4.74546e-10
2.90718e-10
-2.74246e-10
1.30803e-09
-4.83761e-10
1.37972e-09
-1.59314e-10
-3.28169e-10
-4.50542e-10
-4.7263e-10
1.28186e-10
-4.47311e-10
-1.60474e-09
-3.57598e-10
-2.6873e-09
-5.78526e-10
-1.86197e-09
-9.29482e-10
-6.45944e-11
-1.18477e-09
8.29377e-10
-1.13967e-09
3.15248e-10
-7.45895e-10
-4.79228e-10
-4.21894e-10
-5.57367e-10
-4.16585e-10
-2.65276e-10
-6.64656e-10
2.78809e-10
-9.41963e-10
4.77383e-10
-1.24735e-09
-1.32362e-11
-1.22098e-09
-4.75887e-10
-9.52063e-10
-4.33529e-10
-6.43538e-10
2.79246e-10
-4.46157e-10
1.3632e-09
9.3924e-12
1.34756e-09
1.40641e-11
-1.55953e-10
-3.78673e-10
-1.95781e-10
1.69055e-10
-2.38979e-10
-1.67331e-09
-2.95784e-10
-2.72746e-09
-5.27299e-10
-1.75828e-09
-7.74871e-10
1.62642e-10
-9.83299e-10
1.1166e-09
-1.02772e-09
5.98197e-10
-7.73527e-10
-2.37389e-10
-7.80658e-10
-7.47926e-10
-3.42293e-10
-1.99682e-10
-8.80129e-10
-3.05837e-10
-9.14141e-10
3.64924e-10
-9.00852e-10
-1.70806e-10
-9.58794e-10
-9.0884e-10
-8.28191e-10
-8.46842e-10
-5.25498e-10
4.30947e-12
-4.34805e-10
1.40359e-09
-5.30354e-10
1.5362e-09
-2.17309e-10
-3.9808e-10
-5.10799e-10
8.90512e-11
1.41385e-10
5.8258e-11
-1.62598e-09
-1.28705e-10
-2.56843e-09
-4.34815e-10
-1.55474e-09
-6.13867e-10
3.78688e-10
-7.7777e-10
1.27578e-09
-8.5222e-10
8.09901e-10
-1.03344e-09
-1.36315e-10
-1.00277e-09
-5.5399e-10
-1.16366e-09
-1.80275e-10
-4.22095e-10
-5.62166e-10
-6.77521e-10
-3.1295e-10
-5.63963e-10
-2.95164e-10
-6.17657e-10
-9.74132e-10
-8.04305e-10
-1.05059e-09
-6.44815e-10
-2.1641e-10
-4.10807e-10
8.70828e-10
1.52591e-12
1.12882e-09
-1.4745e-10
-3.93652e-10
-4.66184e-10
3.78097e-10
1.35817e-10
4.23905e-10
-1.37207e-09
1.22882e-10
-2.13285e-09
-2.35996e-10
-1.23491e-09
-4.14765e-10
4.37316e-10
-5.08563e-10
1.30611e-09
-7.9101e-10
8.43744e-10
-1.27814e-09
-4.56113e-11
-9.97992e-10
-3.35417e-10
-1.96695e-09
-9.92393e-10
-4.22586e-10
2.52543e-09
-2.78555e-10
-2.36562e-10
-5.16686e-10
-7.69218e-10
-4.11956e-10
-1.14849e-09
-4.50522e-10
-1.06345e-09
-6.38903e-10
-2.80987e-10
-2.93943e-10
1.6478e-09
-1.72249e-10
8.91977e-10
-1.3619e-10
-3.35883e-10
-3.65801e-10
6.16585e-10
1.02123e-10
7.61464e-10
-9.67382e-10
3.86074e-10
-1.5552e-09
-4.20693e-11
-8.92478e-10
-1.53067e-10
3.53949e-10
-3.06468e-10
9.89334e-10
-7.223e-10
7.36028e-10
-1.37395e-09
6.62474e-11
-1.99401e-09
-2.996e-10
-1.92493e-10
4.39675e-10
-1.57484e-09
-4.67828e-08
2.82463e-11
3.13156e-10
1.4805e-10
-4.25989e-10
-1.86625e-10
-9.04158e-10
-2.49272e-10
-1.07961e-09
-3.307e-10
-3.55352e-10
-3.5125e-10
3.05224e-10
-1.85649e-10
5.80251e-10
-2.02002e-10
-2.86875e-10
-2.53639e-10
8.41241e-10
5.00596e-12
1.00487e-09
-5.89871e-10
5.52536e-10
-8.79402e-10
1.31547e-10
-5.40792e-10
2.14632e-11
1.23373e-10
-1.06214e-10
4.81737e-10
-6.89404e-10
3.06125e-10
-1.60862e-09
9.89428e-11
-1.94686e-09
1.70589e-10
-3.06953e-09
-6.95248e-10
-6.25311e-10
1.69749e-09
-4.27858e-10
-4.13268e-10
1.04811e-10
-5.70528e-10
3.03521e-11
-5.11654e-10
-1.25883e-10
-8.79155e-10
-2.66038e-10
-3.89958e-10
-2.30037e-10
-7.77091e-10
-3.7459e-12
1.76125e-10
-1.68053e-10
-2.28396e-10
-1.57336e-10
9.86536e-10
-5.80389e-11
1.16551e-09
-9.00866e-11
7.13431e-10
-1.2761e-10
2.71778e-10
-1.87185e-10
1.46957e-10
-2.18274e-10
-7.1868e-12
-2.10173e-10
-6.62324e-10
-1.2505e-10
-1.51971e-09
-6.80948e-11
-2.42503e-09
-7.46815e-12
-1.22634e-09
3.96905e-10
-1.16893e-09
-6.18369e-10
-3.18812e-10
-4.71387e-11
5.16796e-10
1.52875e-10
4.21493e-10
-1.10265e-10
-1.39867e-10
-2.97054e-10
-3.30087e-10
-2.54826e-10
-1.32295e-10
-1.91874e-10
5.05903e-11
-1.65209e-10
-1.48886e-10
-1.37965e-10
6.71995e-11
1.00441e-09
-1.27231e-10
1.15804e-09
4.02961e-10
7.02879e-10
6.28409e-10
2.89437e-10
1.83246e-10
1.52675e-10
-5.5799e-10
2.97732e-11
-8.98561e-10
-6.61336e-10
-6.21787e-10
-1.56781e-09
-1.49101e-10
-2.12589e-09
4.7794e-11
-2.09817e-09
1.75683e-10
-8.58302e-10
4.64841e-09
-9.34168e-13
9.20846e-11
3.40686e-10
3.8499e-10
2.87259e-10
2.97513e-10
-6.81837e-11
2.55436e-10
-2.80689e-10
-5.05379e-11
-9.47587e-11
-5.06786e-10
7.94484e-11
-4.77221e-10
-1.12443e-10
1.42635e-12
2.39178e-10
8.84567e-10
-1.77332e-10
9.97599e-10
8.39856e-10
5.53846e-10
1.36463e-09
1.86419e-10
5.82916e-10
6.14015e-11
-7.53349e-10
-8.71738e-11
-1.38315e-09
-7.0738e-10
-1.02615e-09
-1.57274e-09
-1.98353e-10
-1.98272e-09
2.48254e-10
-2.04985e-09
4.88218e-10
-3.91319e-09
-2.90484e-08
2.43143e-10
1.12555e-09
2.1485e-10
4.20971e-10
1.00638e-10
6.45901e-10
-1.84542e-10
6.52672e-10
-3.72112e-10
-2.87124e-10
-1.54619e-10
-8.83995e-10
4.64941e-11
-8.23258e-10
-1.12622e-10
9.88361e-11
3.81919e-10
6.79133e-10
-1.52919e-10
7.59816e-10
1.28255e-09
3.76988e-10
1.99265e-09
1.13927e-11
9.98732e-10
-1.19265e-10
-7.66943e-10
-2.94765e-10
-1.63534e-09
-7.23399e-10
-1.18298e-09
-1.36487e-09
-1.51769e-10
-1.83182e-09
4.6521e-10
-1.49556e-09
1.65953e-10
2.19641e-09
3.33996e-09
-5.8587e-10
-3.3847e-10
2.24255e-11
4.71902e-10
-1.06106e-10
8.56041e-10
-3.07501e-10
7.17361e-10
-3.46148e-10
-5.01899e-11
-3.13148e-10
-1.05451e-09
-7.8175e-11
-1.18526e-09
-1.64726e-10
9.16315e-11
4.61967e-10
4.31196e-10
-1.33788e-10
4.52462e-10
1.55914e-09
1.23351e-10
2.44667e-09
-1.86356e-10
1.3632e-09
-3.65518e-10
-6.57479e-10
-5.51014e-10
-1.63968e-09
-8.60896e-10
-1.07432e-09
-1.14107e-09
-2.39626e-12
-1.4315e-09
3.28058e-10
-9.64234e-10
6.06814e-10
-1.25343e-09
-6.37193e-10
-3.02528e-10
1.93686e-10
-2.26158e-10
3.24947e-10
-3.85207e-10
6.88494e-10
-5.29558e-10
6.46914e-10
-5.59057e-10
-1.5898e-10
-3.09837e-10
-1.36442e-09
-1.25154e-10
-1.39568e-09
-1.75242e-10
1.2874e-10
5.46203e-10
1.26538e-10
-1.2582e-10
1.34564e-10
1.70574e-09
-1.0009e-10
2.66117e-09
-3.95054e-10
1.60225e-09
-6.26492e-10
-4.23137e-10
-8.14607e-10
-1.41519e-09
-9.03188e-10
-8.3085e-10
-1.13169e-09
1.39301e-10
-1.00418e-09
6.06449e-10
-1.00363e-09
3.03993e-10
-6.68247e-10
1.50143e-13
-6.06771e-10
-1.7493e-10
-5.47255e-10
1.24846e-10
-5.86316e-10
6.22633e-10
-6.81771e-10
5.41055e-10
-6.0364e-10
-3.51739e-10
-3.82824e-10
-1.58588e-09
-2.18708e-10
-1.49127e-09
-1.74885e-10
1.62186e-10
5.8954e-10
-1.51822e-10
-3.43589e-11
-1.91605e-10
1.77886e-09
-2.71455e-10
2.70251e-09
-5.27983e-10
1.72518e-09
-8.29244e-10
-1.38884e-10
-1.02985e-09
-1.05001e-09
-1.06594e-09
-5.42496e-10
-9.82908e-10
3.5165e-10
-7.87097e-10
7.20473e-10
-6.76283e-10
4.52936e-10
-5.60444e-10
-2.40045e-10
-7.95457e-10
-4.50868e-10
-8.12325e-10
-2.91872e-11
-8.30118e-10
4.22052e-10
-7.24485e-10
3.27103e-10
-5.38681e-10
-4.66615e-10
-4.12488e-10
-1.56722e-09
-3.08068e-10
-1.4488e-09
-1.75212e-10
1.26508e-10
5.46992e-10
-3.41277e-10
3.53505e-11
-4.64234e-10
1.52085e-09
-4.26276e-10
2.3859e-09
-6.24439e-10
1.62422e-09
-9.86807e-10
9.12198e-11
-1.25517e-09
-6.67921e-10
-1.18897e-09
-2.31429e-10
-8.54142e-10
4.31971e-10
-4.88619e-10
6.36576e-10
-3.21885e-10
2.72255e-10
-5.54624e-10
-1.84443e-10
-9.02333e-10
-4.83299e-10
-1.09575e-09
-2.25876e-10
-1.0161e-09
1.57521e-10
-7.97525e-10
1.44758e-10
-5.31351e-10
-4.88328e-10
-3.4208e-10
-1.425e-09
-2.39498e-10
-1.30114e-09
-1.1288e-10
8.87982e-11
4.46719e-10
-5.41671e-10
-7.07315e-12
-5.61016e-10
1.05458e-09
-4.66487e-10
1.64821e-09
-6.3862e-10
1.21813e-09
-1.11617e-09
2.21947e-10
-1.44628e-09
-3.22896e-10
-1.35094e-09
-7.39799e-11
-7.50221e-10
3.79516e-10
-2.74943e-10
4.1157e-10
-2.17563e-10
1.40302e-10
-4.59836e-10
-2.6726e-10
-8.99762e-10
-4.56062e-10
-1.26821e-09
-2.97267e-10
-1.23103e-09
-2.23595e-12
-8.5219e-10
1.09487e-11
-4.34937e-10
-4.09562e-10
-2.68259e-10
-1.08024e-09
-2.47665e-10
-1.00139e-09
-9.56315e-11
3.06541e-11
3.08673e-10
-6.90795e-10
6.17728e-11
-7.50181e-10
5.86607e-10
-4.7613e-10
1.03128e-09
-6.13487e-10
7.76997e-10
-1.19503e-09
1.75002e-10
-1.58206e-09
-1.17263e-10
-1.41473e-09
-3.66643e-11
-7.4109e-10
2.00584e-10
-1.55375e-10
2.10072e-10
-4.19137e-11
8.26741e-12
-5.03366e-10
-2.25268e-10
-1.09682e-09
-3.14625e-10
-1.46191e-09
-2.50597e-10
-1.27611e-09
-6.98674e-11
-7.64374e-10
-2.54229e-11
-3.55988e-10
-2.27105e-10
-2.81535e-10
-5.7315e-10
-3.05497e-10
-5.50383e-10
-7.36386e-11
-2.72514e-11
1.48421e-10
-7.72507e-10
-6.92196e-10
-4.84178e-10
-6.24168e-10
-1.1979e-09
-1.67925e-09
-1.46765e-09
-7.54118e-10
-1.21945e-10
9.8481e-13
-4.38084e-10
-1.09652e-09
-1.48147e-09
-1.32302e-09
-8.11141e-10
-3.65598e-10
-2.41718e-10
-2.45864e-10
-6.79338e-12
)
;

boundaryField
{
    sides
    {
        type            calculated;
        value           uniform 0;
    }
    inlet
    {
        type            calculated;
        value           uniform 0;
    }
    outlet
    {
        type            calculated;
        value           nonuniform List<scalar> 
20
(
6.68157e-11
2.10349e-10
-1.84486e-10
2.28437e-10
2.46368e-12
-2.04939e-10
-1.28095e-10
-3.02865e-10
-3.32641e-10
-3.23041e-10
-3.0728e-10
-2.99691e-10
-2.84474e-10
-2.39097e-10
-1.67961e-10
-1.19441e-10
-3.37922e-11
4.2015e-11
1.24497e-10
2.01228e-10
)
;
    }
    frontAndBack
    {
        type            empty;
        value           nonuniform List<scalar> 0();
    }
}


// ************************************************************************* //
