/*--------------------------------*- C++ -*----------------------------------*\
  =========                 |
  \\      /  F ield         | OpenFOAM: The Open Source CFD Toolbox
   \\    /   O peration     | Website:  https://openfoam.org
    \\  /    A nd           | Version:  9
     \\/     M anipulation  |
\*---------------------------------------------------------------------------*/
FoamFile
{
    format      ascii;
    class       volVectorField;
    location    "24";
    object      ddtCorrDdt0(hU);
}
// * * * * * * * * * * * * * * * * * * * * * * * * * * * * * * * * * * * * * //

dimensions      [0 2 -2 0 0 0 0];

internalField   nonuniform List<vector> 
400
(
(1.69133e-07 -6.71654e-10 0)
(-1.45671e-07 -8.2568e-08 0)
(-1.86235e-07 -1.1421e-07 0)
(-6.4491e-08 -8.35338e-08 0)
(-1.36585e-07 -1.846e-08 0)
(-2.72617e-07 8.10233e-09 0)
(-3.11716e-07 -1.53019e-08 0)
(-2.2217e-07 -4.30139e-08 0)
(-8.46124e-08 -3.98852e-08 0)
(-1.51444e-08 -1.57355e-08 0)
(-6.32112e-08 1.71507e-08 0)
(-1.7737e-07 2.7543e-08 0)
(-2.9809e-07 1.77608e-08 0)
(-3.11252e-07 2.87661e-09 0)
(-2.26136e-07 -2.70123e-09 0)
(-1.16228e-07 1.87254e-08 0)
(-4.85341e-08 4.97352e-08 0)
(-9.22851e-08 4.19726e-08 0)
(-5.74555e-08 1.04758e-08 0)
(5.00052e-08 -3.32182e-09 0)
(1.44676e-07 2.55098e-10 0)
(-1.14394e-07 -1.8595e-07 0)
(-1.70901e-07 -2.96946e-07 0)
(-7.48383e-08 -2.17342e-07 0)
(-1.34957e-07 -4.87396e-08 0)
(-2.59278e-07 3.1835e-08 0)
(-2.9766e-07 -1.64037e-08 0)
(-2.15415e-07 -8.78196e-08 0)
(-8.76915e-08 -9.10385e-08 0)
(-2.25422e-08 -3.88495e-08 0)
(-6.6152e-08 2.50818e-08 0)
(-1.79733e-07 5.86478e-08 0)
(-2.77832e-07 2.29261e-08 0)
(-2.99405e-07 -2.39378e-08 0)
(-2.30839e-07 -2.23911e-08 0)
(-1.3371e-07 4.36023e-08 0)
(-6.58854e-08 1.71801e-07 0)
(-7.02925e-08 1.76089e-07 0)
(-2.19841e-08 -1.66074e-08 0)
(5.94587e-08 -4.92486e-08 0)
(1.44463e-07 1.39504e-08 0)
(-1.01278e-07 -2.56641e-07 0)
(-1.57954e-07 -4.30753e-07 0)
(-7.7309e-08 -3.09893e-07 0)
(-1.36641e-07 -5.28582e-08 0)
(-2.40773e-07 7.66709e-08 0)
(-2.73237e-07 8.29778e-09 0)
(-2.10434e-07 -1.07559e-07 0)
(-1.07226e-07 -1.21742e-07 0)
(-6.55567e-08 -4.40516e-08 0)
(-8.48126e-08 4.28823e-08 0)
(-1.73595e-07 7.99665e-08 0)
(-2.55007e-07 2.87919e-08 0)
(-2.67146e-07 -5.44125e-08 0)
(-2.1609e-07 -5.18781e-08 0)
(-1.21773e-07 6.00547e-08 0)
(-5.20292e-08 2.31112e-07 0)
(-1.15755e-07 2.05472e-07 0)
(-9.72588e-08 -1.92927e-08 0)
(2.49175e-09 -6.96361e-08 0)
(1.19099e-07 2.71386e-08 0)
(-6.00416e-08 -3.1581e-07 0)
(-1.2036e-07 -5.20321e-07 0)
(-7.55565e-08 -3.66517e-07 0)
(-1.26068e-07 -3.20245e-08 0)
(-2.14561e-07 1.34423e-07 0)
(-2.48922e-07 4.02539e-08 0)
(-2.02403e-07 -1.10281e-07 0)
(-1.28333e-07 -1.30455e-07 0)
(-8.89658e-08 -5.50862e-08 0)
(-1.20218e-07 8.85818e-08 0)
(-1.60636e-07 1.08072e-07 0)
(-2.12214e-07 2.05193e-08 0)
(-2.43311e-07 -8.30317e-08 0)
(-2.05795e-07 -8.45318e-08 0)
(-1.49569e-07 5.87618e-08 0)
(-1.1132e-07 2.87288e-07 0)
(-5.08674e-08 2.61382e-07 0)
(1.52923e-09 -4.64567e-08 0)
(2.58474e-08 -9.0866e-08 0)
(1.04332e-07 3.32197e-08 0)
(2.33172e-09 -3.31448e-07 0)
(-8.62946e-08 -5.51098e-07 0)
(-7.95933e-08 -3.70809e-07 0)
(-1.14136e-07 6.49928e-09 0)
(-1.77178e-07 1.93535e-07 0)
(-2.09049e-07 8.70089e-08 0)
(-1.9245e-07 -7.8157e-08 0)
(-1.64219e-07 -1.32834e-07 0)
(-1.24452e-07 -5.88497e-08 0)
(-1.12668e-07 1.28849e-08 0)
(-1.97119e-07 7.45746e-08 0)
(-1.77046e-07 -1.75286e-08 0)
(-1.78297e-07 -1.26927e-07 0)
(-1.77586e-07 -1.181e-07 0)
(-1.20482e-07 3.0902e-08 0)
(-7.7774e-08 2.91345e-07 0)
(-1.21246e-07 2.93789e-07 0)
(-8.49626e-08 -5.31769e-08 0)
(-8.95465e-09 -9.99325e-08 0)
(9.1157e-08 3.53443e-08 0)
(7.21642e-08 -3.32302e-07 0)
(-3.22152e-08 -5.40527e-07 0)
(-6.95924e-08 -3.39721e-07 0)
(-9.73062e-08 5.17941e-08 0)
(-1.39814e-07 2.40452e-07 0)
(-1.69191e-07 1.38032e-07 0)
(-1.96252e-07 -4.42304e-08 0)
(-1.87287e-07 -1.32962e-07 0)
(-2.44461e-07 -3.69139e-08 0)
(-1.60825e-07 -5.1479e-08 0)
(-1.14132e-07 2.81684e-08 0)
(-1.23853e-07 -4.83429e-08 0)
(-1.09251e-07 -1.99604e-07 0)
(-1.38336e-07 -1.93576e-07 0)
(-1.45206e-07 -2.00018e-08 0)
(-1.15707e-07 2.14326e-07 0)
(-1.49608e-08 2.22314e-07 0)
(-7.62666e-09 -5.65814e-08 0)
(-5.37463e-08 -8.5425e-08 0)
(8.05144e-08 3.17986e-08 0)
(1.4951e-07 -3.00446e-07 0)
(3.76485e-08 -4.80357e-07 0)
(-4.23843e-08 -2.86382e-07 0)
(-6.8157e-08 7.91576e-08 0)
(-8.7314e-08 2.58687e-07 0)
(-1.37308e-07 1.6455e-07 0)
(-1.95006e-07 -1.00402e-08 0)
(-2.3785e-07 -8.76049e-08 0)
(-2.69368e-07 -9.97823e-08 0)
(-2.92144e-07 5.64432e-08 0)
(-4.38028e-08 -7.24053e-08 0)
(-9.53574e-08 -1.08465e-07 0)
(-9.40277e-08 -2.19041e-07 0)
(-7.53171e-08 -2.36729e-07 0)
(-1.0759e-07 -6.44722e-08 0)
(-9.64764e-08 2.13172e-07 0)
(-3.22172e-08 2.30776e-07 0)
(-1.6924e-08 -8.41071e-08 0)
(-4.65122e-08 -9.35409e-08 0)
(6.83135e-08 2.76077e-08 0)
(2.16663e-07 -2.30745e-07 0)
(1.03544e-07 -3.70709e-07 0)
(-8.87388e-09 -2.16887e-07 0)
(-3.22644e-08 7.63792e-08 0)
(-4.57142e-08 2.29256e-07 0)
(-9.83729e-08 1.57212e-07 0)
(-1.99392e-07 1.48366e-08 0)
(-3.2594e-07 -4.88159e-08 0)
(-2.42125e-07 -6.85708e-08 0)
(-1.32967e-07 -4.29902e-08 0)
(-2.25109e-07 4.52444e-09 0)
(4.92942e-08 -1.17167e-07 0)
(-6.63528e-09 -1.89268e-07 0)
(-4.88637e-08 -1.91372e-07 0)
(-5.79154e-08 -7.65951e-08 0)
(-7.26306e-08 1.54658e-07 0)
(-3.47708e-08 1.69341e-07 0)
(-1.85122e-08 -4.872e-08 0)
(-7.84176e-08 -6.17295e-08 0)
(6.56272e-08 1.17302e-08 0)
(2.71389e-07 -1.54207e-07 0)
(1.48116e-07 -2.43232e-07 0)
(1.23845e-08 -1.42577e-07 0)
(-1.05459e-09 4.92348e-08 0)
(-5.5357e-09 1.51884e-07 0)
(-8.02576e-08 1.12465e-07 0)
(-2.09089e-07 2.38161e-08 0)
(-3.23264e-07 -1.68835e-09 0)
(-4.78222e-07 -1.19004e-08 0)
(-4.73079e-07 -5.51638e-08 0)
(-5.86017e-08 9.30911e-09 0)
(-5.61365e-08 -9.84484e-08 0)
(2.79818e-08 -1.4938e-07 0)
(-1.02339e-08 -1.276e-07 0)
(-4.73789e-08 -7.37267e-08 0)
(-5.17012e-08 4.25032e-08 0)
(3.90762e-09 7.02675e-08 0)
(9.11581e-09 -5.31336e-08 0)
(-8.61817e-08 -3.57313e-08 0)
(6.50678e-08 -6.04973e-09 0)
(3.07298e-07 -6.95797e-08 0)
(1.83609e-07 -1.03543e-07 0)
(3.60665e-08 -7.1137e-08 0)
(1.91117e-08 -6.82433e-09 0)
(1.50565e-08 3.206e-08 0)
(-5.28782e-08 2.51008e-08 0)
(-2.08136e-07 6.76879e-09 0)
(-3.78384e-07 2.33683e-08 0)
(-3.69348e-07 1.12166e-08 0)
(-2.21154e-07 1.7472e-08 0)
(-2.16138e-07 -8.48871e-08 0)
(2.46911e-08 -4.36172e-08 0)
(1.00277e-07 -6.67764e-08 0)
(3.71308e-08 -8.00144e-08 0)
(-5.33144e-08 -6.63677e-08 0)
(-5.96145e-08 -1.94409e-08 0)
(2.76384e-08 -5.89969e-09 0)
(1.80508e-08 -4.93207e-08 0)
(-8.63607e-08 -8.21236e-09 0)
(6.73565e-08 -1.79012e-08 0)
(3.08378e-07 3.28818e-08 0)
(1.82391e-07 5.33915e-08 0)
(3.60711e-08 -1.02276e-09 0)
(2.17055e-08 -7.82736e-08 0)
(1.83625e-08 -1.11259e-07 0)
(-5.15185e-08 -7.76201e-08 0)
(-2.04762e-07 -2.12152e-08 0)
(-3.67159e-07 -3.05865e-09 0)
(-3.85752e-07 4.03546e-08 0)
(-3.47278e-07 1.26045e-07 0)
(-1.03483e-07 2.8274e-08 0)
(2.68506e-08 5.55598e-08 0)
(6.56473e-08 2.38738e-08 0)
(3.28063e-08 9.25936e-09 0)
(-3.86767e-08 -2.27412e-08 0)
(-5.1994e-08 -6.16545e-08 0)
(3.29993e-08 -6.11745e-08 0)
(2.65611e-08 -3.94896e-09 0)
(-8.21501e-08 3.53598e-08 0)
(6.95548e-08 -3.15369e-08 0)
(2.7487e-07 1.22257e-07 0)
(1.49066e-07 1.99196e-07 0)
(1.67741e-08 7.78821e-08 0)
(8.91283e-09 -1.28757e-07 0)
(1.39866e-09 -2.29558e-07 0)
(-8.07665e-08 -1.72562e-07 0)
(-2.09834e-07 -4.72861e-08 0)
(-3.50282e-07 2.44702e-08 0)
(-2.21887e-07 5.95618e-08 0)
(-9.29837e-07 -2.5641e-08 0)
(-2.3585e-07 1.16215e-07 0)
(5.02127e-08 8.2377e-08 0)
(2.63912e-08 1.0398e-07 0)
(-1.11683e-08 9.04153e-08 0)
(-5.26347e-08 7.74554e-09 0)
(-5.7061e-08 -1.08494e-07 0)
(1.147e-08 -1.23492e-07 0)
(2.09968e-08 9.32555e-09 0)
(-7.65357e-08 6.25798e-08 0)
(7.48224e-08 -3.66119e-08 0)
(2.21213e-07 2.08899e-07 0)
(1.04536e-07 3.37633e-07 0)
(-3.87334e-09 1.63042e-07 0)
(-2.43024e-08 -1.49252e-07 0)
(-4.24889e-08 -3.04554e-07 0)
(-9.79481e-08 -2.22432e-07 0)
(-1.97758e-07 -5.17311e-08 0)
(-2.8795e-07 6.29022e-08 0)
(-5.24955e-07 8.10723e-08 0)
(3.83692e-07 -1.78002e-08 0)
(-4.64389e-09 8.07646e-08 0)
(-6.33806e-08 9.0038e-08 0)
(-5.0295e-11 1.43939e-07 0)
(-4.13497e-08 1.28487e-07 0)
(-6.65395e-08 -6.64522e-09 0)
(-6.87676e-08 -2.07808e-07 0)
(-2.05724e-08 -2.11107e-07 0)
(-3.71559e-09 1.66588e-08 0)
(-7.21801e-08 8.62752e-08 0)
(8.61265e-08 -3.25945e-08 0)
(1.55991e-07 2.85137e-07 0)
(4.16906e-08 4.54699e-07 0)
(-3.4747e-08 2.43257e-07 0)
(-6.10394e-08 -1.41169e-07 0)
(-8.82346e-08 -3.28834e-07 0)
(-1.40961e-07 -2.23147e-07 0)
(-1.98981e-07 -2.23862e-08 0)
(-2.62413e-07 7.41807e-08 0)
(-2.23672e-07 7.58743e-08 0)
(-2.47621e-07 1.6213e-07 0)
(-1.64006e-07 -5.40727e-09 0)
(-4.73506e-08 8.14836e-08 0)
(-5.87581e-08 1.59778e-07 0)
(-8.59302e-08 1.50542e-07 0)
(-1.10573e-07 -2.54417e-08 0)
(-9.15673e-08 -2.74853e-07 0)
(-2.32184e-08 -2.6963e-07 0)
(-1.84199e-08 2.39856e-08 0)
(-6.2563e-08 1.04468e-07 0)
(9.53903e-08 -2.97867e-08 0)
(8.18675e-08 3.29114e-07 0)
(-1.98032e-08 5.20775e-07 0)
(-6.10367e-08 3.04528e-07 0)
(-9.64051e-08 -1.0502e-07 0)
(-1.43137e-07 -3.06148e-07 0)
(-1.80978e-07 -1.89315e-07 0)
(-2.07234e-07 1.95176e-08 0)
(-2.10671e-07 1.00303e-07 0)
(-2.11722e-07 7.90954e-08 0)
(-1.79293e-07 -3.55203e-08 0)
(-1.27716e-07 -2.87293e-08 0)
(-1.19536e-07 4.1617e-08 0)
(-1.02191e-07 1.39494e-07 0)
(-1.21164e-07 1.2341e-07 0)
(-1.27502e-07 -4.85634e-08 0)
(-9.63927e-08 -2.88676e-07 0)
(-5.16758e-08 -2.89543e-07 0)
(-3.98974e-08 2.31699e-08 0)
(-4.21737e-08 1.13211e-07 0)
(1.08692e-07 -2.00695e-08 0)
(7.0075e-09 3.51437e-07 0)
(-7.65598e-08 5.46904e-07 0)
(-7.3427e-08 3.41318e-07 0)
(-1.21226e-07 -5.52709e-08 0)
(-1.87241e-07 -2.47375e-07 0)
(-2.21874e-07 -1.31978e-07 0)
(-2.17619e-07 5.78422e-08 0)
(-1.7583e-07 1.36603e-07 0)
(-1.61699e-07 7.78199e-08 0)
(-1.33499e-07 -8.56644e-09 0)
(-1.39744e-07 -6.08482e-08 0)
(-1.51694e-07 6.76364e-09 0)
(-1.61375e-07 9.67281e-08 0)
(-1.47973e-07 8.82583e-08 0)
(-1.11434e-07 -7.50841e-08 0)
(-9.07629e-08 -3.19567e-07 0)
(-8.21367e-08 -3.05166e-07 0)
(-5.78395e-08 3.14311e-08 0)
(-2.26983e-08 1.17696e-07 0)
(1.25775e-07 -3.56405e-09 0)
(-5.07117e-08 3.31086e-07 0)
(-1.25241e-07 5.1621e-07 0)
(-8.40183e-08 3.42725e-07 0)
(-1.39903e-07 -1.27918e-09 0)
(-2.2605e-07 -1.71237e-07 0)
(-2.59953e-07 -7.58484e-08 0)
(-2.20133e-07 8.1855e-08 0)
(-1.48107e-07 1.39654e-07 0)
(-9.1784e-08 7.35336e-08 0)
(-9.00329e-08 -3.10296e-08 0)
(-1.47747e-07 -8.64063e-08 0)
(-2.00379e-07 -1.98843e-08 0)
(-2.01065e-07 6.68235e-08 0)
(-1.66236e-07 5.56969e-08 0)
(-1.20624e-07 -9.98026e-08 0)
(-8.40722e-08 -3.17188e-07 0)
(-7.27851e-08 -2.87802e-07 0)
(-5.1834e-08 2.76214e-08 0)
(8.00876e-10 1.03893e-07 0)
(1.35308e-07 2.52348e-09 0)
(-8.62357e-08 2.72312e-07 0)
(-1.4488e-07 4.2283e-07 0)
(-7.79381e-08 2.96179e-07 0)
(-1.47681e-07 3.24855e-08 0)
(-2.61027e-07 -9.8857e-08 0)
(-2.98299e-07 -2.36981e-08 0)
(-2.31062e-07 9.40526e-08 0)
(-1.18636e-07 1.19254e-07 0)
(-5.57399e-08 5.06246e-08 0)
(-7.87268e-08 -5.04687e-08 0)
(-1.31726e-07 -1.01861e-07 0)
(-2.06807e-07 -5.13662e-08 0)
(-2.45949e-07 1.82401e-08 0)
(-1.99339e-07 1.33068e-08 0)
(-1.09224e-07 -9.19007e-08 0)
(-5.97943e-08 -2.47532e-07 0)
(-7.73647e-08 -2.3053e-07 0)
(-6.10781e-08 6.53204e-09 0)
(2.12359e-08 7.41779e-08 0)
(1.55934e-07 -5.76301e-10 0)
(-1.36696e-07 1.6358e-07 0)
(-1.67091e-07 2.6758e-07 0)
(-6.99184e-08 1.98033e-07 0)
(-1.51165e-07 3.82695e-08 0)
(-2.80436e-07 -4.23766e-08 0)
(-3.19722e-07 -4.10632e-09 0)
(-2.36996e-07 6.76517e-08 0)
(-1.08659e-07 7.11643e-08 0)
(-2.93106e-08 1.46761e-08 0)
(-5.73626e-08 -4.78912e-08 0)
(-1.57867e-07 -8.10845e-08 0)
(-2.53273e-07 -5.99928e-08 0)
(-2.65853e-07 -1.17242e-08 0)
(-1.89261e-07 -3.21902e-09 0)
(-9.02068e-08 -6.66847e-08 0)
(-5.29817e-08 -1.73556e-07 0)
(-9.35387e-08 -1.64388e-07 0)
(-7.18657e-08 -2.94916e-09 0)
(4.19426e-08 4.68484e-08 0)
(1.51649e-07 -9.96726e-10 0)
(-1.33278e-07 4.31455e-08 0)
(-1.682e-07 8.48104e-08 0)
(-6.99196e-08 6.74351e-08 0)
(-1.50437e-07 1.87701e-08 0)
(-2.89827e-07 -9.00274e-09 0)
(-3.34069e-07 -3.79838e-09 0)
(-2.48478e-07 1.57179e-08 0)
(-1.03745e-07 1.52222e-08 0)
(-2.22523e-08 -2.61816e-09 0)
(-4.74871e-08 -2.91182e-08 0)
(-1.50974e-07 -3.81128e-08 0)
(-2.51693e-07 -2.07431e-08 0)
(-2.72339e-07 4.90784e-10 0)
(-2.00159e-07 -7.41024e-10 0)
(-9.82333e-08 -2.86668e-08 0)
(-4.92554e-08 -6.93588e-08 0)
(-8.18992e-08 -6.37562e-08 0)
(-6.18076e-08 -1.31605e-09 0)
(5.80764e-08 1.64608e-08 0)
)
;

boundaryField
{
    sides
    {
        type            calculated;
        value           nonuniform List<vector> 
40
(
(1.51649e-07 0 0)
(-1.33278e-07 0 0)
(-1.682e-07 0 0)
(-6.99196e-08 0 0)
(-1.50437e-07 0 0)
(-2.89827e-07 0 0)
(-3.34069e-07 0 0)
(-2.48478e-07 0 0)
(-1.03745e-07 0 0)
(-2.22523e-08 0 0)
(-4.74871e-08 0 0)
(-1.50974e-07 0 0)
(-2.51693e-07 0 0)
(-2.72339e-07 0 0)
(-2.00159e-07 0 0)
(-9.82333e-08 0 0)
(-4.92554e-08 0 0)
(-8.18992e-08 0 0)
(-6.18076e-08 0 0)
(5.80764e-08 0 0)
(1.69133e-07 0 0)
(-1.45671e-07 0 0)
(-1.86235e-07 0 0)
(-6.4491e-08 0 0)
(-1.36585e-07 0 0)
(-2.72617e-07 0 0)
(-3.11716e-07 0 0)
(-2.2217e-07 0 0)
(-8.46124e-08 0 0)
(-1.51444e-08 0 0)
(-6.32112e-08 0 0)
(-1.7737e-07 0 0)
(-2.9809e-07 0 0)
(-3.11252e-07 0 0)
(-2.26136e-07 0 0)
(-1.16228e-07 0 0)
(-4.85341e-08 0 0)
(-9.22851e-08 0 0)
(-5.74555e-08 0 0)
(5.00052e-08 0 0)
)
;
    }
    inlet
    {
        type            calculated;
        value           uniform (0 0 0);
    }
    outlet
    {
        type            calculated;
        value           nonuniform List<vector> 
20
(
(5.00052e-08 -3.32182e-09 0)
(5.94587e-08 -4.92486e-08 0)
(2.49175e-09 -6.96361e-08 0)
(2.58474e-08 -9.0866e-08 0)
(-8.95465e-09 -9.99325e-08 0)
(-5.37463e-08 -8.5425e-08 0)
(-4.65122e-08 -9.35409e-08 0)
(-7.84176e-08 -6.17295e-08 0)
(-8.61817e-08 -3.57313e-08 0)
(-8.63607e-08 -8.21236e-09 0)
(-8.21501e-08 3.53598e-08 0)
(-7.65357e-08 6.25798e-08 0)
(-7.21801e-08 8.62752e-08 0)
(-6.2563e-08 1.04468e-07 0)
(-4.21737e-08 1.13211e-07 0)
(-2.26983e-08 1.17696e-07 0)
(8.00876e-10 1.03893e-07 0)
(2.12359e-08 7.41779e-08 0)
(4.19426e-08 4.68484e-08 0)
(5.80764e-08 1.64608e-08 0)
)
;
    }
    frontAndBack
    {
        type            empty;
    }
}


// ************************************************************************* //
