/*--------------------------------*- C++ -*----------------------------------*\
  =========                 |
  \\      /  F ield         | OpenFOAM: The Open Source CFD Toolbox
   \\    /   O peration     | Website:  https://openfoam.org
    \\  /    A nd           | Version:  9
     \\/     M anipulation  |
\*---------------------------------------------------------------------------*/
FoamFile
{
    format      ascii;
    class       volScalarField;
    location    "24";
    object      h;
}
// * * * * * * * * * * * * * * * * * * * * * * * * * * * * * * * * * * * * * //

dimensions      [0 1 0 0 0 0 0];

internalField   nonuniform List<scalar> 
400
(
0.00999881
0.00999899
0.00999911
0.00999916
0.00999921
0.0099992
0.00999909
0.00999887
0.00999857
0.00999828
0.00999812
0.00999816
0.00999842
0.00999883
0.00999929
0.0099997
0.00999997
0.0100001
0.0100001
0.01
0.00999882
0.00999901
0.0099991
0.00999913
0.00999916
0.00999912
0.00999898
0.00999872
0.00999838
0.00999807
0.00999788
0.00999793
0.00999822
0.00999866
0.00999915
0.00999957
0.00999985
0.00999996
0.00999998
0.00999999
0.00999896
0.00999911
0.00999919
0.0099992
0.00999919
0.00999911
0.00999891
0.00999861
0.00999823
0.00999789
0.00999768
0.0099977
0.009998
0.00999849
0.00999907
0.00999959
0.00999993
0.0100001
0.0100001
0.01
0.00999917
0.0099993
0.00999935
0.00999932
0.00999926
0.0099991
0.00999883
0.00999844
0.00999796
0.00999751
0.00999724
0.00999727
0.00999766
0.00999831
0.00999904
0.0099996
0.0099999
0.00999998
0.00999995
0.00999997
0.00999945
0.00999954
0.00999956
0.0099995
0.00999937
0.00999914
0.00999877
0.00999825
0.00999763
0.00999701
0.00999658
0.0099966
0.00999716
0.00999814
0.0099992
0.00999996
0.0100003
0.0100002
0.01
0.00999998
0.00999977
0.00999983
0.00999982
0.00999973
0.00999956
0.00999926
0.00999876
0.00999806
0.00999723
0.00999639
0.00999584
0.00999577
0.00999655
0.00999798
0.00999937
0.0100002
0.0100003
0.0100001
0.0099999
0.00999991
0.0100001
0.0100001
0.0100001
0.01
0.00999986
0.00999956
0.009999
0.00999806
0.00999662
0.00999494
0.00999374
0.00999414
0.00999626
0.00999907
0.010001
0.0100013
0.0100006
0.00999994
0.00999969
0.00999986
0.0100004
0.0100004
0.0100005
0.0100004
0.0100003
0.0100001
0.00999958
0.00999862
0.00999688
0.00999397
0.0099902
0.00998992
0.00999415
0.00999985
0.010003
0.0100028
0.010001
0.00999971
0.00999943
0.00999981
0.0100006
0.0100007
0.0100008
0.0100009
0.010001
0.0100011
0.0100006
0.00999877
0.00999499
0.00998939
0.00998656
0.00998952
0.00999776
0.0100034
0.0100041
0.0100021
0.0100001
0.00999921
0.00999938
0.00999986
0.0100007
0.0100008
0.0100009
0.0100012
0.0100018
0.0100032
0.010005
0.0100071
0.0100044
0.00897819
0.00895229
0.00997568
0.0100086
0.0100175
0.0100101
0.010002
0.00999864
0.00999878
0.00999973
0.0100001
0.0100006
0.0100007
0.0100008
0.0100012
0.0100018
0.0100031
0.0100049
0.010007
0.0100043
0.00897818
0.00895224
0.00997567
0.0100086
0.0100175
0.0100101
0.010002
0.00999865
0.00999877
0.0099997
0.0100001
0.0100005
0.0100005
0.0100006
0.0100007
0.0100009
0.0100009
0.0100004
0.00999859
0.00999481
0.00998926
0.00998634
0.00998938
0.00999766
0.0100033
0.010004
0.010002
0.01
0.00999921
0.00999941
0.00999988
0.0100001
0.0100002
0.0100002
0.0100001
0.01
0.0099998
0.00999931
0.00999835
0.00999662
0.00999367
0.00999007
0.00998971
0.00999391
0.0099996
0.0100028
0.0100026
0.0100009
0.00999966
0.00999942
0.00999981
0.0099997
0.00999973
0.00999972
0.00999964
0.00999947
0.00999916
0.00999862
0.00999767
0.00999623
0.00999455
0.00999338
0.00999377
0.00999596
0.0099988
0.0100007
0.0100011
0.0100005
0.00999981
0.0099996
0.00999982
0.00999924
0.0099993
0.00999929
0.00999921
0.00999904
0.00999875
0.00999826
0.00999757
0.00999675
0.00999595
0.00999538
0.00999537
0.0099962
0.00999765
0.00999908
0.00999993
0.0100001
0.00999992
0.00999979
0.00999987
0.00999878
0.00999887
0.0099989
0.00999885
0.00999873
0.00999851
0.00999815
0.00999765
0.00999706
0.00999645
0.00999604
0.00999607
0.00999666
0.00999768
0.00999879
0.00999959
0.00999994
0.00999995
0.00999989
0.00999992
0.00999835
0.00999848
0.00999855
0.00999854
0.00999849
0.00999835
0.00999809
0.00999771
0.00999726
0.00999685
0.00999661
0.00999667
0.00999709
0.00999779
0.00999858
0.00999923
0.00999962
0.00999977
0.00999983
0.00999992
0.00999799
0.00999817
0.00999825
0.00999828
0.00999828
0.00999821
0.00999804
0.00999775
0.00999738
0.00999705
0.00999687
0.00999694
0.00999728
0.00999783
0.00999846
0.00999903
0.00999943
0.00999966
0.0099998
0.00999992
0.00999773
0.00999791
0.00999802
0.00999808
0.00999812
0.00999811
0.009998
0.00999778
0.00999748
0.00999721
0.00999706
0.00999713
0.00999744
0.00999792
0.00999848
0.00999899
0.00999937
0.00999961
0.00999978
0.00999992
0.00999753
0.00999774
0.00999784
0.0099979
0.00999796
0.00999798
0.0099979
0.0099977
0.00999743
0.00999717
0.00999704
0.00999713
0.00999743
0.00999789
0.0099984
0.00999886
0.00999923
0.00999948
0.00999968
0.00999987
)
;

boundaryField
{
    sides
    {
        type            zeroGradient;
    }
    inlet
    {
        type            zeroGradient;
    }
    outlet
    {
        type            fixedValue;
        value           uniform 0.01;
    }
    frontAndBack
    {
        type            empty;
    }
}


// ************************************************************************* //
