/*--------------------------------*- C++ -*----------------------------------*\
  =========                 |
  \\      /  F ield         | OpenFOAM: The Open Source CFD Toolbox
   \\    /   O peration     | Website:  https://openfoam.org
    \\  /    A nd           | Version:  9
     \\/     M anipulation  |
\*---------------------------------------------------------------------------*/
FoamFile
{
    format      ascii;
    class       volScalarField;
    location    "24";
    object      h_0;
}
// * * * * * * * * * * * * * * * * * * * * * * * * * * * * * * * * * * * * * //

dimensions      [0 1 0 0 0 0 0];

internalField   nonuniform List<scalar> 
400
(
0.0099986
0.00999878
0.0099989
0.00999897
0.00999905
0.00999909
0.00999906
0.00999892
0.00999868
0.0099984
0.00999821
0.00999819
0.00999839
0.00999878
0.00999925
0.00999968
0.01
0.0100001
0.0100001
0.0100001
0.00999863
0.0099988
0.00999889
0.00999896
0.00999901
0.00999903
0.00999896
0.00999878
0.0099985
0.00999819
0.00999797
0.00999797
0.0099982
0.00999861
0.00999911
0.00999956
0.00999987
0.01
0.01
0.01
0.00999878
0.00999893
0.00999902
0.00999905
0.00999907
0.00999904
0.00999892
0.00999868
0.00999836
0.00999802
0.00999779
0.00999776
0.009998
0.00999847
0.00999904
0.00999958
0.00999995
0.0100001
0.0100001
0.01
0.00999901
0.00999915
0.00999921
0.0099992
0.00999917
0.00999907
0.00999885
0.00999852
0.00999809
0.00999765
0.00999735
0.00999734
0.00999768
0.00999831
0.00999903
0.00999959
0.0099999
0.00999999
0.00999997
0.00999997
0.00999932
0.00999943
0.00999946
0.00999942
0.00999933
0.00999914
0.00999881
0.00999834
0.00999775
0.00999715
0.00999668
0.00999669
0.00999721
0.00999815
0.00999919
0.00999995
0.0100002
0.0100002
0.01
0.00999998
0.00999968
0.00999975
0.00999976
0.00999969
0.00999955
0.00999929
0.00999882
0.00999814
0.00999732
0.0099965
0.00999593
0.00999585
0.00999663
0.00999801
0.00999937
0.0100002
0.0100003
0.0100001
0.00999987
0.0099999
0.01
0.0100001
0.0100001
0.01
0.00999989
0.00999961
0.00999906
0.00999811
0.00999669
0.00999497
0.00999389
0.00999421
0.00999633
0.00999912
0.010001
0.0100012
0.0100006
0.0099999
0.00999967
0.00999985
0.0100004
0.0100004
0.0100005
0.0100005
0.0100004
0.0100001
0.00999963
0.00999864
0.00999689
0.009994
0.00999019
0.00999005
0.00999424
0.0099999
0.010003
0.0100028
0.010001
0.00999967
0.0099994
0.0099998
0.0100006
0.0100007
0.0100008
0.010001
0.0100011
0.0100012
0.0100006
0.00999877
0.00999497
0.0099894
0.0099867
0.00998959
0.00999786
0.0100034
0.0100041
0.0100021
0.01
0.00999916
0.00999934
0.00999985
0.0100007
0.0100008
0.010001
0.0100013
0.0100019
0.0100032
0.010005
0.0100071
0.0100043
0.00897819
0.00895227
0.00997579
0.0100087
0.0100176
0.0100102
0.010002
0.00999859
0.00999872
0.00999968
0.0100001
0.0100006
0.0100008
0.0100009
0.0100013
0.0100019
0.0100032
0.010005
0.010007
0.0100043
0.00897814
0.00895233
0.00997576
0.0100087
0.0100176
0.0100101
0.010002
0.00999859
0.00999871
0.00999965
0.0100001
0.0100004
0.0100005
0.0100007
0.0100008
0.010001
0.010001
0.0100004
0.00999859
0.00999479
0.00998924
0.00998635
0.0099895
0.00999776
0.0100033
0.010004
0.010002
0.00999995
0.00999915
0.00999936
0.00999986
0.0100001
0.0100002
0.0100002
0.0100002
0.0100001
0.00999986
0.00999935
0.00999838
0.00999664
0.00999372
0.00999016
0.00998977
0.00999401
0.00999966
0.0100028
0.0100026
0.0100009
0.00999961
0.00999938
0.0099998
0.00999964
0.0099997
0.00999971
0.00999964
0.0099995
0.00999921
0.00999868
0.00999773
0.00999629
0.00999462
0.00999345
0.00999388
0.00999604
0.00999885
0.0100007
0.0100011
0.0100004
0.00999977
0.00999957
0.00999982
0.00999914
0.00999922
0.00999923
0.00999917
0.00999904
0.00999878
0.00999832
0.00999766
0.00999686
0.00999606
0.0099955
0.00999546
0.00999627
0.00999769
0.00999908
0.00999991
0.0100001
0.00999991
0.00999978
0.00999987
0.00999865
0.00999876
0.0099988
0.00999876
0.00999868
0.00999851
0.00999819
0.00999774
0.00999718
0.00999659
0.00999616
0.00999617
0.00999672
0.0099977
0.00999878
0.00999958
0.00999993
0.00999995
0.00999989
0.00999992
0.0099982
0.00999833
0.0099984
0.00999841
0.0099984
0.00999831
0.00999812
0.0099978
0.00999739
0.00999699
0.00999673
0.00999675
0.00999712
0.00999778
0.00999856
0.00999922
0.00999962
0.00999979
0.00999985
0.00999992
0.00999781
0.00999798
0.00999807
0.00999812
0.00999816
0.00999815
0.00999804
0.00999782
0.00999751
0.00999718
0.00999697
0.00999699
0.00999729
0.00999781
0.00999844
0.00999902
0.00999945
0.0099997
0.00999983
0.00999993
0.00999752
0.00999771
0.00999783
0.0099979
0.00999797
0.00999801
0.00999798
0.00999784
0.0099976
0.00999733
0.00999715
0.00999717
0.00999743
0.00999789
0.00999846
0.00999899
0.0099994
0.00999966
0.00999982
0.00999993
0.00999732
0.00999752
0.00999763
0.00999771
0.0099978
0.00999786
0.00999786
0.00999774
0.00999753
0.00999729
0.00999713
0.00999716
0.00999741
0.00999785
0.00999837
0.00999886
0.00999927
0.00999954
0.00999973
0.00999989
)
;

boundaryField
{
    sides
    {
        type            zeroGradient;
    }
    inlet
    {
        type            zeroGradient;
    }
    outlet
    {
        type            fixedValue;
        value           uniform 0.01;
    }
    frontAndBack
    {
        type            empty;
    }
}


// ************************************************************************* //
