/*--------------------------------*- C++ -*----------------------------------*\
  =========                 |
  \\      /  F ield         | OpenFOAM: The Open Source CFD Toolbox
   \\    /   O peration     | Website:  https://openfoam.org
    \\  /    A nd           | Version:  9
     \\/     M anipulation  |
\*---------------------------------------------------------------------------*/
FoamFile
{
    format      ascii;
    class       volVectorField;
    location    "24";
    object      U;
}
// * * * * * * * * * * * * * * * * * * * * * * * * * * * * * * * * * * * * * //

dimensions      [0 1 -1 0 0 0 0];

internalField   nonuniform List<vector> 
400
(
(0.100009 -5.14352e-06 0)
(0.100001 -1.21341e-05 0)
(0.100012 -1.46084e-05 0)
(0.100019 -1.55476e-05 0)
(0.100023 -1.8601e-05 0)
(0.100036 -2.35247e-05 0)
(0.10006 -2.69633e-05 0)
(0.10009 -2.69855e-05 0)
(0.100118 -2.40237e-05 0)
(0.10014 -2.00732e-05 0)
(0.100153 -1.59496e-05 0)
(0.100155 -1.34753e-05 0)
(0.100145 -1.18463e-05 0)
(0.100126 -1.12381e-05 0)
(0.100099 -1.04125e-05 0)
(0.10007 -1.22263e-05 0)
(0.100043 -1.39241e-05 0)
(0.100032 -1.89097e-05 0)
(0.100032 -1.80687e-05 0)
(0.100042 -2.59751e-05 0)
(0.100009 -9.84362e-06 0)
(0.100002 -2.20689e-05 0)
(0.100013 -2.34246e-05 0)
(0.100021 -2.05367e-05 0)
(0.100027 -2.23388e-05 0)
(0.100042 -2.92794e-05 0)
(0.100068 -3.33314e-05 0)
(0.1001 -2.88592e-05 0)
(0.100131 -1.72405e-05 0)
(0.100157 -3.17319e-06 0)
(0.100171 1.02051e-05 0)
(0.100172 2.15111e-05 0)
(0.100159 3.20688e-05 0)
(0.100136 4.18303e-05 0)
(0.100106 4.94465e-05 0)
(0.100074 4.91877e-05 0)
(0.100051 4.25338e-05 0)
(0.100038 2.28e-05 0)
(0.100039 1.55685e-05 0)
(0.100035 8.32505e-06 0)
(0.100009 -1.59157e-05 0)
(0.100001 -3.75747e-05 0)
(0.100011 -4.30859e-05 0)
(0.10002 -4.23817e-05 0)
(0.100029 -4.87648e-05 0)
(0.100047 -6.28891e-05 0)
(0.100076 -7.27126e-05 0)
(0.100111 -6.91378e-05 0)
(0.100146 -5.35214e-05 0)
(0.100176 -3.19908e-05 0)
(0.100194 -9.29642e-06 0)
(0.100196 1.13842e-05 0)
(0.10018 2.95418e-05 0)
(0.100149 4.29191e-05 0)
(0.100108 4.83351e-05 0)
(0.100069 4.16669e-05 0)
(0.100036 2.76407e-05 0)
(0.100024 2.39342e-06 0)
(0.100027 -4.79958e-06 0)
(0.100037 -1.01555e-05 0)
(0.100007 -2.0942e-05 0)
(0.0999999 -4.95356e-05 0)
(0.100009 -5.74745e-05 0)
(0.10002 -5.83153e-05 0)
(0.100032 -6.88529e-05 0)
(0.100054 -8.9257e-05 0)
(0.100089 -0.000103269 0)
(0.100132 -9.8915e-05 0)
(0.100177 -7.61939e-05 0)
(0.100218 -4.1648e-05 0)
(0.100244 2.10736e-06 0)
(0.100244 4.43096e-05 0)
(0.100217 8.08588e-05 0)
(0.100166 0.000102701 0)
(0.100111 0.000103548 0)
(0.100066 8.25002e-05 0)
(0.100045 5.17561e-05 0)
(0.100039 1.3707e-05 0)
(0.100044 4.62223e-06 0)
(0.100037 2.48806e-06 0)
(0.100005 -2.43286e-05 0)
(0.099998 -5.83835e-05 0)
(0.100004 -7.02951e-05 0)
(0.100016 -7.56449e-05 0)
(0.100033 -9.2856e-05 0)
(0.100061 -0.00012231 0)
(0.100102 -0.000144552 0)
(0.100156 -0.000143592 0)
(0.100217 -0.000116866 0)
(0.100277 -7.08704e-05 0)
(0.100318 -1.28813e-05 0)
(0.10032 5.31226e-05 0)
(0.100274 0.000109814 0)
(0.100189 0.00013915 0)
(0.100099 0.000135199 0)
(0.100035 0.000104826 0)
(0.100012 6.79247e-05 0)
(0.10002 2.64609e-05 0)
(0.10004 1.78555e-05 0)
(0.100047 1.87818e-05 0)
(0.100003 -2.57409e-05 0)
(0.099995 -6.29656e-05 0)
(0.099997 -7.91693e-05 0)
(0.100009 -9.067e-05 0)
(0.100027 -0.00011753 0)
(0.100059 -0.000159729 0)
(0.100111 -0.000198919 0)
(0.100183 -0.000213313 0)
(0.100268 -0.000188369 0)
(0.100351 -0.000110786 0)
(0.100414 1.34568e-05 0)
(0.10042 0.000149287 0)
(0.100346 0.000229121 0)
(0.100214 0.00021752 0)
(0.100091 0.000140175 0)
(0.100022 5.71053e-05 0)
(0.10002 1.07881e-05 0)
(0.10004 -1.13433e-05 0)
(0.100066 9.59968e-07 0)
(0.100055 8.02426e-06 0)
(0.100001 -2.43351e-05 0)
(0.0999907 -6.18375e-05 0)
(0.0999866 -8.12265e-05 0)
(0.0999941 -0.000101807 0)
(0.10001 -0.000139049 0)
(0.10004 -0.00020013 0)
(0.100097 -0.000258848 0)
(0.100194 -0.000313612 0)
(0.100342 -0.000319319 0)
(0.100513 -0.000279159 0)
(0.10063 -6.17369e-05 0)
(0.100593 0.000251743 0)
(0.100389 0.00047084 0)
(0.100125 0.000462101 0)
(0.0999559 0.00030007 0)
(0.0999295 0.000134019 0)
(0.1 5.23889e-05 0)
(0.100062 2.81025e-05 0)
(0.100097 5.0081e-05 0)
(0.100066 5.64425e-05 0)
(0.0999984 -2.05761e-05 0)
(0.0999852 -5.1869e-05 0)
(0.0999711 -7.49469e-05 0)
(0.0999704 -0.000100652 0)
(0.0999749 -0.000157617 0)
(0.0999996 -0.000238284 0)
(0.100044 -0.000347122 0)
(0.100154 -0.000414848 0)
(0.100326 -0.000432098 0)
(0.100651 -0.000246937 0)
(0.101005 8.1288e-05 0)
(0.101019 0.000424374 0)
(0.100612 0.000462041 0)
(0.100078 0.000268791 0)
(0.0997895 7.04593e-05 0)
(0.0998054 -2.19491e-05 0)
(0.0999759 -2.04944e-05 0)
(0.100096 -2.98003e-06 0)
(0.100139 1.78862e-05 0)
(0.100085 1.32637e-05 0)
(0.0999969 -1.24757e-05 0)
(0.0999783 -3.55402e-05 0)
(0.0999522 -5.018e-05 0)
(0.0999315 -7.7152e-05 0)
(0.0999105 -0.000133726 0)
(0.0999034 -0.000249784 0)
(0.0999571 -0.000471962 0)
(0.100141 -0.000806918 0)
(0.100529 -0.00132407 0)
(0.101054 -0.00148611 0)
(0.101319 0.000389086 0)
(0.100998 0.00187272 0)
(0.100247 0.00157049 0)
(0.0997271 0.000566107 0)
(0.0996524 -3.45655e-05 0)
(0.0998318 -0.000123874 0)
(0.100035 -4.52493e-06 0)
(0.100115 6.27126e-05 0)
(0.100113 6.49204e-05 0)
(0.100052 2.78789e-05 0)
(0.0999775 -4.98294e-06 0)
(0.100003 -1.24969e-05 0)
(0.0998963 -1.97533e-05 0)
(0.0999653 -2.67096e-05 0)
(0.0997268 -5.92099e-05 0)
(0.0998477 -0.000112724 0)
(0.0992783 -0.000287542 0)
(0.0996718 -0.00055652 0)
(0.099111 -0.00115018 0)
(0.101995 -0.00141227 0)
(0.106277 2.98819e-05 0)
(0.101269 0.00146522 0)
(0.0990129 0.00130326 0)
(0.0982297 0.000508267 0)
(0.0988631 1.68057e-05 0)
(0.0996135 -7.78584e-05 0)
(0.0999457 -8.94338e-06 0)
(0.0999602 2.54114e-05 0)
(0.0998666 2.02546e-05 0)
(0.0998458 -1.43205e-05 0)
(0.0999781 3.32076e-06 0)
(0.100004 8.67877e-06 0)
(0.0998967 1.41327e-05 0)
(0.0999655 1.97006e-05 0)
(0.099727 5.22963e-05 0)
(0.0998479 0.000106435 0)
(0.0992782 0.000281626 0)
(0.0996713 0.000549672 0)
(0.0991098 0.00113958 0)
(0.101992 0.00139709 0)
(0.106271 -5.36149e-05 0)
(0.101267 -0.00149688 0)
(0.0990137 -0.00134219 0)
(0.0982298 -0.000554257 0)
(0.0988619 -6.68594e-05 0)
(0.0996102 2.29094e-05 0)
(0.0999416 -4.72523e-05 0)
(0.099956 -9.76029e-05 0)
(0.0998651 -9.32839e-05 0)
(0.099841 -8.58687e-05 0)
(0.0999987 1.0903e-05 0)
(0.0999798 3.18572e-05 0)
(0.0999533 4.47678e-05 0)
(0.0999326 7.05284e-05 0)
(0.0999114 0.000127054 0)
(0.0999045 0.000243548 0)
(0.0999578 0.000465973 0)
(0.100143 0.000799317 0)
(0.10053 0.00131309 0)
(0.101057 0.00146889 0)
(0.101322 -0.000412042 0)
(0.100997 -0.00190409 0)
(0.10024 -0.00160873 0)
(0.0997184 -0.00061059 0)
(0.0996467 -9.61475e-06 0)
(0.0998266 7.25808e-05 0)
(0.100024 -4.5884e-05 0)
(0.1001 -0.000127248 0)
(0.100094 -0.000130233 0)
(0.100035 -0.000122076 0)
(0.100001 1.92012e-05 0)
(0.0999878 4.83746e-05 0)
(0.0999733 6.97909e-05 0)
(0.0999721 9.4471e-05 0)
(0.0999762 0.000151162 0)
(0.100001 0.000232236 0)
(0.100045 0.000340721 0)
(0.100153 0.000406931 0)
(0.100324 0.000420528 0)
(0.100646 0.000230197 0)
(0.100998 -0.000104832 0)
(0.101012 -0.000455652 0)
(0.100607 -0.000498397 0)
(0.100074 -0.000308935 0)
(0.0997825 -0.000114183 0)
(0.0997926 -3.30041e-05 0)
(0.0999595 -3.80135e-05 0)
(0.100073 -6.87974e-05 0)
(0.100113 -8.6269e-05 0)
(0.100056 -0.000104487 0)
(0.100005 2.31803e-05 0)
(0.0999946 5.85547e-05 0)
(0.0999898 7.64385e-05 0)
(0.0999965 9.61306e-05 0)
(0.100012 0.000133388 0)
(0.100042 0.000194755 0)
(0.100097 0.000253679 0)
(0.100195 0.000307087 0)
(0.100343 0.000310505 0)
(0.100515 0.000265432 0)
(0.10063 4.44411e-05 0)
(0.100589 -0.000275835 0)
(0.100381 -0.000501442 0)
(0.100112 -0.000500904 0)
(0.0999374 -0.00034631 0)
(0.0999059 -0.0001886 0)
(0.0999758 -0.0001092 0)
(0.100032 -9.93725e-05 0)
(0.100066 -0.000118678 0)
(0.100026 -0.000148961 0)
(0.100009 2.47883e-05 0)
(0.1 5.99869e-05 0)
(0.100001 7.48692e-05 0)
(0.100012 8.57669e-05 0)
(0.10003 0.000112654 0)
(0.100061 0.000155092 0)
(0.100112 0.000194432 0)
(0.100183 0.000207513 0)
(0.100267 0.000179131 0)
(0.100349 9.57092e-05 0)
(0.100408 -3.62861e-05 0)
(0.10041 -0.00017757 0)
(0.100333 -0.000262474 0)
(0.100197 -0.000255774 0)
(0.100071 -0.000178812 0)
(0.0999952 -9.90526e-05 0)
(0.0999892 -5.083e-05 0)
(0.100003 -3.89424e-05 0)
(0.100026 -4.94427e-05 0)
(0.100004 -8.24205e-05 0)
(0.100012 2.36263e-05 0)
(0.100005 5.60527e-05 0)
(0.10001 6.67297e-05 0)
(0.100021 7.14869e-05 0)
(0.100036 8.87587e-05 0)
(0.100063 0.000118613 0)
(0.100104 0.000140891 0)
(0.100156 0.000138931 0)
(0.100216 0.000109679 0)
(0.100275 5.97362e-05 0)
(0.100316 -4.18763e-06 0)
(0.100314 -7.54161e-05 0)
(0.100263 -0.00013612 0)
(0.100173 -0.000169464 0)
(0.100079 -0.000167311 0)
(0.100008 -0.000144622 0)
(0.0999818 -0.000111449 0)
(0.0999793 -8.7433e-05 0)
(0.0999936 -8.224e-05 0)
(0.0999824 -0.000108863 0)
(0.100015 2.05256e-05 0)
(0.100008 4.75464e-05 0)
(0.100015 5.4746e-05 0)
(0.100025 5.54281e-05 0)
(0.100037 6.60415e-05 0)
(0.100058 8.66415e-05 0)
(0.100091 0.000100969 0)
(0.100133 9.62953e-05 0)
(0.100177 7.28777e-05 0)
(0.100214 3.69448e-05 0)
(0.100236 -8.13619e-06 0)
(0.100232 -5.45418e-05 0)
(0.100202 -9.42011e-05 0)
(0.100146 -0.000120398 0)
(0.100083 -0.000123825 0)
(0.100026 -0.000108794 0)
(0.0999966 -7.78218e-05 0)
(0.0999782 -4.95718e-05 0)
(0.0999819 -3.75049e-05 0)
(0.0999635 -5.80435e-05 0)
(0.100018 1.59143e-05 0)
(0.100011 3.5649e-05 0)
(0.100019 3.9208e-05 0)
(0.100027 3.73087e-05 0)
(0.100035 4.33207e-05 0)
(0.100052 5.69293e-05 0)
(0.10008 6.55521e-05 0)
(0.100115 5.92829e-05 0)
(0.10015 3.99451e-05 0)
(0.100178 1.32091e-05 0)
(0.100194 -1.44126e-05 0)
(0.10019 -3.94235e-05 0)
(0.100168 -6.05698e-05 0)
(0.100128 -7.82299e-05 0)
(0.100083 -8.57842e-05 0)
(0.100035 -8.44456e-05 0)
(0.100001 -7.03366e-05 0)
(0.0999732 -5.60294e-05 0)
(0.099971 -4.81869e-05 0)
(0.0999483 -6.73e-05 0)
(0.10002 1.01467e-05 0)
(0.100012 2.33781e-05 0)
(0.100021 2.67206e-05 0)
(0.100027 2.65905e-05 0)
(0.100032 3.11946e-05 0)
(0.100046 4.07023e-05 0)
(0.100069 4.72096e-05 0)
(0.100099 4.49482e-05 0)
(0.100128 3.48285e-05 0)
(0.10015 2.12116e-05 0)
(0.100161 7.33382e-06 0)
(0.100158 -5.26597e-06 0)
(0.100142 -1.57931e-05 0)
(0.100111 -2.5685e-05 0)
(0.100073 -3.15861e-05 0)
(0.100029 -3.31803e-05 0)
(0.0999954 -2.48545e-05 0)
(0.0999655 -1.45465e-05 0)
(0.0999618 -6.66387e-06 0)
(0.0999367 -1.92119e-05 0)
(0.100022 1.66481e-06 0)
(0.100014 3.36725e-06 0)
(0.100024 2.36759e-06 0)
(0.10003 1.81295e-07 0)
(0.100033 -8.67414e-07 0)
(0.100045 -2.70721e-07 0)
(0.100068 -1.62572e-07 0)
(0.100096 -2.52616e-06 0)
(0.100124 -6.79555e-06 0)
(0.100143 -1.20603e-05 0)
(0.100153 -1.70399e-05 0)
(0.100149 -2.18327e-05 0)
(0.100134 -2.67303e-05 0)
(0.100106 -3.24864e-05 0)
(0.100074 -3.61188e-05 0)
(0.100032 -3.85531e-05 0)
(0.100002 -3.56905e-05 0)
(0.0999666 -3.40826e-05 0)
(0.0999635 -3.06971e-05 0)
(0.0999258 -4.07432e-05 0)
)
;

boundaryField
{
    sides
    {
        type            calculated;
        value           nonuniform List<vector> 
40
(
(0.100022 0 0)
(0.100014 0 0)
(0.100024 0 0)
(0.10003 0 0)
(0.100033 0 0)
(0.100045 0 0)
(0.100068 0 0)
(0.100096 0 0)
(0.100124 0 0)
(0.100143 0 0)
(0.100153 0 0)
(0.100149 0 0)
(0.100134 0 0)
(0.100106 0 0)
(0.100074 0 0)
(0.100032 0 0)
(0.100002 0 0)
(0.0999666 0 0)
(0.0999635 0 0)
(0.0999258 0 0)
(0.100009 0 0)
(0.100001 0 0)
(0.100012 0 0)
(0.100019 0 0)
(0.100023 0 0)
(0.100036 0 0)
(0.10006 0 0)
(0.10009 0 0)
(0.100118 0 0)
(0.10014 0 0)
(0.100153 0 0)
(0.100155 0 0)
(0.100145 0 0)
(0.100126 0 0)
(0.100099 0 0)
(0.10007 0 0)
(0.100043 0 0)
(0.100032 0 0)
(0.100032 0 0)
(0.100042 0 0)
)
;
    }
    inlet
    {
        type            calculated;
        value           nonuniform List<vector> 
20
(
(0.100012 0 0)
(0.100012 0 0)
(0.10001 0 0)
(0.100008 0 0)
(0.100006 0 0)
(0.100002 0 0)
(0.099999 0 0)
(0.099996 0 0)
(0.0999938 0 0)
(0.099993 0 0)
(0.0999936 0 0)
(0.0999955 0 0)
(0.0999988 0 0)
(0.100003 0 0)
(0.100008 0 0)
(0.100012 0 0)
(0.100016 0 0)
(0.10002 0 0)
(0.100023 0 0)
(0.100025 0 0)
)
;
    }
    outlet
    {
        type            calculated;
        value           nonuniform List<vector> 
20
(
(0.100042 -2.59752e-05 0)
(0.100035 8.32504e-06 0)
(0.100038 -1.01556e-05 0)
(0.100037 2.48805e-06 0)
(0.100046 1.87817e-05 0)
(0.100054 8.02419e-06 0)
(0.100065 5.64417e-05 0)
(0.100083 1.32634e-05 0)
(0.100051 2.78785e-05 0)
(0.0998472 -1.43207e-05 0)
(0.0998423 -8.58697e-05 0)
(0.100034 -0.000122075 0)
(0.100054 -0.000104485 0)
(0.100024 -0.000148958 0)
(0.100003 -8.24194e-05 0)
(0.0999816 -0.000108862 0)
(0.0999627 -5.8043e-05 0)
(0.0999475 -6.72995e-05 0)
(0.0999359 -1.92118e-05 0)
(0.0999245 -4.07427e-05 0)
)
;
    }
    frontAndBack
    {
        type            empty;
    }
}


// ************************************************************************* //
