# vtk DataFile Version 2.0
track0
ASCII
DATASET POLYDATA
POINTS 1720 float
-1.001 -0.05 0.0011
-1.0008 -0.05 0.0011
-1.0006 -0.05 0.0011
-1.0004 -0.05 0.0011
-1.0002 -0.05 0.0011
-1 -0.05 0.0011
-0.8 -0.05 0.0011
-0.6 -0.05 0.0011
-0.4 -0.05 0.0011
-0.2 -0.05 0.0011
0 -0.05 0.0011
0.2 -0.05 0.0011
0.4 -0.05 0.0011
0.6 -0.05 0.0011
0.8 -0.05 0.0011
1 -0.05 0.0011
1.2 -0.05 0.0011
1.4 -0.05 0.0011
1.6 -0.05 0.0011
1.8 -0.05 0.0011
2 -0.05 0.0011
2.2 -0.05 0.0011
2.4 -0.05 0.0011
2.6 -0.05 0.0011
2.8 -0.05 0.0011
3 -0.05 0.0011
3.2 -0.05 0.0011
3.4 -0.05 0.0011
3.6 -0.05 0.0011
3.8 -0.05 0.0011
4 -0.05 0.0011
4.2 -0.05 0.0011
4.4 -0.05 0.0011
4.6 -0.05 0.0011
4.8 -0.05 0.0011
5 -0.05 0.0011
5.2 -0.05 0.0011
5.4 -0.05 0.0011
5.6 -0.05 0.0011
5.8 -0.05 0.0011
6 -0.05 0.0011
6.2 -0.05 0.0011
6.4 -0.05 0.0011
6.6 -0.05 0.0011
6.8 -0.05 0.0011
7 -0.05 0.0011
7.2 -0.05 0.0011
7.4 -0.05 0.0011
7.6 -0.05 0.0011
7.8 -0.05 0.0011
8 -0.05 0.0011
8.2 -0.05 0.0011
8.4 -0.05 0.0011
8.6 -0.05 0.0011
8.8 -0.05 0.0011
9 -0.05 0.0011
9.2 -0.05 0.0011
9.4 -0.05 0.0011
9.6 -0.05 0.0011
9.8 -0.05 0.0011
10 -0.05 0.0011
10.2 -0.05 0.0011
10.4 -0.05 0.0011
10.6 -0.05 0.0011
10.8 -0.05 0.0011
11 -0.05 0.0011
11.2 -0.05 0.0011
11.4 -0.05 0.0011
11.6 -0.05 0.0011
11.8 -0.05 0.0011
12 -0.05 0.0011
12.2 -0.05 0.0011
12.4 -0.05 0.0011
12.6 -0.05 0.0011
12.8 -0.05 0.0011
13 -0.05 0.0011
13.2 -0.05 0.0011
13.4 -0.05 0.0011
13.6 -0.05 0.0011
13.8 -0.05 0.0011
14 -0.05 0.0011
14.2 -0.05 0.0011
14.4 -0.05 0.0011
14.6 -0.05 0.0011
14.8 -0.05 0.0011
15 -0.05 0.0011
-1.001 -0.05 0.0537316
-1.0008 -0.05 0.0537316
-1.0006 -0.05 0.0537316
-1.0004 -0.05 0.0537316
-1.0002 -0.05 0.0537316
-1 -0.05 0.0537316
-0.8 -0.05 0.0537316
-0.6 -0.05 0.0537316
-0.4 -0.05 0.0537316
-0.2 -0.05 0.0537316
0 -0.05 0.0537316
0.2 -0.05 0.0537316
0.4 -0.05 0.0537316
0.6 -0.05 0.0537316
0.8 -0.05 0.0537316
1 -0.05 0.0537316
1.2 -0.05 0.0537316
1.4 -0.05 0.0537316
1.6 -0.05 0.0537316
1.8 -0.05 0.0537316
2 -0.05 0.0537316
2.2 -0.05 0.0537316
2.4 -0.05 0.0537316
2.6 -0.05 0.0537316
2.8 -0.05 0.0537316
3 -0.05 0.0537316
3.2 -0.05 0.0537316
3.4 -0.05 0.0537316
3.6 -0.05 0.0537316
3.8 -0.05 0.0537316
4 -0.05 0.0537316
4.2 -0.05 0.0537316
4.4 -0.05 0.0537316
4.6 -0.05 0.0537316
4.8 -0.05 0.0537316
5 -0.05 0.0537316
5.2 -0.05 0.0537316
5.4 -0.05 0.0537316
5.6 -0.05 0.0537316
5.8 -0.05 0.0537316
6 -0.05 0.0537316
6.2 -0.05 0.0537316
6.4 -0.05 0.0537316
6.6 -0.05 0.0537316
6.8 -0.05 0.0537316
7 -0.05 0.0537316
7.2 -0.05 0.0537316
7.4 -0.05 0.0537316
7.6 -0.05 0.0537316
7.8 -0.05 0.0537316
8 -0.05 0.0537316
8.2 -0.05 0.0537316
8.4 -0.05 0.0537316
8.6 -0.05 0.0537316
8.8 -0.05 0.0537316
9 -0.05 0.0537316
9.2 -0.05 0.0537316
9.4 -0.05 0.0537316
9.6 -0.05 0.0537316
9.8 -0.05 0.0537316
10 -0.05 0.0537316
10.2 -0.05 0.0537316
10.4 -0.05 0.0537316
10.6 -0.05 0.0537316
10.8 -0.05 0.0537316
11 -0.05 0.0537316
11.2 -0.05 0.0537316
11.4 -0.05 0.0537316
11.6 -0.05 0.0537316
11.8 -0.05 0.0537316
12 -0.05 0.0537316
12.2 -0.05 0.0537316
12.4 -0.05 0.0537316
12.6 -0.05 0.0537316
12.8 -0.05 0.0537316
13 -0.05 0.0537316
13.2 -0.05 0.0537316
13.4 -0.05 0.0537316
13.6 -0.05 0.0537316
13.8 -0.05 0.0537316
14 -0.05 0.0537316
14.2 -0.05 0.0537316
14.4 -0.05 0.0537316
14.6 -0.05 0.0537316
14.8 -0.05 0.0537316
15 -0.05 0.0537316
-1.001 -0.05 0.106363
-1.0008 -0.05 0.106363
-1.0006 -0.05 0.106363
-1.0004 -0.05 0.106363
-1.0002 -0.05 0.106363
-1 -0.05 0.106363
-0.8 -0.05 0.106363
-0.6 -0.05 0.106363
-0.4 -0.05 0.106363
-0.2 -0.05 0.106363
0 -0.05 0.106363
0.2 -0.05 0.106363
0.4 -0.05 0.106363
0.6 -0.05 0.106363
0.8 -0.05 0.106363
1 -0.05 0.106363
1.2 -0.05 0.106363
1.4 -0.05 0.106363
1.6 -0.05 0.106363
1.8 -0.05 0.106363
2 -0.05 0.106363
2.2 -0.05 0.106363
2.4 -0.05 0.106363
2.6 -0.05 0.106363
2.8 -0.05 0.106363
3 -0.05 0.106363
3.2 -0.05 0.106363
3.4 -0.05 0.106363
3.6 -0.05 0.106363
3.8 -0.05 0.106363
4 -0.05 0.106363
4.2 -0.05 0.106363
4.4 -0.05 0.106363
4.6 -0.05 0.106363
4.8 -0.05 0.106363
5 -0.05 0.106363
5.2 -0.05 0.106363
5.4 -0.05 0.106363
5.6 -0.05 0.106363
5.8 -0.05 0.106363
6 -0.05 0.106363
6.2 -0.05 0.106363
6.4 -0.05 0.106363
6.6 -0.05 0.106363
6.8 -0.05 0.106363
7 -0.05 0.106363
7.2 -0.05 0.106363
7.4 -0.05 0.106363
7.6 -0.05 0.106363
7.8 -0.05 0.106363
8 -0.05 0.106363
8.2 -0.05 0.106363
8.4 -0.05 0.106363
8.6 -0.05 0.106363
8.8 -0.05 0.106363
9 -0.05 0.106363
9.2 -0.05 0.106363
9.4 -0.05 0.106363
9.6 -0.05 0.106363
9.8 -0.05 0.106363
10 -0.05 0.106363
10.2 -0.05 0.106363
10.4 -0.05 0.106363
10.6 -0.05 0.106363
10.8 -0.05 0.106363
11 -0.05 0.106363
11.2 -0.05 0.106363
11.4 -0.05 0.106363
11.6 -0.05 0.106363
11.8 -0.05 0.106363
12 -0.05 0.106363
12.2 -0.05 0.106363
12.4 -0.05 0.106363
12.6 -0.05 0.106363
12.8 -0.05 0.106363
13 -0.05 0.106363
13.2 -0.05 0.106363
13.4 -0.05 0.106363
13.6 -0.05 0.106363
13.8 -0.05 0.106363
14 -0.05 0.106363
14.2 -0.05 0.106363
14.4 -0.05 0.106363
14.6 -0.05 0.106363
14.8 -0.05 0.106363
15 -0.05 0.106363
-1.001 -0.05 0.158995
-1.0008 -0.05 0.158995
-1.0006 -0.05 0.158995
-1.0004 -0.05 0.158995
-1.0002 -0.05 0.158995
-1 -0.05 0.158995
-0.8 -0.05 0.158995
-0.6 -0.05 0.158995
-0.4 -0.05 0.158995
-0.2 -0.05 0.158995
0 -0.05 0.158995
0.2 -0.05 0.158995
0.4 -0.05 0.158995
0.6 -0.05 0.158995
0.8 -0.05 0.158995
1 -0.05 0.158995
1.2 -0.05 0.158995
1.4 -0.05 0.158995
1.6 -0.05 0.158995
1.8 -0.05 0.158995
2 -0.05 0.158995
2.2 -0.05 0.158995
2.4 -0.05 0.158995
2.6 -0.05 0.158995
2.8 -0.05 0.158995
3 -0.05 0.158995
3.2 -0.05 0.158995
3.4 -0.05 0.158995
3.6 -0.05 0.158995
3.8 -0.05 0.158995
4 -0.05 0.158995
4.2 -0.05 0.158995
4.4 -0.05 0.158995
4.6 -0.05 0.158995
4.8 -0.05 0.158995
5 -0.05 0.158995
5.2 -0.05 0.158995
5.4 -0.05 0.158995
5.6 -0.05 0.158995
5.8 -0.05 0.158995
6 -0.05 0.158995
6.2 -0.05 0.158995
6.4 -0.05 0.158995
6.6 -0.05 0.158995
6.8 -0.05 0.158995
7 -0.05 0.158995
7.2 -0.05 0.158995
7.4 -0.05 0.158995
7.6 -0.05 0.158995
7.8 -0.05 0.158995
8 -0.05 0.158995
8.2 -0.05 0.158995
8.4 -0.05 0.158995
8.6 -0.05 0.158995
8.8 -0.05 0.158995
9 -0.05 0.158995
9.2 -0.05 0.158995
9.4 -0.05 0.158995
9.6 -0.05 0.158995
9.8 -0.05 0.158995
10 -0.05 0.158995
10.2 -0.05 0.158995
10.4 -0.05 0.158995
10.6 -0.05 0.158995
10.8 -0.05 0.158995
11 -0.05 0.158995
11.2 -0.05 0.158995
11.4 -0.05 0.158995
11.6 -0.05 0.158995
11.8 -0.05 0.158995
12 -0.05 0.158995
12.2 -0.05 0.158995
12.4 -0.05 0.158995
12.6 -0.05 0.158995
12.8 -0.05 0.158995
13 -0.05 0.158995
13.2 -0.05 0.158995
13.4 -0.05 0.158995
13.6 -0.05 0.158995
13.8 -0.05 0.158995
14 -0.05 0.158995
14.2 -0.05 0.158995
14.4 -0.05 0.158995
14.6 -0.05 0.158995
14.8 -0.05 0.158995
15 -0.05 0.158995
-1.001 -0.05 0.211626
-1.0008 -0.05 0.211626
-1.0006 -0.05 0.211626
-1.0004 -0.05 0.211626
-1.0002 -0.05 0.211626
-1 -0.05 0.211626
-0.8 -0.05 0.211626
-0.6 -0.05 0.211626
-0.4 -0.05 0.211626
-0.2 -0.05 0.211626
0 -0.05 0.211626
0.2 -0.05 0.211626
0.4 -0.05 0.211626
0.6 -0.05 0.211626
0.8 -0.05 0.211626
1 -0.05 0.211626
1.2 -0.05 0.211626
1.4 -0.05 0.211626
1.6 -0.05 0.211626
1.8 -0.05 0.211626
2 -0.05 0.211626
2.2 -0.05 0.211626
2.4 -0.05 0.211626
2.6 -0.05 0.211626
2.8 -0.05 0.211626
3 -0.05 0.211626
3.2 -0.05 0.211626
3.4 -0.05 0.211626
3.6 -0.05 0.211626
3.8 -0.05 0.211626
4 -0.05 0.211626
4.2 -0.05 0.211626
4.4 -0.05 0.211626
4.6 -0.05 0.211626
4.8 -0.05 0.211626
5 -0.05 0.211626
5.2 -0.05 0.211626
5.4 -0.05 0.211626
5.6 -0.05 0.211626
5.8 -0.05 0.211626
6 -0.05 0.211626
6.2 -0.05 0.211626
6.4 -0.05 0.211626
6.6 -0.05 0.211626
6.8 -0.05 0.211626
7 -0.05 0.211626
7.2 -0.05 0.211626
7.4 -0.05 0.211626
7.6 -0.05 0.211626
7.8 -0.05 0.211626
8 -0.05 0.211626
8.2 -0.05 0.211626
8.4 -0.05 0.211626
8.6 -0.05 0.211626
8.8 -0.05 0.211626
9 -0.05 0.211626
9.2 -0.05 0.211626
9.4 -0.05 0.211626
9.6 -0.05 0.211626
9.8 -0.05 0.211626
10 -0.05 0.211626
10.2 -0.05 0.211626
10.4 -0.05 0.211626
10.6 -0.05 0.211626
10.8 -0.05 0.211626
11 -0.05 0.211626
11.2 -0.05 0.211626
11.4 -0.05 0.211626
11.6 -0.05 0.211626
11.8 -0.05 0.211626
12 -0.05 0.211626
12.2 -0.05 0.211626
12.4 -0.05 0.211626
12.6 -0.05 0.211626
12.8 -0.05 0.211626
13 -0.05 0.211626
13.2 -0.05 0.211626
13.4 -0.05 0.211626
13.6 -0.05 0.211626
13.8 -0.05 0.211626
14 -0.05 0.211626
14.2 -0.05 0.211626
14.4 -0.05 0.211626
14.6 -0.05 0.211626
14.8 -0.05 0.211626
15 -0.05 0.211626
-1.001 -0.05 0.264258
-1.0008 -0.05 0.264258
-1.0006 -0.05 0.264258
-1.0004 -0.05 0.264258
-1.0002 -0.05 0.264258
-1 -0.05 0.264258
-0.8 -0.05 0.264258
-0.6 -0.05 0.264258
-0.4 -0.05 0.264258
-0.2 -0.05 0.264258
0 -0.05 0.264258
0.2 -0.05 0.264258
0.4 -0.05 0.264258
0.6 -0.05 0.264258
0.8 -0.05 0.264258
1 -0.05 0.264258
1.2 -0.05 0.264258
1.4 -0.05 0.264258
1.6 -0.05 0.264258
1.8 -0.05 0.264258
2 -0.05 0.264258
2.2 -0.05 0.264258
2.4 -0.05 0.264258
2.6 -0.05 0.264258
2.8 -0.05 0.264258
3 -0.05 0.264258
3.2 -0.05 0.264258
3.4 -0.05 0.264258
3.6 -0.05 0.264258
3.8 -0.05 0.264258
4 -0.05 0.264258
4.2 -0.05 0.264258
4.4 -0.05 0.264258
4.6 -0.05 0.264258
4.8 -0.05 0.264258
5 -0.05 0.264258
5.2 -0.05 0.264258
5.4 -0.05 0.264258
5.6 -0.05 0.264258
5.8 -0.05 0.264258
6 -0.05 0.264258
6.2 -0.05 0.264258
6.4 -0.05 0.264258
6.6 -0.05 0.264258
6.8 -0.05 0.264258
7 -0.05 0.264258
7.2 -0.05 0.264258
7.4 -0.05 0.264258
7.6 -0.05 0.264258
7.8 -0.05 0.264258
8 -0.05 0.264258
8.2 -0.05 0.264258
8.4 -0.05 0.264258
8.6 -0.05 0.264258
8.8 -0.05 0.264258
9 -0.05 0.264258
9.2 -0.05 0.264258
9.4 -0.05 0.264258
9.6 -0.05 0.264258
9.8 -0.05 0.264258
10 -0.05 0.264258
10.2 -0.05 0.264258
10.4 -0.05 0.264258
10.6 -0.05 0.264258
10.8 -0.05 0.264258
11 -0.05 0.264258
11.2 -0.05 0.264258
11.4 -0.05 0.264258
11.6 -0.05 0.264258
11.8 -0.05 0.264258
12 -0.05 0.264258
12.2 -0.05 0.264258
12.4 -0.05 0.264258
12.6 -0.05 0.264258
12.8 -0.05 0.264258
13 -0.05 0.264258
13.2 -0.05 0.264258
13.4 -0.05 0.264258
13.6 -0.05 0.264258
13.8 -0.05 0.264258
14 -0.05 0.264258
14.2 -0.05 0.264258
14.4 -0.05 0.264258
14.6 -0.05 0.264258
14.8 -0.05 0.264258
15 -0.05 0.264258
-1.001 -0.05 0.316889
-1.0008 -0.05 0.316889
-1.0006 -0.05 0.316889
-1.0004 -0.05 0.316889
[...]
POINT_DATA 1720
 FIELD attributes 1
U 3 1720 float
20 	-2.79568e-18 	-3.01211e-18 20 	-2.3404e-18 	-2.6176e-18 20 	-1.88511e-18 	-2.22309e-18 20 	-1.42983e-18 	-1.82858e-18 20 	-9.74552e-19 	-1.43407e-18 20 	-5.1927e-19 	-1.03955e-18 20 	-1.60994e-18 	-1.70302e-19 20 	-1.60994e-18 	-1.70302e-19 20 	-1.60994e-18 	-1.70302e-19 20 	-1.60994e-18 	-1.70302e-19 20 	-1.97092e-19 	-2.3176e-19 20 	-5.71823e-19 	-1.05117e-18 20 	-5.71823e-19 	-1.05117e-18 20 	-5.71823e-19 	-1.05117e-18 20 	-5.71823e-19 	-1.05117e-18 20 	-3.59759e-20 	-3.22892e-19 20 	5.01762e-19 	-9.70397e-19 20 	5.01762e-19 	-9.70397e-19 20 	5.01762e-19 	-9.70397e-19 20 	5.01762e-19 	-9.70397e-19 20 	-4.43085e-19 	-8.65472e-19 20 	-1.20061e-18 	-3.05157e-18 20 	-1.20061e-18 	-3.05157e-18 20 	-1.20061e-18 	-3.05157e-18 20 	-1.20061e-18 	-3.05157e-18 20 	-1.23801e-18 	-1.35048e-18 20 	-3.94853e-18 	-3.12378e-18 20 	-3.94853e-18 	-3.12378e-18 20 	-3.94853e-18 	-3.12378e-18 20 	-3.94853e-18 	-3.12378e-18 20 	-1.12503e-18 	-1.21175e-18 20 	-1.59111e-18 	-1.89704e-18 20 	-1.59111e-18 	-1.89704e-18 20 	-1.59111e-18 	-1.89704e-18 20 	-1.59111e-18 	-1.89704e-18 20 	-2.55476e-19 	-4.72217e-19 20 	1.40684e-19 	-2.81482e-19 20 	1.40684e-19 	-2.81482e-19 20 	1.40684e-19 	-2.81482e-19 20 	1.40684e-19 	-2.81482e-19 20 	2.37838e-19 	-5.09746e-19 20 	1.06989e-18 	-1.43885e-18 20 	1.06989e-18 	-1.43885e-18 20 	1.06989e-18 	-1.43885e-18 20 	1.06989e-18 	-1.43885e-18 20 	4.25292e-19 	-5.79836e-19 20 	1.19136e-18 	-3.10067e-19 20 	1.19136e-18 	-3.10067e-19 20 	1.19136e-18 	-3.10067e-19 20 	1.19136e-18 	-3.10067e-19 20 	4.70403e-19 	-7.93296e-20 20 	2.19075e-18 	1.45968e-18 20 	2.19075e-18 	1.45968e-18 20 	2.19075e-18 	1.45968e-18 20 	2.19075e-18 	1.45968e-18 20 	2.35824e-19 	2.35997e-20 20 	6.26057e-19 	-1.92085e-19 20 	6.26057e-19 	-1.92085e-19 20 	6.26057e-19 	-1.92085e-19 20 	6.26057e-19 	-1.92085e-19 20 	-2.57455e-19 	8.78689e-20 20 	-2.91732e-19 	-3.19454e-20 20 	-2.91732e-19 	-3.19454e-20 20 	-2.91732e-19 	-3.19454e-20 20 	-2.91732e-19 	-3.19454e-20 20 	-8.75577e-19 	-2.84408e-20 20 	-3.8555e-19 	4.44807e-19 20 	-3.8555e-19 	4.44807e-19 20 	-3.8555e-19 	4.44807e-19 20 	-3.8555e-19 	4.44807e-19 20 	-8.58258e-19 	-6.31761e-19 20 	2.56432e-18 	-1.26408e-18 20 	2.56432e-18 	-1.26408e-18 20 	2.56432e-18 	-1.26408e-18 20 	2.56432e-18 	-1.26408e-18 20 	-3.82363e-19 	-8.2014e-19 20 	2.50741e-18 	-6.27678e-19 20 	2.50741e-18 	-6.27678e-19 20 	2.50741e-18 	-6.27678e-19 20 	2.50741e-18 	-6.27678e-19 20 	8.64221e-21 	-5.25147e-19 20 	6.50412e-17 	-5.3857e-17 20 	1.27667e-16 	-1.08037e-16 20 	1.90292e-16 	-1.62218e-16 20 	2.52918e-16 	-2.16398e-16 20 	3.28387e-16 	-2.63214e-16
20 	-2.76411e-17 	-5.27515e-17 20 	-2.71859e-17 	-5.2357e-17 20 	-2.67306e-17 	-5.19625e-17 20 	-2.62753e-17 	-5.1568e-17 20 	-2.582e-17 	-5.11735e-17 20 	-2.53647e-17 	-5.0779e-17 20 	-7.38475e-17 	-8.52723e-18 20 	-7.38475e-17 	-8.52723e-18 20 	-7.38475e-17 	-8.52723e-18 20 	-7.38475e-17 	-8.52723e-18 20 	-9.62731e-18 	-1.13207e-17 20 	-2.6114e-17 	-4.88758e-17 20 	-2.6114e-17 	-4.88758e-17 20 	-2.6114e-17 	-4.88758e-17 20 	-2.6114e-17 	-4.88758e-17 20 	-1.75731e-18 	-1.57723e-17 20 	2.13043e-17 	-4.70449e-17 20 	2.13043e-17 	-4.70449e-17 20 	2.13043e-17 	-4.70449e-17 20 	2.13043e-17 	-4.70449e-17 20 	-2.16433e-17 	-4.22756e-17 20 	-5.8773e-17 	-1.43289e-16 20 	-5.8773e-17 	-1.43289e-16 20 	-5.8773e-17 	-1.43289e-16 20 	-5.8773e-17 	-1.43289e-16 20 	-6.04729e-17 	-6.59669e-17 20 	-1.83295e-16 	-1.46101e-16 20 	-1.83295e-16 	-1.46101e-16 20 	-1.83295e-16 	-1.46101e-16 20 	-1.83295e-16 	-1.46101e-16 20 	-5.49543e-17 	-5.91903e-17 20 	-7.31899e-17 	-8.78308e-17 20 	-7.31899e-17 	-8.78308e-17 20 	-7.31899e-17 	-8.78308e-17 20 	-7.31899e-17 	-8.78308e-17 20 	-1.24792e-17 	-2.30663e-17 20 	7.20158e-18 	-1.45239e-17 20 	7.20158e-18 	-1.45239e-17 20 	7.20158e-18 	-1.45239e-17 20 	7.20158e-18 	-1.45239e-17 20 	1.16176e-17 	-2.48995e-17 20 	5.00739e-17 	-6.73695e-17 20 	5.00739e-17 	-6.73695e-17 20 	5.00739e-17 	-6.73695e-17 20 	5.00739e-17 	-6.73695e-17 20 	2.07742e-17 	-2.83232e-17 20 	5.57484e-17 	-1.4363e-17 20 	5.57484e-17 	-1.4363e-17 20 	5.57484e-17 	-1.4363e-17 20 	5.57484e-17 	-1.4363e-17 20 	2.29777e-17 	-3.87501e-18 20 	1.0038e-16 	6.6429e-17 20 	1.0038e-16 	6.6429e-17 20 	1.0038e-16 	6.6429e-17 20 	1.0038e-16 	6.6429e-17 20 	1.15193e-17 	1.15277e-18 20 	2.75838e-17 	-8.43304e-18 20 	2.75838e-17 	-8.43304e-18 20 	2.75838e-17 	-8.43304e-18 20 	2.75838e-17 	-8.43304e-18 20 	-1.25759e-17 	4.29212e-18 20 	-1.62308e-17 	-1.54854e-18 20 	-1.62308e-17 	-1.54854e-18 20 	-1.62308e-17 	-1.54854e-18 20 	-1.62308e-17 	-1.54854e-18 20 	-4.27692e-17 	-1.38925e-18 20 	-2.04365e-17 	1.80754e-17 20 	-2.04365e-17 	1.80754e-17 20 	-2.04365e-17 	1.80754e-17 20 	-2.04365e-17 	1.80754e-17 20 	-4.19232e-17 	-3.08596e-17 20 	1.15263e-16 	-6.02404e-17 20 	1.15263e-16 	-6.02404e-17 20 	1.15263e-16 	-6.02404e-17 20 	1.15263e-16 	-6.02404e-17 20 	-1.86772e-17 	-4.00613e-17 20 	1.14003e-16 	-3.03123e-17 20 	1.14003e-16 	-3.03123e-17 20 	1.14003e-16 	-3.03123e-17 20 	1.14003e-16 	-3.03123e-17 20 	4.22145e-19 	-2.56518e-17 20 	1.72231e-16 	-4.00497e-17 20 	2.34857e-16 	-9.423e-17 20 	2.97482e-16 	-1.4841e-16 20 	3.60108e-16 	-2.02591e-16 20 	3.25625e-16 	-2.71155e-16
20 	-5.24866e-17 	-1.02491e-16 20 	-5.20313e-17 	-1.02096e-16 20 	-5.1576e-17 	-1.01702e-16 20 	-5.11208e-17 	-1.01307e-16 20 	-5.06655e-17 	-1.00913e-16 20 	-5.02102e-17 	-1.00518e-16 20 	-8.32777e-17 	-1.96162e-17 20 	-8.32777e-17 	-1.96162e-17 20 	-8.32777e-17 	-1.96162e-17 20 	-8.32777e-17 	-1.96162e-17 20 	-1.90575e-17 	-2.24097e-17 20 	-2.78353e-17 	-6.43251e-17 20 	-2.78353e-17 	-6.43251e-17 20 	-2.78353e-17 	-6.43251e-17 20 	-2.78353e-17 	-6.43251e-17 20 	-3.47864e-18 	-3.12217e-17 20 	1.0403e-19 	-8.84551e-17 20 	1.0403e-19 	-8.84551e-17 20 	1.0403e-19 	-8.84551e-17 20 	1.0403e-19 	-8.84551e-17 20 	-4.28436e-17 	-8.36858e-17 20 	-1.18008e-16 	-2.07905e-16 20 	-1.18008e-16 	-2.07905e-16 20 	-1.18008e-16 	-2.07905e-16 20 	-1.18008e-16 	-2.07905e-16 20 	-1.19708e-16 	-1.30583e-16 20 	-2.37125e-16 	-2.04079e-16 20 	-2.37125e-16 	-2.04079e-16 20 	-2.37125e-16 	-2.04079e-16 20 	-2.37125e-16 	-2.04079e-16 20 	-1.08784e-16 	-1.17169e-16 20 	-8.54136e-17 	-1.10425e-16 20 	-8.54136e-17 	-1.10425e-16 20 	-8.54136e-17 	-1.10425e-16 20 	-8.54136e-17 	-1.10425e-16 20 	-2.47029e-17 	-4.56604e-17 20 	1.85814e-17 	-3.89137e-17 20 	1.85814e-17 	-3.89137e-17 20 	1.85814e-17 	-3.89137e-17 20 	1.85814e-17 	-3.89137e-17 20 	2.29974e-17 	-4.92893e-17 20 	7.04228e-17 	-9.51128e-17 20 	7.04228e-17 	-9.51128e-17 20 	7.04228e-17 	-9.51128e-17 20 	7.04228e-17 	-9.51128e-17 20 	4.1123e-17 	-5.60665e-17 20 	7.82557e-17 	-1.81587e-17 20 	7.82557e-17 	-1.81587e-17 20 	7.82557e-17 	-1.81587e-17 20 	7.82557e-17 	-1.81587e-17 20 	4.5485e-17 	-7.67068e-18 20 	1.11663e-16 	6.75581e-17 20 	1.11663e-16 	6.75581e-17 20 	1.11663e-16 	6.75581e-17 20 	1.11663e-16 	6.75581e-17 20 	2.28027e-17 	2.28194e-18 20 	1.52654e-17 	-4.22879e-18 20 	1.52654e-17 	-4.22879e-18 20 	1.52654e-17 	-4.22879e-18 20 	1.52654e-17 	-4.22879e-18 20 	-2.48943e-17 	8.49637e-18 20 	-5.81244e-17 	-2.90935e-18 20 	-5.81244e-17 	-2.90935e-18 20 	-5.81244e-17 	-2.90935e-18 20 	-5.81244e-17 	-2.90935e-18 20 	-8.46628e-17 	-2.75005e-18 20 	-6.15015e-17 	-1.21524e-17 20 	-6.15015e-17 	-1.21524e-17 20 	-6.15015e-17 	-1.21524e-17 20 	-6.15015e-17 	-1.21524e-17 20 	-8.29882e-17 	-6.10873e-17 20 	9.69681e-17 	-9.94816e-17 20 	9.69681e-17 	-9.94816e-17 20 	9.69681e-17 	-9.94816e-17 20 	9.69681e-17 	-9.94816e-17 20 	-3.69721e-17 	-7.93025e-17 20 	1.14416e-16 	-5.5439e-17 20 	1.14416e-16 	-5.5439e-17 20 	1.14416e-16 	-5.5439e-17 20 	1.14416e-16 	-5.5439e-17 20 	8.35648e-19 	-5.07785e-17 20 	1.69469e-16 	-4.7991e-17 20 	2.32094e-16 	-1.02171e-16 20 	2.9472e-16 	-1.56352e-16 20 	3.57345e-16 	-2.10532e-16 20 	3.22862e-16 	-2.79097e-16
20 	-7.73321e-17 	-1.5223e-16 20 	-7.68768e-17 	-1.51836e-16 20 	-7.64215e-17 	-1.51441e-16 20 	-7.59662e-17 	-1.51047e-16 20 	-7.5511e-17 	-1.50652e-16 20 	-7.50557e-17 	-1.50258e-16 20 	-9.2708e-17 	-3.07052e-17 20 	-9.2708e-17 	-3.07052e-17 20 	-9.2708e-17 	-3.07052e-17 20 	-9.2708e-17 	-3.07052e-17 20 	-2.84878e-17 	-3.34987e-17 20 	-2.95567e-17 	-7.97745e-17 20 	-2.95567e-17 	-7.97745e-17 20 	-2.95567e-17 	-7.97745e-17 20 	-2.95567e-17 	-7.97745e-17 20 	-5.19998e-18 	-4.6671e-17 20 	-2.10962e-17 	-1.29865e-16 20 	-2.10962e-17 	-1.29865e-16 20 	-2.10962e-17 	-1.29865e-16 20 	-2.10962e-17 	-1.29865e-16 20 	-6.40438e-17 	-1.25096e-16 20 	-1.77243e-16 	-2.72522e-16 20 	-1.77243e-16 	-2.72522e-16 20 	-1.77243e-16 	-2.72522e-16 20 	-1.77243e-16 	-2.72522e-16 20 	-1.78943e-16 	-1.952e-16 20 	-2.90954e-16 	-2.62058e-16 20 	-2.90954e-16 	-2.62058e-16 20 	-2.90954e-16 	-2.62058e-16 20 	-2.90954e-16 	-2.62058e-16 20 	-1.62613e-16 	-1.75148e-16 20 	-9.76373e-17 	-1.33019e-16 20 	-9.76373e-17 	-1.33019e-16 20 	-9.76373e-17 	-1.33019e-16 20 	-9.76373e-17 	-1.33019e-16 20 	-3.69266e-17 	-6.82545e-17 20 	2.99611e-17 	-6.33034e-17 20 	2.99611e-17 	-6.33034e-17 20 	2.99611e-17 	-6.33034e-17 20 	2.99611e-17 	-6.33034e-17 20 	3.43772e-17 	-7.36791e-17 20 	9.07716e-17 	-1.22856e-16 20 	9.07716e-17 	-1.22856e-16 20 	9.07716e-17 	-1.22856e-16 20 	9.07716e-17 	-1.22856e-16 20 	6.14719e-17 	-8.38098e-17 20 	1.00763e-16 	-2.19544e-17 20 	1.00763e-16 	-2.19544e-17 20 	1.00763e-16 	-2.19544e-17 20 	1.00763e-16 	-2.19544e-17 20 	6.79924e-17 	-1.14664e-17 20 	1.22947e-16 	6.86873e-17 20 	1.22947e-16 	6.86873e-17 20 	1.22947e-16 	6.86873e-17 20 	1.22947e-16 	6.86873e-17 20 	3.40862e-17 	3.41111e-18 20 	2.94696e-18 	-2.45369e-20 20 	2.94696e-18 	-2.45369e-20 20 	2.94696e-18 	-2.45369e-20 20 	2.94696e-18 	-2.45369e-20 20 	-3.72127e-17 	1.27006e-17 20 	-1.00018e-16 	-4.27015e-18 20 	-1.00018e-16 	-4.27015e-18 20 	-1.00018e-16 	-4.27015e-18 20 	-1.00018e-16 	-4.27015e-18 20 	-1.26556e-16 	-4.11086e-18 20 	-1.02566e-16 	-4.23802e-17 20 	-1.02566e-16 	-4.23802e-17 20 	-1.02566e-16 	-4.23802e-17 20 	-1.02566e-16 	-4.23802e-17 20 	-1.24053e-16 	-9.13151e-17 20 	7.86732e-17 	-1.38723e-16 20 	7.86732e-17 	-1.38723e-16 20 	7.86732e-17 	-1.38723e-16 20 	7.86732e-17 	-1.38723e-16 20 	-5.5267e-17 	-1.18544e-16 20 	1.1483e-16 	-8.05656e-17 20 	1.1483e-16 	-8.05656e-17 20 	1.1483e-16 	-8.05656e-17 20 	1.1483e-16 	-8.05656e-17 20 	1.24915e-18 	-7.59051e-17 20 	1.66706e-16 	-5.59323e-17 20 	2.29331e-16 	-1.10113e-16 20 	2.91957e-16 	-1.64293e-16 20 	3.54582e-16 	-2.18473e-16 20 	3.20099e-16 	-2.87038e-16
20 	-1.02178e-16 	-2.0197e-16 20 	-1.01722e-16 	-2.01575e-16 20 	-1.01267e-16 	-2.01181e-16 20 	-1.00812e-16 	-2.00786e-16 20 	-1.00356e-16 	-2.00392e-16 20 	-9.99011e-17 	-1.99997e-16 20 	-1.05543e-16 	-5.0332e-17 20 	-1.02138e-16 	-4.17942e-17 20 	-1.02138e-16 	-4.17942e-17 20 	-1.02138e-16 	-4.17942e-17 20 	-3.7918e-17 	-4.45877e-17 20 	-3.29809e-17 	-9.42607e-17 20 	-3.1278e-17 	-9.52239e-17 20 	-3.1278e-17 	-9.52239e-17 20 	-3.1278e-17 	-9.52239e-17 20 	-6.92131e-18 	-6.21204e-17 20 	-3.79935e-17 	-1.65541e-16 20 	-4.22964e-17 	-1.71275e-16 20 	-4.22964e-17 	-1.71275e-16 20 	-4.22964e-17 	-1.71275e-16 20 	-8.5244e-17 	-1.66506e-16 20 	-2.28076e-16 	-3.32012e-16 20 	-2.36478e-16 	-3.37138e-16 20 	-2.36478e-16 	-3.37138e-16 20 	-2.36478e-16 	-3.37138e-16 20 	-2.38177e-16 	-2.59816e-16 20 	-3.45977e-16 	-3.21503e-16 20 	-3.44783e-16 	-3.20037e-16 20 	-3.44783e-16 	-3.20037e-16 20 	-3.44783e-16 	-3.20037e-16 20 	-2.16442e-16 	-2.33126e-16 20 	-1.19052e-16 	-1.6343e-16 20 	-1.09861e-16 	-1.55613e-16 20 	-1.09861e-16 	-1.55613e-16 20 	-1.09861e-16 	-1.55613e-16 20 	-4.91503e-17 	-9.08486e-17 20 	3.61269e-17 	-8.72966e-17 20 	4.13409e-17 	-8.76932e-17 20 	4.13409e-17 	-8.76932e-17 20 	4.13409e-17 	-8.76932e-17 20 	4.5757e-17 	-9.80689e-17 20 	1.09139e-16 	-1.49859e-16 20 	1.11121e-16 	-1.50599e-16 20 	1.11121e-16 	-1.50599e-16 20 	1.11121e-16 	-1.50599e-16 20 	8.18208e-17 	-1.11553e-16 20 	1.22794e-16 	-3.10401e-17 20 	1.2327e-16 	-2.57501e-17 20 	1.2327e-16 	-2.57501e-17 20 	1.2327e-16 	-2.57501e-17 20 	9.04997e-17 	-1.5262e-17 20 	1.36709e-16 	6.87286e-17 20 	1.3423e-16 	6.98165e-17 20 	1.3423e-16 	6.98165e-17 20 	1.3423e-16 	6.98165e-17 20 	4.53696e-17 	4.54028e-18 20 	-4.15779e-18 	3.50043e-18 20 	-9.37144e-18 	4.17971e-18 20 	-9.37144e-18 	4.17971e-18 20 	-9.37144e-18 	4.17971e-18 20 	-4.95311e-17 	1.69049e-17 20 	-1.35379e-16 	-4.40164e-18 20 	-1.41912e-16 	-5.63096e-18 20 	-1.41912e-16 	-5.63096e-18 20 	-1.41912e-16 	-5.63096e-18 20 	-1.6845e-16 	-5.47166e-18 20 	-1.43815e-16 	-6.62313e-17 20 	-1.43631e-16 	-7.2608e-17 20 	-1.43631e-16 	-7.2608e-17 20 	-1.43631e-16 	-7.2608e-17 20 	-1.65118e-16 	-1.21543e-16 20 	5.53484e-17 	-1.75973e-16 20 	6.03783e-17 	-1.77964e-16 20 	6.03783e-17 	-1.77964e-16 20 	6.03783e-17 	-1.77964e-16 20 	-7.35619e-17 	-1.57785e-16 20 	1.11111e-16 	-1.0881e-16 20 	1.15243e-16 	-1.05692e-16 20 	1.15243e-16 	-1.05692e-16 20 	1.15243e-16 	-1.05692e-16 20 	1.66265e-18 	-1.01032e-16 20 	1.64645e-16 	-6.76699e-17 20 	2.26569e-16 	-1.18054e-16 20 	2.89194e-16 	-1.72234e-16 20 	3.5182e-16 	-2.26415e-16 20 	3.17336e-16 	-2.94979e-16
20 	-1.27023e-16 	-2.51709e-16 20 	-1.26568e-16 	-2.51315e-16 20 	-1.26112e-16 	-2.5092e-16 20 	-1.25657e-16 	-2.50526e-16 20 	-1.25202e-16 	-2.50131e-16 20 	-1.24747e-16 	-2.49737e-16 20 	-1.30389e-16 	-1.00071e-16 20 	-1.11568e-16 	-5.28831e-17 20 	-1.11568e-16 	-5.28831e-17 20 	-1.11568e-16 	-5.28831e-17 20 	-4.73482e-17 	-5.56766e-17 20 	-4.24111e-17 	-1.0535e-16 20 	-3.29993e-17 	-1.10673e-16 20 	-3.29993e-17 	-1.10673e-16 20 	-3.29993e-17 	-1.10673e-16 20 	-8.64265e-18 	-7.75698e-17 20 	-3.97149e-17 	-1.8099e-16 20 	-6.34967e-17 	-2.12686e-16 20 	-6.34967e-17 	-2.12686e-16 20 	-6.34967e-17 	-2.12686e-16 20 	-1.06444e-16 	-2.07916e-16 20 	-2.49276e-16 	-3.73422e-16 20 	-2.95712e-16 	-4.01755e-16 20 	-2.95712e-16 	-4.01755e-16 20 	-2.95712e-16 	-4.01755e-16 20 	-2.97412e-16 	-3.24433e-16 20 	-4.05212e-16 	-3.86119e-16 20 	-3.98613e-16 	-3.78015e-16 20 	-3.98613e-16 	-3.78015e-16 20 	-3.98613e-16 	-3.78015e-16 20 	-2.70272e-16 	-2.91105e-16 20 	-1.72881e-16 	-2.21408e-16 20 	-1.22085e-16 	-1.78207e-16 20 	-1.22085e-16 	-1.78207e-16 20 	-1.22085e-16 	-1.78207e-16 20 	-6.1374e-17 	-1.13443e-16 20 	2.39032e-17 	-1.09891e-16 20 	5.27207e-17 	-1.12083e-16 20 	5.27207e-17 	-1.12083e-16 20 	5.27207e-17 	-1.12083e-16 20 	5.71368e-17 	-1.22459e-16 20 	1.20519e-16 	-1.74248e-16 20 	1.31469e-16 	-1.78343e-16 20 	1.31469e-16 	-1.78343e-16 20 	1.31469e-16 	-1.78343e-16 20 	1.0217e-16 	-1.39296e-16 20 	1.43142e-16 	-5.87834e-17 20 	1.45778e-16 	-2.95457e-17 20 	1.45778e-16 	-2.95457e-17 20 	1.45778e-16 	-2.95457e-17 20 	1.13007e-16 	-1.90577e-17 20 	1.59217e-16 	6.49329e-17 20 	1.45513e-16 	7.09456e-17 20 	1.45513e-16 	7.09456e-17 20 	1.45513e-16 	7.09456e-17 20 	5.66531e-17 	5.66945e-18 20 	7.12567e-18 	4.6296e-18 20 	-2.16898e-17 	8.38397e-18 20 	-2.16898e-17 	8.38397e-18 20 	-2.16898e-17 	8.38397e-18 20 	-6.18495e-17 	2.11091e-17 20 	-1.47697e-16 	-1.97385e-19 20 	-1.83805e-16 	-6.99176e-18 20 	-1.83805e-16 	-6.99176e-18 20 	-1.83805e-16 	-6.99176e-18 20 	-2.10344e-16 	-6.83247e-18 20 	-1.85708e-16 	-6.75921e-17 20 	-1.84696e-16 	-1.02836e-16 20 	-1.84696e-16 	-1.02836e-16 20 	-1.84696e-16 	-1.02836e-16 20 	-2.06183e-16 	-1.51771e-16 20 	1.42834e-17 	-2.06201e-16 20 	4.20834e-17 	-2.17205e-16 20 	4.20834e-17 	-2.17205e-16 20 	4.20834e-17 	-2.17205e-16 20 	-9.18568e-17 	-1.97026e-16 20 	9.28157e-17 	-1.48051e-16 20 	1.15657e-16 	-1.30819e-16 20 	1.15657e-16 	-1.30819e-16 20 	1.15657e-16 	-1.30819e-16 20 	2.07616e-18 	-1.26158e-16 20 	1.65058e-16 	-9.27966e-17 20 	2.23806e-16 	-1.25995e-16 20 	2.86431e-16 	-1.80176e-16 20 	3.49057e-16 	-2.34356e-16 20 	3.14574e-16 	-3.0292e-16
20 	-1.51868e-16 	-3.01449e-16 20 	-1.51413e-16 	-3.01054e-16 20 	-1.50958e-16 	-3.0066e-16 20 	-1.50503e-16 	-3.00265e-16 20 	-1.50047e-16 	-2.99871e-16 20 	-1.49592e-16 	-2.99476e-16 20 	-1.55234e-16 	-1.49811e-16 20 	-1.20999e-16 	-6.39721e-17 20 	-1.20999e-16 	-6.39721e-17 20 	-1.20999e-16 	-6.39721e-17 20 	-5.67784e-17 	-6.67656e-17 20 	-5.18413e-17 	-1.16439e-16 20 	-3.47207e-17 	-1.26123e-16 20 	-3.47207e-17 	-1.26123e-16 20 	-3.47207e-17 	-1.26123e-16 20 	-1.0364e-17 	-9.30192e-17 20 	-4.14362e-17 	-1.96439e-16 20 	-8.46969e-17 	-2.54096e-16 20 	-8.46969e-17 	-2.54096e-16 20 	-8.46969e-17 	-2.54096e-16 20 	-1.27644e-16 	-2.49326e-16 20 	-2.70476e-16 	-4.14832e-16 20 	-3.54947e-16 	-4.66371e-16 20 	-3.54947e-16 	-4.66371e-16 20 	-3.54947e-16 	-4.66371e-16 20 	-3.56647e-16 	-3.89049e-16 20 	-4.64447e-16 	-4.50736e-16 20 	-4.52442e-16 	-4.35994e-16 20 	-4.52442e-16 	-4.35994e-16 20 	-4.52442e-16 	-4.35994e-16 20 	-3.24101e-16 	-3.49083e-16 20 	-2.2671e-16 	-2.79387e-16 20 	-1.34308e-16 	-2.00801e-16 20 	-1.34308e-16 	-2.00801e-16 20 	-1.34308e-16 	-2.00801e-16 20 	-7.35978e-17 	-1.36037e-16 20 	1.16795e-17 	-1.32485e-16 20 	6.41005e-17 	-1.36473e-16 20 	6.41005e-17 	-1.36473e-16 20 	6.41005e-17 	-1.36473e-16 20 	6.85166e-17 	-1.46848e-16 20 	1.31899e-16 	-1.98638e-16 20 	1.51818e-16 	-2.06086e-16 20 	1.51818e-16 	-2.06086e-16 20 	1.51818e-16 	-2.06086e-16 20 	1.22519e-16 	-1.6704e-16 20 	1.63491e-16 	-8.65268e-17 20 	1.68285e-16 	-3.33414e-17 20 	1.68285e-16 	-3.33414e-17 20 	1.68285e-16 	-3.33414e-17 20 	1.35514e-16 	-2.28534e-17 20 	1.81724e-16 	6.11372e-17 20 	1.56797e-16 	7.20748e-17 20 	1.56797e-16 	7.20748e-17 20 	1.56797e-16 	7.20748e-17 20 	6.79366e-17 	6.79863e-18 20 	1.84091e-17 	5.75877e-18 20 	-3.40082e-17 	1.25882e-17 20 	-3.40082e-17 	1.25882e-17 20 	-3.40082e-17 	1.25882e-17 20 	-7.41679e-17 	2.53134e-17 20 	-1.60015e-16 	4.00687e-18 20 	-2.25699e-16 	-8.35257e-18 20 	-2.25699e-16 	-8.35257e-18 20 	-2.25699e-16 	-8.35257e-18 20 	-2.52237e-16 	-8.19327e-18 20 	-2.27602e-16 	-6.89529e-17 20 	-2.25761e-16 	-1.33064e-16 20 	-2.25761e-16 	-1.33064e-16 20 	-2.25761e-16 	-1.33064e-16 20 	-2.47248e-16 	-1.81999e-16 20 	-2.67816e-17 	-2.36428e-16 20 	2.37885e-17 	-2.56446e-16 20 	2.37885e-17 	-2.56446e-16 20 	2.37885e-17 	-2.56446e-16 20 	-1.10152e-16 	-2.36267e-16 20 	7.45208e-17 	-1.87293e-16 20 	1.1607e-16 	-1.55946e-16 20 	1.1607e-16 	-1.55946e-16 20 	1.1607e-16 	-1.55946e-16 20 	2.48966e-18 	-1.51285e-16 20 	1.65472e-16 	-1.17923e-16 20 	2.21043e-16 	-1.33937e-16 20 	2.83669e-16 	-1.88117e-16 20 	3.46294e-16 	-2.42297e-16 20 	3.11811e-16 	-3.10862e-16