/*--------------------------------*- C++ -*----------------------------------*\
  =========                 |
  \\      /  F ield         | OpenFOAM: The Open Source CFD Toolbox
   \\    /   O peration     | Website:  https://openfoam.org
    \\  /    A nd           | Version:  9
     \\/     M anipulation  |
\*---------------------------------------------------------------------------*/
FoamFile
{
    format      ascii;
    class       volVectorField;
    location    "15";
    object      ddtCorrDdt0(hU);
}
// * * * * * * * * * * * * * * * * * * * * * * * * * * * * * * * * * * * * * //

dimensions      [0 2 -2 0 0 0 0];

internalField   nonuniform List<vector> 
400
(
(-3.57122e-07 -3.3778e-09 0)
(-7.61597e-07 -2.18764e-08 0)
(-8.77471e-07 -1.34599e-08 0)
(-1.16311e-06 -5.8133e-08 0)
(-1.05812e-06 -1.42959e-07 0)
(-5.02377e-07 -9.9757e-08 0)
(1.01831e-08 1.10724e-08 0)
(2.31749e-07 7.82956e-08 0)
(2.3701e-07 1.20108e-08 0)
(3.77188e-07 -1.51724e-07 0)
(6.60069e-07 -1.7174e-07 0)
(8.21615e-07 -6.19476e-08 0)
(5.46164e-07 3.87299e-10 0)
(-1.60406e-07 -1.68151e-08 0)
(-6.1107e-07 -1.69849e-08 0)
(-4.47247e-07 2.19904e-08 0)
(2.98596e-08 9.1031e-08 0)
(4.01857e-07 1.4929e-07 0)
(3.90948e-07 1.83147e-07 0)
(3.88216e-07 5.67239e-08 0)
(-3.60694e-07 -7.57623e-08 0)
(-7.74577e-07 -1.39993e-07 0)
(-8.91662e-07 -9.21028e-08 0)
(-1.1718e-06 -1.54927e-07 0)
(-1.04735e-06 -3.19583e-07 0)
(-5.04845e-07 -2.26326e-07 0)
(3.92928e-09 9.20362e-08 0)
(1.77009e-07 2.89022e-07 0)
(2.10545e-07 1.11018e-07 0)
(3.2631e-07 -2.63041e-07 0)
(6.32481e-07 -3.60224e-07 0)
(7.78745e-07 -1.25235e-07 0)
(5.15656e-07 6.163e-08 0)
(-5.9855e-08 6.25218e-08 0)
(-4.5351e-07 2.23899e-09 0)
(-3.38359e-07 5.95859e-08 0)
(2.34564e-08 3.18982e-07 0)
(3.75649e-07 6.11657e-07 0)
(3.14406e-07 5.75288e-07 0)
(2.61857e-07 1.39004e-07 0)
(-3.44551e-07 -2.20546e-07 0)
(-7.72358e-07 -3.22536e-07 0)
(-8.71371e-07 -1.68546e-07 0)
(-1.10518e-06 -1.90997e-07 0)
(-9.82429e-07 -3.78909e-07 0)
(-4.99027e-07 -2.5727e-07 0)
(-3.59888e-08 2.51694e-07 0)
(1.87104e-07 5.63069e-07 0)
(2.14692e-07 2.78897e-07 0)
(2.93992e-07 -1.84234e-07 0)
(5.54573e-07 -3.44899e-07 0)
(7.21517e-07 -2.50471e-08 0)
(6.05708e-07 2.8593e-07 0)
(1.79876e-07 2.45616e-07 0)
(-1.97311e-07 6.14528e-08 0)
(-1.69598e-07 1.96001e-07 0)
(1.61594e-07 5.03213e-07 0)
(2.56656e-07 8.4192e-07 0)
(2.86552e-08 8.53816e-07 0)
(4.59836e-09 2.02159e-07 0)
(-2.92275e-07 -3.83381e-07 0)
(-6.98661e-07 -5.22915e-07 0)
(-8.09842e-07 -2.10749e-07 0)
(-1.01166e-06 -1.45071e-07 0)
(-8.88761e-07 -3.4418e-07 0)
(-4.7095e-07 -1.89823e-07 0)
(-5.96711e-08 4.63342e-07 0)
(1.44029e-07 8.51496e-07 0)
(2.43482e-07 5.4831e-07 0)
(2.66564e-07 -6.3055e-08 0)
(4.67884e-07 -2.0272e-07 0)
(7.0673e-07 1.70722e-07 0)
(6.64033e-07 5.64126e-07 0)
(4.03951e-07 4.49949e-07 0)
(1.47104e-07 1.53263e-07 0)
(4.03633e-08 2.98834e-07 0)
(4.66069e-08 6.61997e-07 0)
(8.08692e-08 1.12768e-06 0)
(-1.07367e-07 1.03014e-06 0)
(-3.26195e-07 2.62117e-07 0)
(-2.30198e-07 -5.66041e-07 0)
(-5.68434e-07 -7.34893e-07 0)
(-6.85124e-07 -2.52253e-07 0)
(-8.48972e-07 -3.82325e-08 0)
(-7.51032e-07 -1.96143e-07 0)
(-4.01905e-07 -3.7789e-09 0)
(-5.54355e-08 7.20392e-07 0)
(2.20512e-07 1.17593e-06 0)
(2.8976e-07 8.65118e-07 0)
(2.9225e-07 2.56245e-07 0)
(2.82045e-07 2.29756e-07 0)
(6.05062e-07 5.78451e-07 0)
(7.70032e-07 8.10109e-07 0)
(6.31498e-07 6.08154e-07 0)
(4.18891e-07 2.91789e-07 0)
(2.7857e-07 3.60171e-07 0)
(1.6017e-07 7.43976e-07 0)
(-1.43108e-07 1.28604e-06 0)
(-4.88989e-07 1.14077e-06 0)
(-6.55443e-07 2.4359e-07 0)
(-1.31558e-07 -7.17995e-07 0)
(-3.48712e-07 -8.9756e-07 0)
(-4.73314e-07 -2.55688e-07 0)
(-6.09971e-07 1.01547e-07 0)
(-5.49122e-07 1.70825e-08 0)
(-2.91596e-07 2.33442e-07 0)
(-8.53576e-09 9.42374e-07 0)
(2.98676e-07 1.43846e-06 0)
(4.84768e-07 1.09589e-06 0)
(4.91095e-07 5.51397e-07 0)
(4.33815e-07 4.27874e-07 0)
(3.17478e-07 9.01987e-07 0)
(5.90636e-07 1.10367e-06 0)
(8.49664e-07 7.73033e-07 0)
(7.69417e-07 3.58977e-07 0)
(4.49346e-07 3.82751e-07 0)
(4.44672e-08 6.6655e-07 0)
(-2.5091e-07 1.08199e-06 0)
(-7.01545e-07 1.11208e-06 0)
(-9.11385e-07 2.08424e-07 0)
(-1.06466e-08 -7.75011e-07 0)
(-7.03022e-08 -9.62675e-07 0)
(-1.98689e-07 -2.47193e-07 0)
(-3.15156e-07 2.11335e-07 0)
(-3.04819e-07 2.26083e-07 0)
(-1.6827e-07 4.49119e-07 0)
(7.9537e-08 1.0614e-06 0)
(4.15464e-07 1.46568e-06 0)
(6.49535e-07 1.21271e-06 0)
(5.22885e-07 6.8076e-07 0)
(4.58464e-07 2.36079e-07 0)
(3.77228e-07 6.35438e-07 0)
(5.49202e-07 1.04148e-06 0)
(8.88661e-07 8.22733e-07 0)
(9.34612e-07 3.6802e-07 0)
(5.6638e-07 3.38136e-07 0)
(8.51097e-09 6.66518e-07 0)
(-3.94161e-07 1.05291e-06 0)
(-8.58105e-07 8.95954e-07 0)
(-1.13414e-06 1.77112e-07 0)
(1.01466e-07 -7.00916e-07 0)
(2.16561e-07 -8.65697e-07 0)
(9.11685e-08 -2.22622e-07 0)
(-3.26992e-09 2.39357e-07 0)
(-3.99262e-08 3.32555e-07 0)
(-4.67546e-08 5.36495e-07 0)
(1.25874e-07 1.04623e-06 0)
(5.54194e-07 1.37589e-06 0)
(8.91724e-07 1.18889e-06 0)
(5.82348e-07 6.76417e-07 0)
(-6.59081e-07 7.31321e-07 0)
(4.1864e-07 8.37e-07 0)
(7.61381e-07 9.02558e-07 0)
(1.07303e-06 6.66887e-07 0)
(1.07833e-06 3.04485e-07 0)
(6.88134e-07 2.94481e-07 0)
(2.38019e-08 5.537e-07 0)
(-7.3066e-07 8.0689e-07 0)
(-9.91816e-07 6.67961e-07 0)
(-1.19795e-06 1.13985e-07 0)
(1.88427e-07 -4.86873e-07 0)
(4.47762e-07 -5.88367e-07 0)
(3.309e-07 -1.4055e-07 0)
(2.62255e-07 1.9479e-07 0)
(1.66596e-07 3.01136e-07 0)
(8.21192e-08 4.54778e-07 0)
(2.41702e-07 7.5385e-07 0)
(6.59118e-07 9.38229e-07 0)
(9.24692e-07 8.58576e-07 0)
(8.63821e-07 5.32255e-07 0)
(1.10469e-06 6.59524e-07 0)
(-8.12034e-08 7.1882e-07 0)
(3.55394e-07 7.79958e-07 0)
(9.69655e-07 5.85296e-07 0)
(1.13669e-06 2.01598e-07 0)
(7.44351e-07 1.77924e-07 0)
(-7.89273e-08 4.09584e-07 0)
(-8.22394e-07 5.23631e-07 0)
(-1.0023e-06 3.86912e-07 0)
(-1.26173e-06 5.21227e-09 0)
(2.46983e-07 -1.6465e-07 0)
(5.72262e-07 -1.83891e-07 0)
(4.66781e-07 -1.76655e-08 0)
(4.15858e-07 9.8071e-08 0)
(2.80222e-07 1.44368e-07 0)
(1.13804e-07 2.12315e-07 0)
(2.76825e-07 2.85483e-07 0)
(7.53723e-07 2.85986e-07 0)
(1.03957e-06 2.51876e-07 0)
(8.52777e-07 2.4126e-07 0)
(3.69039e-07 -1.27077e-07 0)
(-8.21213e-08 6.56192e-08 0)
(4.7126e-07 3.25636e-07 0)
(1.06497e-06 2.98652e-07 0)
(1.14513e-06 9.65919e-08 0)
(5.96115e-07 1.34641e-07 0)
(-1.2684e-07 2.81916e-07 0)
(-6.69568e-07 2.42213e-07 0)
(-1.02446e-06 5.83609e-08 0)
(-1.41634e-06 -6.54024e-08 0)
(2.47115e-07 1.86856e-07 0)
(5.58719e-07 2.55692e-07 0)
(4.45535e-07 1.1106e-07 0)
(4.11656e-07 -1.67987e-08 0)
(2.86037e-07 -6.2926e-08 0)
(1.22502e-07 -1.21031e-07 0)
(2.83731e-07 -1.91241e-07 0)
(7.44199e-07 -2.13891e-07 0)
(1.07475e-06 -2.81487e-07 0)
(7.45039e-07 -2.28126e-07 0)
(3.93618e-07 2.43853e-08 0)
(8.75794e-08 -1.41682e-07 0)
(3.87343e-07 -3.13958e-07 0)
(1.0335e-06 -2.24345e-07 0)
(1.15289e-06 8.96863e-08 0)
(5.77171e-07 9.29849e-08 0)
(-1.51139e-07 -1.37805e-07 0)
(-6.58902e-07 -1.02783e-07 0)
(-1.02292e-06 -2.72211e-08 0)
(-1.40546e-06 -6.63772e-08 0)
(1.84439e-07 5.02332e-07 0)
(4.20573e-07 6.49325e-07 0)
(2.99608e-07 2.20409e-07 0)
(2.47321e-07 -1.13883e-07 0)
(1.57233e-07 -2.04183e-07 0)
(9.039e-08 -3.42175e-07 0)
(2.71812e-07 -6.44932e-07 0)
(7.00744e-07 -8.7484e-07 0)
(9.77628e-07 -8.38225e-07 0)
(1.04996e-06 -6.78457e-07 0)
(-3.87294e-07 -6.32075e-07 0)
(-1.43385e-07 -7.31729e-07 0)
(3.21362e-07 -8.02848e-07 0)
(9.43086e-07 -4.61105e-07 0)
(1.13025e-06 -2.98027e-08 0)
(7.0314e-07 3.48133e-08 0)
(-8.45263e-08 -2.2408e-07 0)
(-7.85043e-07 -4.14123e-07 0)
(-1.00911e-06 -3.46905e-07 0)
(-1.26377e-06 -1.1461e-07 0)
(9.2753e-08 7.2439e-07 0)
(1.76005e-07 9.16953e-07 0)
(5.28654e-08 2.85592e-07 0)
(-2.16944e-08 -1.52385e-07 0)
(-4.94504e-08 -2.00628e-07 0)
(-3.36082e-08 -3.78653e-07 0)
(1.60088e-07 -9.05322e-07 0)
(5.93774e-07 -1.33146e-06 0)
(9.09376e-07 -1.19119e-06 0)
(4.5868e-07 -8.1995e-07 0)
(1.02088e-06 -8.88397e-07 0)
(2.57872e-07 -9.29995e-07 0)
(6.07555e-07 -8.71961e-07 0)
(1.04748e-06 -5.1048e-07 0)
(1.0426e-06 -1.35033e-07 0)
(6.74399e-07 -8.54693e-08 0)
(-1.01412e-08 -3.40363e-07 0)
(-6.89657e-07 -6.87479e-07 0)
(-9.85348e-07 -6.89757e-07 0)
(-1.20832e-06 -2.07959e-07 0)
(-2.76206e-08 7.97529e-07 0)
(-1.20621e-07 1.00659e-06 0)
(-2.30867e-07 3.19204e-07 0)
(-3.32516e-07 -1.00858e-07 0)
(-3.03804e-07 -9.12427e-08 0)
(-1.60095e-07 -2.94742e-07 0)
(9.24574e-08 -9.40539e-07 0)
(4.71285e-07 -1.42188e-06 0)
(6.72071e-07 -1.23636e-06 0)
(6.59163e-07 -6.92074e-07 0)
(2.44948e-07 -4.58027e-07 0)
(3.31487e-07 -7.90602e-07 0)
(6.26016e-07 -9.31311e-07 0)
(8.28663e-07 -6.49607e-07 0)
(8.52331e-07 -1.64494e-07 0)
(5.4869e-07 -1.40869e-07 0)
(3.09185e-08 -4.97667e-07 0)
(-4.7513e-07 -9.26528e-07 0)
(-8.0936e-07 -9.09545e-07 0)
(-1.06692e-06 -2.67618e-07 0)
(-1.40564e-07 7.35792e-07 0)
(-4.00403e-07 9.49848e-07 0)
(-5.0588e-07 3.36321e-07 0)
(-6.32448e-07 1.19612e-08 0)
(-5.48156e-07 1.03505e-07 0)
(-2.83595e-07 -1.02622e-07 0)
(6.83568e-09 -8.20958e-07 0)
(3.26831e-07 -1.32808e-06 0)
(5.43429e-07 -1.11304e-06 0)
(4.7764e-07 -5.79233e-07 0)
(3.63352e-07 -5.14796e-07 0)
(5.60091e-07 -8.86622e-07 0)
(6.54072e-07 -1.08352e-06 0)
(7.6458e-07 -6.70273e-07 0)
(6.80696e-07 -1.69556e-07 0)
(3.96921e-07 -1.85051e-07 0)
(5.2077e-08 -5.54411e-07 0)
(-3.04322e-07 -1.03721e-06 0)
(-6.28636e-07 -1.04842e-06 0)
(-8.58842e-07 -3.13378e-07 0)
(-2.29122e-07 5.88153e-07 0)
(-6.11284e-07 7.86501e-07 0)
(-7.1539e-07 3.28459e-07 0)
(-8.61757e-07 1.55191e-07 0)
(-7.55497e-07 3.42049e-07 0)
(-3.89732e-07 1.30941e-07 0)
(-2.37608e-08 -5.88012e-07 0)
(2.44059e-07 -1.07535e-06 0)
(3.31303e-07 -8.12012e-07 0)
(3.22517e-07 -3.19075e-07 0)
(3.3216e-07 -1.83958e-07 0)
(5.0434e-07 -5.58227e-07 0)
(7.27854e-07 -8.26121e-07 0)
(6.30434e-07 -5.70018e-07 0)
(3.81821e-07 -1.78979e-07 0)
(2.21881e-07 -2.01122e-07 0)
(1.10831e-07 -5.90662e-07 0)
(-8.97381e-08 -1.10737e-06 0)
(-4.13892e-07 -1.10266e-06 0)
(-5.97672e-07 -3.23658e-07 0)
(-2.91669e-07 4.01938e-07 0)
(-7.22962e-07 5.64504e-07 0)
(-8.30531e-07 2.97409e-07 0)
(-1.02634e-06 2.69138e-07 0)
(-8.96051e-07 4.88053e-07 0)
(-4.51678e-07 3.14337e-07 0)
(-3.16898e-08 -3.517e-07 0)
(2.07014e-07 -7.83951e-07 0)
(2.76323e-07 -5.31684e-07 0)
(2.98789e-07 2.1828e-08 0)
(4.88994e-07 1.5129e-07 0)
(6.92683e-07 -2.35583e-07 0)
(5.77182e-07 -5.7015e-07 0)
(3.2654e-07 -4.32606e-07 0)
(9.98061e-08 -1.04989e-07 0)
(4.66012e-08 -1.55344e-07 0)
(8.54423e-08 -5.51913e-07 0)
(6.47961e-08 -1.04508e-06 0)
(-1.4417e-07 -1.03315e-06 0)
(-2.69788e-07 -3.01342e-07 0)
(-3.36498e-07 2.11739e-07 0)
(-7.50285e-07 3.25822e-07 0)
(-8.57398e-07 2.11898e-07 0)
(-1.12385e-06 2.8632e-07 0)
(-9.94251e-07 5.26308e-07 0)
(-4.79886e-07 4.06303e-07 0)
(-1.08455e-08 -1.43591e-07 0)
(1.71271e-07 -4.79527e-07 0)
(2.15043e-07 -2.55402e-07 0)
(3.05714e-07 2.15548e-07 0)
(5.25782e-07 2.70046e-07 0)
(6.69659e-07 -1.14877e-07 0)
(5.32577e-07 -4.10671e-07 0)
(1.02426e-07 -2.92882e-07 0)
(-2.24181e-07 -7.94521e-08 0)
(-1.91485e-07 -1.49338e-07 0)
(7.45822e-08 -4.52264e-07 0)
(2.53687e-07 -8.11937e-07 0)
(1.1877e-07 -7.99824e-07 0)
(2.30184e-08 -2.37088e-07 0)
(-3.55861e-07 8.61698e-08 0)
(-7.36671e-07 1.53968e-07 0)
(-8.48999e-07 1.22229e-07 0)
(-1.11647e-06 2.05751e-07 0)
(-1.00782e-06 3.94843e-07 0)
(-4.97354e-07 3.30144e-07 0)
(-9.694e-10 -1.9162e-08 0)
(2.25941e-07 -2.31219e-07 0)
(2.39834e-07 -4.30063e-08 0)
(2.99823e-07 2.3685e-07 0)
(5.35548e-07 2.4382e-07 0)
(6.87129e-07 1.07402e-08 0)
(4.82541e-07 -2.13958e-07 0)
(-9.05007e-08 -1.92583e-07 0)
(-4.78325e-07 -6.23902e-08 0)
(-3.30903e-07 -9.19172e-08 0)
(9.0276e-08 -2.82453e-07 0)
(4.02716e-07 -5.22594e-07 0)
(3.25265e-07 -5.16339e-07 0)
(2.44427e-07 -1.49719e-07 0)
(-3.68325e-07 2.68022e-08 0)
(-7.23631e-07 5.17046e-08 0)
(-8.48403e-07 4.79655e-08 0)
(-1.13659e-06 7.34156e-08 0)
(-1.02402e-06 1.29061e-07 0)
(-4.76552e-07 1.15496e-07 0)
(3.56998e-08 5.15344e-09 0)
(2.41441e-07 -6.28971e-08 0)
(2.29824e-07 7.58257e-09 0)
(3.21365e-07 7.56124e-08 0)
(6.05266e-07 1.35182e-07 0)
(7.12811e-07 1.64904e-08 0)
(4.13547e-07 -6.54933e-08 0)
(-2.00921e-07 -7.63041e-08 0)
(-5.80961e-07 -1.47402e-08 0)
(-4.193e-07 -2.56908e-08 0)
(7.66631e-08 -1.02174e-07 0)
(4.74264e-07 -1.8848e-07 0)
(4.53386e-07 -1.85332e-07 0)
(3.85006e-07 -5.4415e-08 0)
)
;

boundaryField
{
    sides
    {
        type            calculated;
        value           nonuniform List<vector> 
40
(
(-3.68325e-07 0 0)
(-7.23631e-07 0 0)
(-8.48403e-07 0 0)
(-1.13659e-06 0 0)
(-1.02402e-06 0 0)
(-4.76552e-07 0 0)
(3.56998e-08 0 0)
(2.41441e-07 0 0)
(2.29824e-07 0 0)
(3.21365e-07 0 0)
(6.05266e-07 0 0)
(7.12811e-07 0 0)
(4.13547e-07 0 0)
(-2.00921e-07 0 0)
(-5.80961e-07 0 0)
(-4.193e-07 0 0)
(7.66631e-08 0 0)
(4.74264e-07 0 0)
(4.53386e-07 0 0)
(3.85006e-07 0 0)
(-3.57122e-07 0 0)
(-7.61597e-07 0 0)
(-8.77471e-07 0 0)
(-1.16311e-06 0 0)
(-1.05812e-06 0 0)
(-5.02377e-07 0 0)
(1.01831e-08 0 0)
(2.31749e-07 0 0)
(2.3701e-07 0 0)
(3.77188e-07 0 0)
(6.60069e-07 0 0)
(8.21615e-07 0 0)
(5.46164e-07 0 0)
(-1.60406e-07 0 0)
(-6.1107e-07 0 0)
(-4.47247e-07 0 0)
(2.98596e-08 0 0)
(4.01857e-07 0 0)
(3.90948e-07 0 0)
(3.88216e-07 0 0)
)
;
    }
    inlet
    {
        type            calculated;
        value           uniform (0 0 0);
    }
    outlet
    {
        type            calculated;
        value           nonuniform List<vector> 
20
(
(3.88216e-07 5.67239e-08 0)
(2.61857e-07 1.39004e-07 0)
(4.59836e-09 2.02159e-07 0)
(-3.26195e-07 2.62117e-07 0)
(-6.55443e-07 2.4359e-07 0)
(-9.11385e-07 2.08424e-07 0)
(-1.13414e-06 1.77112e-07 0)
(-1.19795e-06 1.13985e-07 0)
(-1.26173e-06 5.21227e-09 0)
(-1.41634e-06 -6.54024e-08 0)
(-1.40546e-06 -6.63772e-08 0)
(-1.26377e-06 -1.1461e-07 0)
(-1.20832e-06 -2.07959e-07 0)
(-1.06692e-06 -2.67618e-07 0)
(-8.58842e-07 -3.13378e-07 0)
(-5.97672e-07 -3.23658e-07 0)
(-2.69788e-07 -3.01342e-07 0)
(2.30184e-08 -2.37088e-07 0)
(2.44427e-07 -1.49719e-07 0)
(3.85006e-07 -5.4415e-08 0)
)
;
    }
    frontAndBack
    {
        type            empty;
    }
}


// ************************************************************************* //
