/*--------------------------------*- C++ -*----------------------------------*\
  =========                 |
  \\      /  F ield         | OpenFOAM: The Open Source CFD Toolbox
   \\    /   O peration     | Website:  https://openfoam.org
    \\  /    A nd           | Version:  9
     \\/     M anipulation  |
\*---------------------------------------------------------------------------*/
FoamFile
{
    format      ascii;
    class       volScalarField;
    location    "15";
    object      h;
}
// * * * * * * * * * * * * * * * * * * * * * * * * * * * * * * * * * * * * * //

dimensions      [0 1 0 0 0 0 0];

internalField   nonuniform List<scalar> 
400
(
0.00999902
0.0099993
0.00999991
0.0100009
0.010002
0.0100028
0.0100029
0.0100025
0.0100017
0.0100008
0.00999997
0.00999916
0.00999868
0.00999879
0.0099995
0.0100003
0.0100007
0.0100007
0.0100005
0.0100002
0.00999898
0.00999931
0.00999996
0.0100009
0.010002
0.0100027
0.0100028
0.0100023
0.0100015
0.0100006
0.00999977
0.00999901
0.00999858
0.00999871
0.00999938
0.0100001
0.0100005
0.0100005
0.0100002
0.0100001
0.00999911
0.00999949
0.0100002
0.0100012
0.0100021
0.0100027
0.0100026
0.010002
0.0100012
0.0100004
0.00999956
0.00999889
0.00999854
0.00999868
0.00999931
0.00999999
0.0100003
0.0100003
0.0100002
0.01
0.00999939
0.00999981
0.0100005
0.0100014
0.0100022
0.0100026
0.0100023
0.0100016
0.0100006
0.00999972
0.00999901
0.00999853
0.00999835
0.00999863
0.00999923
0.00999977
0.01
0.0099999
0.00999975
0.00999987
0.00999982
0.0100002
0.0100009
0.0100017
0.0100023
0.0100024
0.010002
0.0100011
0.0099999
0.00999887
0.00999807
0.0099978
0.00999792
0.0099985
0.00999928
0.00999982
0.0099999
0.00999969
0.00999965
0.00999979
0.0100004
0.0100007
0.0100013
0.0100019
0.0100023
0.0100023
0.0100016
0.0100004
0.00999891
0.00999759
0.00999683
0.00999669
0.00999728
0.00999832
0.00999927
0.00999972
0.00999958
0.0099993
0.00999922
0.00999965
0.0100011
0.0100013
0.0100017
0.0100021
0.0100024
0.0100022
0.0100014
0.00999987
0.00999771
0.00999549
0.00999427
0.00999471
0.00999681
0.00999928
0.0100006
0.0100004
0.0099995
0.00999886
0.00999887
0.00999955
0.0100018
0.0100019
0.010002
0.0100023
0.0100025
0.0100024
0.0100016
0.00999988
0.00999734
0.00999399
0.00999002
0.00999033
0.00999464
0.00999997
0.0100024
0.0100016
0.00999957
0.00999833
0.00999852
0.00999949
0.0100023
0.0100023
0.0100024
0.0100026
0.010003
0.0100031
0.0100022
0.00999956
0.00999486
0.00998875
0.00998625
0.00998947
0.00999806
0.0100034
0.0100034
0.0100007
0.00999837
0.0099977
0.0099984
0.00999952
0.0100025
0.0100025
0.0100025
0.0100028
0.0100036
0.0100049
0.0100064
0.0100077
0.010004
0.00897728
0.00895155
0.00997551
0.0100088
0.0100174
0.0100093
0.0100005
0.00999681
0.00999719
0.0099987
0.00999978
0.0100025
0.0100024
0.0100024
0.0100028
0.0100035
0.0100049
0.0100063
0.0100076
0.0100039
0.00897719
0.00895151
0.00997547
0.0100087
0.0100173
0.0100092
0.0100004
0.0099968
0.00999717
0.00999867
0.00999976
0.010002
0.010002
0.0100021
0.0100024
0.0100028
0.0100028
0.0100019
0.00999931
0.00999462
0.00998853
0.00998566
0.00998925
0.00999786
0.0100032
0.0100032
0.0100006
0.00999828
0.00999768
0.00999841
0.00999953
0.0100013
0.0100014
0.0100017
0.0100019
0.0100021
0.010002
0.0100012
0.00999951
0.00999699
0.00999355
0.00999005
0.00998996
0.0099943
0.00999966
0.0100021
0.0100014
0.00999942
0.00999829
0.00999849
0.00999948
0.0100005
0.0100007
0.0100011
0.0100015
0.0100018
0.0100017
0.0100009
0.00999933
0.00999715
0.009995
0.00999367
0.00999423
0.00999637
0.00999886
0.0100003
0.0100002
0.00999931
0.00999868
0.00999879
0.00999952
0.00999966
0.01
0.0100006
0.0100012
0.0100016
0.0100016
0.0100009
0.00999971
0.00999822
0.00999697
0.00999621
0.00999614
0.00999671
0.00999779
0.00999883
0.00999937
0.00999932
0.0099991
0.00999915
0.00999963
0.00999892
0.00999933
0.00999997
0.0100007
0.0100013
0.0100015
0.0100011
0.0100002
0.00999905
0.009998
0.00999727
0.00999698
0.00999718
0.00999783
0.0099987
0.00999935
0.00999954
0.00999946
0.00999946
0.00999975
0.00999833
0.00999874
0.00999941
0.0100003
0.0100011
0.0100015
0.0100013
0.0100005
0.00999963
0.00999877
0.00999806
0.0099976
0.0099975
0.00999787
0.00999859
0.00999928
0.00999961
0.00999963
0.00999965
0.00999983
0.00999791
0.00999825
0.00999891
0.00999984
0.0100008
0.0100014
0.0100014
0.0100008
0.00999998
0.00999914
0.0099984
0.00999784
0.00999757
0.00999782
0.00999854
0.00999931
0.00999974
0.00999984
0.00999985
0.00999992
0.00999765
0.00999792
0.00999852
0.00999947
0.0100005
0.0100013
0.0100014
0.0100009
0.0100002
0.00999939
0.00999863
0.00999794
0.00999763
0.00999784
0.00999858
0.00999942
0.00999991
0.01
0.01
0.00999999
0.00999747
0.00999767
0.00999824
0.00999919
0.0100003
0.0100011
0.0100013
0.0100008
0.0100001
0.00999937
0.00999861
0.00999792
0.00999755
0.00999776
0.00999852
0.00999938
0.0099999
0.01
0.01
0.00999999
)
;

boundaryField
{
    sides
    {
        type            zeroGradient;
    }
    inlet
    {
        type            zeroGradient;
    }
    outlet
    {
        type            fixedValue;
        value           uniform 0.01;
    }
    frontAndBack
    {
        type            empty;
    }
}


// ************************************************************************* //
