/*--------------------------------*- C++ -*----------------------------------*\
  =========                 |
  \\      /  F ield         | OpenFOAM: The Open Source CFD Toolbox
   \\    /   O peration     | Website:  https://openfoam.org
    \\  /    A nd           | Version:  9
     \\/     M anipulation  |
\*---------------------------------------------------------------------------*/
FoamFile
{
    format      ascii;
    class       volScalarField;
    location    "15";
    object      h_0;
}
// * * * * * * * * * * * * * * * * * * * * * * * * * * * * * * * * * * * * * //

dimensions      [0 1 0 0 0 0 0];

internalField   nonuniform List<scalar> 
400
(
0.00999914
0.00999928
0.00999972
0.0100005
0.0100014
0.0100024
0.0100027
0.0100025
0.0100019
0.0100012
0.0100004
0.00999961
0.00999896
0.00999881
0.00999932
0.0100002
0.0100007
0.0100008
0.0100005
0.0100002
0.00999907
0.00999923
0.00999971
0.0100005
0.0100015
0.0100023
0.0100026
0.0100023
0.0100017
0.010001
0.0100002
0.00999945
0.00999887
0.00999875
0.00999923
0.01
0.0100005
0.0100006
0.0100003
0.0100001
0.00999914
0.00999935
0.00999989
0.0100007
0.0100016
0.0100023
0.0100025
0.0100022
0.0100015
0.0100007
0.00999998
0.00999929
0.00999882
0.00999873
0.00999916
0.0099999
0.0100003
0.0100004
0.0100002
0.0100001
0.00999935
0.00999959
0.0100002
0.010001
0.0100018
0.0100023
0.0100024
0.0100018
0.010001
0.0100001
0.00999937
0.00999883
0.00999856
0.00999865
0.00999913
0.00999968
0.01
0.01
0.00999984
0.00999991
0.00999974
0.00999999
0.0100005
0.0100012
0.0100019
0.0100023
0.0100021
0.0100014
0.0100003
0.0099992
0.00999838
0.009998
0.00999804
0.00999851
0.00999921
0.00999976
0.00999992
0.00999973
0.00999967
0.0099998
0.0100003
0.0100005
0.010001
0.0100015
0.010002
0.0100022
0.0100018
0.0100007
0.00999927
0.00999785
0.00999684
0.00999666
0.00999728
0.00999829
0.00999921
0.00999964
0.00999954
0.00999925
0.00999922
0.00999965
0.010001
0.0100011
0.0100014
0.0100018
0.0100022
0.0100022
0.0100016
0.0100002
0.00999804
0.00999562
0.00999414
0.00999447
0.00999665
0.0099992
0.0100006
0.0100004
0.00999944
0.00999877
0.0099988
0.00999953
0.0100017
0.0100018
0.0100019
0.0100021
0.0100024
0.0100024
0.0100018
0.0100002
0.00999756
0.0099939
0.0099901
0.00998991
0.00999429
0.00999982
0.0100024
0.0100016
0.00999948
0.0099982
0.00999839
0.00999943
0.0100022
0.0100023
0.0100024
0.0100026
0.0100029
0.0100031
0.0100024
0.00999986
0.00999505
0.00998864
0.00998544
0.00998884
0.00999758
0.0100032
0.0100034
0.0100007
0.00999827
0.00999753
0.00999823
0.00999944
0.0100025
0.0100025
0.0100026
0.0100028
0.0100035
0.0100049
0.0100065
0.0100079
0.0100041
0.00897709
0.0089509
0.00997481
0.0100082
0.0100172
0.0100093
0.0100005
0.00999669
0.00999699
0.0099985
0.0099997
0.0100024
0.0100025
0.0100025
0.0100028
0.0100035
0.0100049
0.0100065
0.0100079
0.0100041
0.00897698
0.00895094
0.00997472
0.0100081
0.0100171
0.0100092
0.0100005
0.00999669
0.00999696
0.00999847
0.00999968
0.010002
0.010002
0.0100021
0.0100023
0.0100027
0.0100029
0.0100021
0.00999961
0.00999481
0.00998838
0.00998511
0.00998865
0.00999741
0.010003
0.0100032
0.0100006
0.00999818
0.00999751
0.00999824
0.00999946
0.0100012
0.0100014
0.0100015
0.0100018
0.010002
0.010002
0.0100014
0.00999981
0.0099972
0.00999356
0.00998971
0.00998952
0.00999399
0.00999952
0.0100021
0.0100013
0.00999932
0.00999816
0.00999837
0.00999942
0.0100004
0.0100006
0.0100009
0.0100013
0.0100016
0.0100017
0.0100011
0.00999967
0.00999747
0.0099951
0.00999359
0.00999402
0.00999618
0.00999876
0.0100002
0.0100001
0.00999923
0.0099986
0.00999872
0.00999949
0.00999955
0.00999979
0.0100002
0.0100008
0.0100013
0.0100015
0.0100011
0.01
0.0099986
0.00999717
0.0099963
0.00999606
0.00999665
0.00999773
0.00999874
0.00999927
0.00999926
0.00999907
0.00999913
0.00999962
0.00999884
0.00999909
0.00999962
0.0100003
0.010001
0.0100014
0.0100012
0.0100005
0.00999941
0.00999835
0.00999751
0.00999718
0.00999728
0.00999781
0.00999857
0.00999924
0.00999952
0.00999949
0.0099995
0.00999976
0.0099983
0.00999854
0.00999908
0.00999986
0.0100007
0.0100013
0.0100013
0.0100008
0.00999994
0.00999912
0.00999845
0.0099979
0.00999769
0.00999787
0.00999845
0.00999915
0.0099996
0.0099997
0.00999972
0.00999986
0.00999796
0.00999813
0.00999862
0.0099994
0.0100003
0.0100011
0.0100013
0.0100009
0.0100003
0.00999953
0.00999879
0.00999821
0.00999781
0.00999785
0.00999839
0.00999918
0.00999975
0.00999993
0.00999993
0.00999995
0.00999779
0.00999789
0.00999831
0.00999905
0.01
0.0100009
0.0100012
0.010001
0.0100004
0.00999971
0.00999907
0.00999838
0.00999791
0.00999786
0.00999842
0.00999929
0.00999993
0.0100001
0.0100001
0.01
0.00999765
0.0099977
0.00999807
0.00999878
0.00999974
0.0100007
0.0100011
0.0100009
0.0100003
0.00999967
0.00999899
0.00999832
0.00999781
0.00999778
0.00999835
0.00999924
0.00999991
0.0100001
0.0100001
0.01
)
;

boundaryField
{
    sides
    {
        type            zeroGradient;
    }
    inlet
    {
        type            zeroGradient;
    }
    outlet
    {
        type            fixedValue;
        value           uniform 0.01;
    }
    frontAndBack
    {
        type            empty;
    }
}


// ************************************************************************* //
