/*--------------------------------*- C++ -*----------------------------------*\
  =========                 |
  \\      /  F ield         | OpenFOAM: The Open Source CFD Toolbox
   \\    /   O peration     | Website:  https://openfoam.org
    \\  /    A nd           | Version:  9
     \\/     M anipulation  |
\*---------------------------------------------------------------------------*/
FoamFile
{
    format      ascii;
    class       surfaceScalarField;
    location    "15";
    object      phi;
}
// * * * * * * * * * * * * * * * * * * * * * * * * * * * * * * * * * * * * * //

dimensions      [0 4 -1 0 0 0 0];

internalField   nonuniform List<scalar> 
760
(
5.00026e-06
-9.41076e-11
5.0003e-06
-2.20337e-10
5.00022e-06
-5.05627e-10
5.00015e-06
-1.03706e-09
5.00008e-06
-1.33127e-09
5.00023e-06
-1.15302e-09
5.00089e-06
-1.01208e-09
5.00225e-06
-1.19924e-09
5.0041e-06
-1.28931e-09
5.00574e-06
-7.95394e-10
5.00651e-06
3.01544e-10
5.00643e-06
1.17168e-09
5.00569e-06
1.32354e-09
5.00457e-06
9.90816e-10
5.0032e-06
8.94568e-10
5.00198e-06
9.7212e-10
5.0011e-06
1.1028e-09
5.00074e-06
7.5834e-10
5.00092e-06
5.79549e-11
-6.71402e-10
5.00027e-06
-3.17338e-10
5.00028e-06
-5.56e-10
5.00019e-06
-1.12444e-09
5.00014e-06
-2.14478e-09
5.00021e-06
-2.66278e-09
5.0005e-06
-2.33695e-09
5.00136e-06
-2.09292e-09
5.00297e-06
-2.51535e-09
5.00496e-06
-2.70687e-09
5.00659e-06
-1.50089e-09
5.00731e-06
7.25947e-10
5.0071e-06
2.44263e-09
5.00617e-06
2.84564e-09
5.00483e-06
2.3044e-09
5.00332e-06
1.99648e-09
5.00214e-06
1.93221e-09
5.00143e-06
2.02268e-09
5.00096e-06
1.60752e-09
5.00098e-06
3.78181e-10
-7.52697e-10
5.00021e-06
-6.28402e-10
5.0002e-06
-1.01849e-09
5.00005e-06
-1.80301e-09
4.99998e-06
-3.22489e-09
5.00018e-06
-3.97351e-09
5.00079e-06
-3.61212e-09
5.00201e-06
-3.36375e-09
5.00388e-06
-3.95662e-09
5.00599e-06
-4.11201e-09
5.00773e-06
-2.28466e-09
5.00847e-06
1.10087e-09
5.00805e-06
3.92558e-09
5.00677e-06
4.81832e-09
5.00498e-06
4.13799e-09
5.00302e-06
3.5635e-09
5.00153e-06
3.31418e-09
5.00067e-06
3.04843e-09
5.00039e-06
2.14754e-09
5.00057e-06
2.53585e-10
-9.70304e-10
5.00015e-06
-1.02696e-09
5.00007e-06
-1.58578e-09
4.99988e-06
-2.57038e-09
4.99987e-06
-4.31234e-09
5.00025e-06
-5.27635e-09
5.00123e-06
-4.99111e-09
5.00299e-06
-4.89952e-09
5.00549e-06
-5.8189e-09
5.00822e-06
-5.96815e-09
5.01015e-06
-3.33553e-09
5.01074e-06
1.50174e-09
5.00971e-06
5.79565e-09
5.00743e-06
7.64408e-09
5.0048e-06
6.79891e-09
5.00278e-06
5.34531e-09
5.00167e-06
4.22862e-09
5.00126e-06
3.52339e-09
5.00102e-06
2.69611e-09
5.00084e-06
6.94739e-10
-6.02361e-10
5.00004e-06
-1.41001e-09
4.99989e-06
-2.13381e-09
4.99965e-06
-3.28769e-09
4.99963e-06
-5.28954e-09
5.0002e-06
-6.56285e-09
5.00168e-06
-6.62793e-09
5.00413e-06
-6.94803e-09
5.00734e-06
-8.19793e-09
5.01101e-06
-8.71245e-09
5.01396e-06
-5.37053e-09
5.01439e-06
1.84971e-09
5.01246e-06
8.38301e-09
5.00819e-06
1.22689e-08
5.00391e-06
1.11009e-08
5.00124e-06
7.81895e-09
5.00043e-06
4.88549e-09
5.0005e-06
3.4529e-09
5.00059e-06
2.59795e-09
5.00046e-06
7.86973e-10
-3.78027e-10
4.9999e-06
-1.64236e-09
4.99964e-06
-2.50944e-09
4.99931e-06
-3.7888e-09
4.99917e-06
-5.99615e-09
4.99975e-06
-7.67114e-09
5.00176e-06
-8.61806e-09
5.00528e-06
-9.91941e-09
5.01007e-06
-1.21153e-08
5.01458e-06
-1.23281e-08
5.01851e-06
-8.67961e-09
5.01946e-06
9.38393e-10
5.01532e-06
1.25073e-08
5.00874e-06
1.89244e-08
5.00316e-06
1.66645e-08
5.00074e-06
1.00397e-08
5.0008e-06
4.56372e-09
5.00157e-06
2.49634e-09
5.00164e-06
2.28974e-09
5.00091e-06
1.37836e-09
4.65645e-10
4.99971e-06
-1.63194e-09
4.99931e-06
-2.52587e-09
4.99883e-06
-3.91467e-09
4.99837e-06
-6.20226e-09
4.99864e-06
-8.34492e-09
5.00032e-06
-1.02306e-08
5.00477e-06
-1.37552e-08
5.01259e-06
-1.90928e-08
5.02304e-06
-2.19728e-08
5.03036e-06
-1.57988e-08
5.02803e-06
3.1097e-09
5.01568e-06
2.43072e-08
5.00292e-06
3.13743e-08
4.99729e-06
2.21518e-08
4.99881e-06
8.34337e-09
5.00082e-06
2.27116e-09
5.00172e-06
1.29912e-09
5.00153e-06
2.14637e-09
5.0007e-06
1.88375e-09
8.20166e-10
4.99947e-06
-1.28234e-09
4.99885e-06
-2.04866e-09
4.99797e-06
-3.32744e-09
4.99696e-06
-5.61265e-09
4.99682e-06
-8.5315e-09
4.99795e-06
-1.13107e-08
5.00203e-06
-1.73231e-08
5.00903e-06
-2.53355e-08
5.02433e-06
-3.6789e-08
5.05517e-06
-4.69064e-08
5.04914e-06
8.50042e-09
5.02208e-06
5.05491e-08
4.99666e-06
5.6059e-08
4.99162e-06
2.68727e-08
4.9974e-06
2.45539e-09
5.00181e-06
-2.36027e-09
5.00251e-06
1.90761e-10
5.00142e-06
2.6733e-09
5.00094e-06
1.96155e-09
2.58346e-10
4.99928e-06
-6.30558e-10
4.99841e-06
-1.07518e-09
4.99684e-06
-1.75441e-09
4.99432e-06
-3.29222e-09
4.99156e-06
-6.02292e-09
4.99131e-06
-1.10375e-08
4.99783e-06
-2.33655e-08
5.01648e-06
-4.32782e-08
5.05546e-06
-7.54267e-08
5.06654e-06
-5.84937e-08
5.04861e-06
2.5071e-08
4.99477e-06
1.02711e-07
4.98735e-06
6.23751e-08
4.99377e-06
2.00166e-08
4.99792e-06
-1.75963e-09
5.00049e-06
-5.10236e-09
4.99998e-06
1.98695e-10
4.99944e-06
2.6212e-09
4.99966e-06
1.20339e-09
-4.58587e-10
4.9993e-06
4.02071e-11
4.99843e-06
4.74483e-11
4.99686e-06
-1.18283e-11
4.9936e-06
-9.85119e-11
4.98758e-06
-2.19145e-10
4.97688e-06
-3.77601e-10
4.95443e-06
-5.28458e-10
4.91244e-06
-6.58352e-10
4.83785e-06
-6.78161e-10
4.77926e-06
-5.48323e-10
4.80296e-06
-5.7856e-10
4.90434e-06
-4.25065e-10
4.96582e-06
-3.64141e-10
4.98581e-06
-5.06554e-10
4.98478e-06
-8.26956e-10
4.98082e-06
-1.31194e-09
4.98221e-06
-1.74843e-09
4.98626e-06
-2.10167e-09
4.98929e-06
-2.41714e-09
-2.92616e-09
4.9993e-06
7.02563e-10
4.99844e-06
1.15378e-09
4.99687e-06
1.73096e-09
4.9936e-06
3.09565e-09
4.98756e-06
5.60418e-09
4.97684e-06
1.03106e-08
4.95438e-06
2.23358e-08
4.91237e-06
4.19594e-08
4.83784e-06
7.41076e-08
4.77906e-06
5.74316e-08
4.80303e-06
-2.59831e-08
4.90427e-06
-1.03562e-07
4.96571e-06
-6.30712e-08
4.98562e-06
-2.08882e-08
4.98466e-06
7.56192e-11
4.98045e-06
2.73117e-09
4.98206e-06
-3.8728e-09
4.98623e-06
-6.95911e-09
4.9891e-06
-5.87518e-09
-5.19932e-09
4.99928e-06
1.35634e-09
4.99843e-06
2.1123e-09
4.99688e-06
3.26846e-09
4.99436e-06
5.38179e-09
4.99164e-06
8.08439e-09
4.9914e-06
1.06057e-08
4.99789e-06
1.63646e-08
5.0164e-06
2.41591e-08
5.05532e-06
3.55359e-08
5.06669e-06
4.55468e-08
5.04809e-06
-1.06506e-08
4.99436e-06
-5.12599e-08
4.98697e-06
-5.67232e-08
4.99362e-06
-2.79057e-08
4.99787e-06
-4.23068e-09
4.99983e-06
5.79161e-10
4.99915e-06
-3.66801e-09
4.9985e-06
-6.91396e-09
4.99879e-06
-6.70956e-09
-5.86951e-09
4.99948e-06
1.69297e-09
4.99888e-06
2.55105e-09
4.99801e-06
3.82437e-09
4.997e-06
5.96761e-09
4.99684e-06
7.95019e-09
4.99792e-06
9.60952e-09
5.00191e-06
1.2933e-08
5.00884e-06
1.79619e-08
5.02407e-06
2.07708e-08
5.0548e-06
1.46507e-08
5.04893e-06
-3.93973e-09
5.02162e-06
-2.51003e-08
4.99627e-06
-3.19984e-08
4.99122e-06
-2.31274e-08
4.99659e-06
-9.71345e-09
5.00124e-06
-4.32816e-09
5.00131e-06
-4.16945e-09
4.99999e-06
-6.09552e-09
4.99945e-06
-6.60236e-09
-6.23779e-09
4.99972e-06
1.67006e-09
4.99933e-06
2.49132e-09
4.99886e-06
3.69364e-09
4.9984e-06
5.80124e-09
4.99866e-06
7.31614e-09
5.00032e-06
8.04207e-09
5.00474e-06
9.0958e-09
5.01252e-06
1.10818e-08
5.02283e-06
1.12077e-08
5.03005e-06
7.68996e-09
5.02751e-06
-1.7947e-09
5.01516e-06
-1.31441e-08
5.00226e-06
-1.9463e-08
4.9964e-06
-1.74788e-08
4.99777e-06
-1.12704e-08
4.99972e-06
-6.5505e-09
5.00037e-06
-5.18686e-09
4.99998e-06
-6.0651e-09
4.99875e-06
-5.66158e-09
-5.52943e-09
4.99989e-06
1.39588e-09
4.99968e-06
2.07356e-09
4.99937e-06
3.1867e-09
4.99923e-06
5.1166e-09
4.99982e-06
6.25136e-09
5.00178e-06
6.11683e-09
5.0052e-06
6.24773e-09
5.00982e-06
7.36161e-09
5.01417e-06
7.81744e-09
5.01786e-06
4.44119e-09
5.01885e-06
-2.40931e-09
5.01454e-06
-8.89252e-09
5.00774e-06
-1.27722e-08
5.00205e-06
-1.19105e-08
4.99946e-06
-8.9427e-09
4.99933e-06
-6.70298e-09
4.99974e-06
-5.83102e-09
4.9994e-06
-5.91473e-09
4.99826e-06
-4.66797e-09
-4.45042e-09
5.00006e-06
9.84181e-10
4.99994e-06
1.49386e-09
4.99974e-06
2.46745e-09
4.99973e-06
4.16951e-09
5.00028e-06
5.04531e-09
5.00168e-06
4.60784e-09
5.00399e-06
4.35847e-09
5.00705e-06
5.0999e-09
5.01062e-06
5.18633e-09
5.01346e-06
2.51836e-09
5.01369e-06
-2.03938e-09
5.01165e-06
-6.26431e-09
5.00729e-06
-8.06483e-09
5.00288e-06
-7.56311e-09
5.00001e-06
-6.40936e-09
4.99888e-06
-5.84919e-09
4.99859e-06
-5.62024e-09
4.99816e-06
-5.48145e-09
4.99738e-06
-3.89132e-09
-3.62878e-09
5.00019e-06
5.64187e-10
5.00016e-06
9.1236e-10
5.00001e-06
1.72288e-09
4.99998e-06
3.13976e-09
5.00032e-06
3.812e-09
5.00126e-06
3.32201e-09
5.00288e-06
2.93988e-09
5.00517e-06
3.44039e-09
5.00759e-06
3.5803e-09
5.00923e-06
1.81598e-09
5.00978e-06
-1.48102e-09
5.00861e-06
-4.27973e-09
5.00622e-06
-5.17647e-09
5.00336e-06
-4.73093e-09
5.00092e-06
-4.3428e-09
4.99935e-06
-4.55008e-09
4.99844e-06
-4.68936e-09
4.99772e-06
-4.60359e-09
4.997e-06
-3.0515e-09
-2.72974e-09
5.00029e-06
2.40658e-10
5.00031e-06
4.59635e-10
5.00021e-06
1.034e-09
5.00018e-06
2.05094e-09
5.00033e-06
2.54838e-09
5.00082e-06
2.18073e-09
5.00189e-06
1.85219e-09
5.0036e-06
2.1592e-09
5.00561e-06
2.30827e-09
5.00722e-06
1.20223e-09
5.00769e-06
-1.0073e-09
5.00706e-06
-2.72659e-09
5.00553e-06
-3.12547e-09
5.00349e-06
-2.7373e-09
5.00136e-06
-2.60613e-09
4.9996e-06
-3.02774e-09
4.99833e-06
-3.28686e-09
4.99731e-06
-3.30637e-09
4.99656e-06
-2.10817e-09
-1.93987e-09
5.00034e-06
8.70333e-11
5.00043e-06
1.74723e-10
5.00034e-06
4.90188e-10
5.00025e-06
1.03201e-09
5.00021e-06
1.2893e-09
5.0004e-06
1.07323e-09
5.0011e-06
8.82567e-10
5.00241e-06
1.08395e-09
5.00408e-06
1.21967e-09
5.00551e-06
5.97298e-10
5.00608e-06
-4.37263e-10
5.00569e-06
-1.27015e-09
5.00465e-06
-1.4456e-09
5.0031e-06
-1.25926e-09
5.00128e-06
-1.20493e-09
4.99953e-06
-1.47458e-09
4.99808e-06
-1.64434e-09
4.99684e-06
-1.73564e-09
4.99607e-06
-1.1203e-09
-1.236e-09
5.0004e-06
5.00051e-06
5.00047e-06
5.0004e-06
5.0003e-06
5.00031e-06
5.0008e-06
5.00204e-06
5.00369e-06
5.00505e-06
5.00558e-06
5.0053e-06
5.00439e-06
5.00306e-06
5.00144e-06
4.99976e-06
4.99833e-06
4.99693e-06
4.99601e-06
)
;

boundaryField
{
    sides
    {
        type            calculated;
        value           uniform 0;
    }
    inlet
    {
        type            calculated;
        value           nonuniform List<scalar> 
20
(
-5e-06
-5e-06
-5e-06
-5e-06
-5e-06
-5e-06
-5e-06
-5e-06
-5e-06
-5e-06
-5e-06
-5e-06
-5e-06
-5e-06
-5e-06
-5e-06
-5e-06
-5e-06
-5e-06
-5e-06
)
;
    }
    outlet
    {
        type            calculated;
        value           nonuniform List<scalar> 
20
(
5.00169e-06
5.00111e-06
5.00085e-06
5.00052e-06
5.00019e-06
5.00004e-06
5.00025e-06
5.0013e-06
5.00013e-06
4.99151e-06
4.99114e-06
4.99924e-06
4.99964e-06
4.99792e-06
4.99712e-06
4.99656e-06
4.99615e-06
4.99584e-06
4.99543e-06
4.99484e-06
)
;
    }
    frontAndBack
    {
        type            empty;
        value           nonuniform List<scalar> 0();
    }
}


// ************************************************************************* //
