/*--------------------------------*- C++ -*----------------------------------*\
  =========                 |
  \\      /  F ield         | OpenFOAM: The Open Source CFD Toolbox
   \\    /   O peration     | Website:  https://openfoam.org
    \\  /    A nd           | Version:  9
     \\/     M anipulation  |
\*---------------------------------------------------------------------------*/
FoamFile
{
    format      ascii;
    class       volVectorField;
    location    "15";
    object      U;
}
// * * * * * * * * * * * * * * * * * * * * * * * * * * * * * * * * * * * * * //

dimensions      [0 1 -1 0 0 0 0];

internalField   nonuniform List<vector> 
400
(
(0.100002 -2.10019e-06 0)
(0.100012 -5.36728e-06 0)
(0.100004 -1.07233e-05 0)
(0.0999916 -1.85211e-05 0)
(0.0999848 -2.30106e-05 0)
(0.0999778 -2.23679e-05 0)
(0.0999806 -2.2597e-05 0)
(0.100004 -2.645e-05 0)
(0.100044 -2.8528e-05 0)
(0.10009 -2.33779e-05 0)
(0.100125 -1.2792e-05 0)
(0.100139 -5.08932e-06 0)
(0.100134 -4.62377e-06 0)
(0.100116 -9.25304e-06 0)
(0.100089 -1.15057e-05 0)
(0.100056 -1.26221e-05 0)
(0.100027 -1.18008e-05 0)
(0.10001 -1.4934e-05 0)
(0.100002 -1.81212e-05 0)
(0.100026 -2.90983e-05 0)
(0.100003 -3.43316e-06 0)
(0.100012 -5.6894e-06 0)
(0.100003 -1.29882e-05 0)
(0.0999911 -2.74682e-05 0)
(0.0999864 -3.43302e-05 0)
(0.0999823 -2.7809e-05 0)
(0.099989 -2.24215e-05 0)
(0.100017 -2.7214e-05 0)
(0.100062 -2.9081e-05 0)
(0.100109 -1.13081e-05 0)
(0.100143 2.21372e-05 0)
(0.100156 4.82819e-05 0)
(0.100148 5.37067e-05 0)
(0.100126 4.51148e-05 0)
(0.100095 4.26215e-05 0)
(0.100058 4.55908e-05 0)
(0.100032 4.93855e-05 0)
(0.100015 4.06149e-05 0)
(0.10001 1.82776e-05 0)
(0.10002 -1.569e-06 0)
(0.100002 -9.54041e-06 0)
(0.100009 -1.59578e-05 0)
(0.0999993 -2.96735e-05 0)
(0.0999867 -5.44959e-05 0)
(0.0999832 -6.75735e-05 0)
(0.0999846 -6.07373e-05 0)
(0.0999998 -5.58839e-05 0)
(0.100035 -6.67016e-05 0)
(0.100083 -7.12374e-05 0)
(0.100131 -4.16406e-05 0)
(0.100167 1.3885e-05 0)
(0.10018 5.76949e-05 0)
(0.100167 6.65562e-05 0)
(0.100137 5.01928e-05 0)
(0.100096 3.96923e-05 0)
(0.100053 3.83492e-05 0)
(0.100018 3.951e-05 0)
(0.1 2.93675e-05 0)
(0.0999968 -4.29175e-07 0)
(0.100017 -2.44225e-05 0)
(0.1 -1.66406e-05 0)
(0.100005 -2.59661e-05 0)
(0.0999937 -4.41121e-05 0)
(0.0999822 -7.6315e-05 0)
(0.099982 -9.3252e-05 0)
(0.0999901 -8.56981e-05 0)
(0.100016 -8.10048e-05 0)
(0.100063 -9.44872e-05 0)
(0.100123 -9.67273e-05 0)
(0.10018 -5.21426e-05 0)
(0.100218 3.21694e-05 0)
(0.100226 0.000104283 0)
(0.100201 0.000130978 0)
(0.100152 0.000115383 0)
(0.100095 9.51176e-05 0)
(0.100044 8.04622e-05 0)
(0.10002 6.82889e-05 0)
(0.100012 4.83644e-05 0)
(0.100015 7.15414e-06 0)
(0.100017 -1.86391e-05 0)
(0.0999975 -2.42762e-05 0)
(0.0999983 -3.70601e-05 0)
(0.0999867 -5.87721e-05 0)
(0.0999765 -9.71138e-05 0)
(0.0999784 -0.000120086 0)
(0.0999943 -0.000117895 0)
(0.100034 -0.000119199 0)
(0.100099 -0.000137597 0)
(0.100173 -0.000136561 0)
(0.100244 -7.72148e-05 0)
(0.100295 2.94282e-05 0)
(0.100302 0.000126394 0)
(0.100256 0.000170482 0)
(0.100169 0.000158823 0)
(0.100077 0.00013138 0)
(0.10001 0.000106418 0)
(0.0999858 8.94338e-05 0)
(0.0999904 6.88777e-05 0)
(0.100006 2.3866e-05 0)
(0.100018 -2.31337e-06 0)
(0.0999943 -3.04285e-05 0)
(0.0999906 -4.62423e-05 0)
(0.0999778 -7.12506e-05 0)
(0.0999682 -0.000114452 0)
(0.0999706 -0.000145199 0)
(0.0999923 -0.000154358 0)
(0.100048 -0.000172064 0)
(0.100137 -0.000206418 0)
(0.10024 -0.000208417 0)
(0.100332 -0.000115923 0)
(0.100394 5.9773e-05 0)
(0.100397 0.000230204 0)
(0.100323 0.00029542 0)
(0.100191 0.000239813 0)
(0.100063 0.000138436 0)
(0.0999889 6.02559e-05 0)
(0.0999864 3.22021e-05 0)
(0.100009 2.85952e-05 0)
(0.100035 4.12495e-06 0)
(0.100022 -1.53164e-05 0)
(0.0999905 -3.23403e-05 0)
(0.0999815 -5.05388e-05 0)
(0.0999666 -7.71319e-05 0)
(0.0999555 -0.000125357 0)
(0.0999538 -0.000164564 0)
(0.0999743 -0.000194986 0)
(0.10004 -0.000234149 0)
(0.100158 -0.000304347 0)
(0.100323 -0.000330852 0)
(0.100502 -0.00027826 0)
(0.100617 -2.19271e-05 0)
(0.100572 0.000324655 0)
(0.10036 0.00053557 0)
(0.100093 0.000486509 0)
(0.0999224 0.000299798 0)
(0.0998932 0.000137633 0)
(0.099963 7.22788e-05 0)
(0.100025 6.44819e-05 0)
(0.100059 5.10018e-05 0)
(0.100024 3.39548e-05 0)
(0.0999864 -2.93168e-05 0)
(0.0999711 -4.52652e-05 0)
(0.0999506 -7.34311e-05 0)
(0.0999348 -0.000120323 0)
(0.0999202 -0.000178468 0)
(0.0999354 -0.000235094 0)
(0.0999946 -0.000329319 0)
(0.100133 -0.000411143 0)
(0.100322 -0.000444362 0)
(0.100642 -0.000244892 0)
(0.100987 0.000122085 0)
(0.100996 0.000490359 0)
(0.100583 0.000520033 0)
(0.100041 0.000295013 0)
(0.0997496 7.69093e-05 0)
(0.0997649 -1.46636e-05 0)
(0.0999336 -3.42374e-06 0)
(0.100057 2.46875e-05 0)
(0.100102 1.75429e-05 0)
(0.100037 -3.9861e-06 0)
(0.0999836 -1.85734e-05 0)
(0.0999606 -3.14702e-05 0)
(0.0999319 -4.95311e-05 0)
(0.0998988 -8.98735e-05 0)
(0.0998575 -0.000146998 0)
(0.0998406 -0.000248205 0)
(0.099909 -0.000461965 0)
(0.100124 -0.000805967 0)
(0.100534 -0.00133418 0)
(0.101061 -0.00148785 0)
(0.101311 0.000416971 0)
(0.100971 0.00192117 0)
(0.100209 0.00161435 0)
(0.0996857 0.00058565 0)
(0.0996098 -3.01214e-05 0)
(0.0997878 -0.000115587 0)
(0.0999876 6.47179e-06 0)
(0.100074 7.29881e-05 0)
(0.100075 5.47524e-05 0)
(0.0999977 1.23352e-05 0)
(0.0999635 -6.0695e-06 0)
(0.0999837 -9.26364e-06 0)
(0.0998763 -1.80805e-05 0)
(0.0999352 -3.02073e-05 0)
(0.0996765 -6.38913e-05 0)
(0.0997882 -0.000114112 0)
(0.0992365 -0.000288093 0)
(0.0996591 -0.000560372 0)
(0.0991192 -0.00115333 0)
(0.102002 -0.00141353 0)
(0.106262 3.78855e-05 0)
(0.101241 0.00148813 0)
(0.0989792 0.00132897 0)
(0.0981869 0.000522227 0)
(0.0988131 2.33202e-05 0)
(0.0995672 -6.98658e-05 0)
(0.0999048 -8.10243e-06 0)
(0.0999196 1.96966e-05 0)
(0.0998205 5.88025e-06 0)
(0.0997869 -2.45085e-05 0)
(0.0999642 7.52497e-06 0)
(0.0999844 1.10585e-05 0)
(0.0998773 1.76353e-05 0)
(0.0999361 2.65594e-05 0)
(0.0996771 5.59229e-05 0)
(0.0997882 0.000100495 0)
(0.0992362 0.000269033 0)
(0.0996585 0.000536223 0)
(0.0991192 0.00112874 0)
(0.102001 0.00139049 0)
(0.10626 -5.76427e-05 0)
(0.101241 -0.00150397 0)
(0.0989778 -0.00134429 0)
(0.0981852 -0.000543418 0)
(0.098811 -5.45217e-05 0)
(0.0995629 2.13674e-05 0)
(0.0999003 -5.67554e-05 0)
(0.0999155 -0.000106138 0)
(0.0998187 -0.000108817 0)
(0.0997815 -9.59726e-05 0)
(0.0999859 1.99477e-05 0)
(0.0999631 3.29754e-05 0)
(0.099935 4.88457e-05 0)
(0.099902 8.59123e-05 0)
(0.0998607 0.000139105 0)
(0.0998444 0.000234918 0)
(0.099913 0.000443066 0)
(0.100127 0.000781794 0)
(0.100534 0.00130847 0)
(0.101063 0.00146245 0)
(0.101311 -0.000436366 0)
(0.100967 -0.00193717 0)
(0.100205 -0.00162845 0)
(0.0996806 -0.000605809 0)
(0.0996047 2.58145e-06 0)
(0.0997834 7.23589e-05 0)
(0.099979 -6.24696e-05 0)
(0.100059 -0.000150503 0)
(0.100054 -0.000148533 0)
(0.0999792 -0.000126646 0)
(0.0999902 3.06735e-05 0)
(0.0999751 4.62973e-05 0)
(0.0999552 7.21385e-05 0)
(0.0999395 0.000115953 0)
(0.0999246 0.000170125 0)
(0.0999391 0.000221038 0)
(0.099997 0.000308535 0)
(0.100134 0.000384821 0)
(0.100321 0.000416919 0)
(0.100639 0.000220529 0)
(0.100983 -0.000142917 0)
(0.100991 -0.000506778 0)
(0.100576 -0.000532771 0)
(0.100035 -0.000313129 0)
(0.0997429 -0.000103648 0)
(0.0997551 -3.11374e-05 0)
(0.0999179 -6.09143e-05 0)
(0.100032 -0.00010901 0)
(0.100073 -0.000109553 0)
(0.100004 -0.000102741 0)
(0.0999957 3.32448e-05 0)
(0.0999867 5.06892e-05 0)
(0.099973 7.53284e-05 0)
(0.0999622 0.000120892 0)
(0.09996 0.000156525 0)
(0.0999799 0.000182373 0)
(0.100044 0.000216914 0)
(0.100163 0.000283662 0)
(0.100326 0.000309625 0)
(0.100502 0.000258901 0)
(0.100613 6.01808e-06 0)
(0.100566 -0.000337185 0)
(0.100353 -0.000546475 0)
(0.100083 -0.000504464 0)
(0.0999081 -0.000329509 0)
(0.0998732 -0.000185998 0)
(0.0999394 -0.00013697 0)
(0.0999967 -0.000147833 0)
(0.100029 -0.000143836 0)
(0.0999783 -0.000143716 0)
(0.100001 3.05747e-05 0)
(0.0999975 4.54767e-05 0)
(0.0999862 6.92726e-05 0)
(0.0999773 0.000110544 0)
(0.0999794 0.000138274 0)
(0.1 0.000143455 0)
(0.100054 0.000156964 0)
(0.100141 0.000187169 0)
(0.10024 0.00018642 0)
(0.100327 9.48731e-05 0)
(0.100387 -7.70107e-05 0)
(0.100389 -0.000242814 0)
(0.100312 -0.000306201 0)
(0.100174 -0.000255662 0)
(0.100044 -0.00016095 0)
(0.0999647 -9.56919e-05 0)
(0.0999568 -7.73144e-05 0)
(0.09997 -8.90047e-05 0)
(0.09999 -7.44744e-05 0)
(0.0999628 -7.44927e-05 0)
(0.100006 2.37374e-05 0)
(0.100007 3.54605e-05 0)
(0.0999973 5.67754e-05 0)
(0.0999879 9.4251e-05 0)
(0.0999894 0.000114745 0)
(0.100004 0.000108609 0)
(0.100042 0.000106249 0)
(0.100103 0.000122095 0)
(0.100174 0.000119927 0)
(0.100243 6.07706e-05 0)
(0.100291 -4.26395e-05 0)
(0.100296 -0.000138556 0)
(0.100247 -0.000182681 0)
(0.100155 -0.000175501 0)
(0.10006 -0.000153245 0)
(0.0999868 -0.000141964 0)
(0.0999571 -0.000138243 0)
(0.0999489 -0.000138016 0)
(0.0999569 -0.000106307 0)
(0.0999454 -0.00010019 0)
(0.10001 1.5501e-05 0)
(0.100016 2.39524e-05 0)
(0.100007 4.20248e-05 0)
(0.0999964 7.3609e-05 0)
(0.0999949 8.9357e-05 0)
(0.100001 7.96237e-05 0)
(0.100026 7.21989e-05 0)
(0.10007 8.36763e-05 0)
(0.100124 8.62375e-05 0)
(0.100174 4.40153e-05 0)
(0.100209 -3.5493e-05 0)
(0.100213 -0.000105007 0)
(0.100186 -0.000130286 0)
(0.100133 -0.000119221 0)
(0.100071 -0.000105759 0)
(0.100009 -0.000103669 0)
(0.0999738 -0.000100456 0)
(0.0999504 -9.35359e-05 0)
(0.0999476 -5.682e-05 0)
(0.0999316 -4.80794e-05 0)
(0.100014 7.84693e-06 0)
(0.100022 1.30043e-05 0)
(0.100015 2.68751e-05 0)
(0.100004 5.10491e-05 0)
(0.1 6.16745e-05 0)
(0.099999 5.14034e-05 0)
(0.100011 4.32553e-05 0)
(0.100044 5.07016e-05 0)
(0.100088 5.27409e-05 0)
(0.100134 2.19615e-05 0)
(0.100165 -3.30923e-05 0)
(0.100173 -7.74482e-05 0)
(0.100156 -8.73279e-05 0)
(0.100118 -7.69578e-05 0)
(0.100072 -7.21036e-05 0)
(0.100021 -8.01639e-05 0)
(0.0999832 -8.59979e-05 0)
(0.0999486 -8.8191e-05 0)
(0.0999371 -6.29986e-05 0)
(0.0999198 -6.00118e-05 0)
(0.100016 3.30222e-06 0)
(0.100027 7.32886e-06 0)
(0.100021 1.74591e-05 0)
(0.100009 3.42969e-05 0)
(0.100002 4.27565e-05 0)
(0.0999952 3.77146e-05 0)
(0.0999998 3.36508e-05 0)
(0.100023 4.00764e-05 0)
(0.100061 4.43093e-05 0)
(0.100101 2.82744e-05 0)
(0.100131 -3.73839e-06 0)
(0.10014 -2.88822e-05 0)
(0.100128 -3.35822e-05 0)
(0.100101 -2.61984e-05 0)
(0.100067 -2.32781e-05 0)
(0.10002 -3.01161e-05 0)
(0.0999812 -3.5193e-05 0)
(0.0999417 -3.62396e-05 0)
(0.0999269 -1.69843e-05 0)
(0.0999086 -1.53034e-05 0)
(0.100018 -7.16211e-07 0)
(0.100031 -1.99886e-06 0)
(0.100025 -1.32906e-06 0)
(0.100014 1.70595e-06 0)
(0.100007 2.87965e-06 0)
(0.0999972 -2.79549e-07 0)
(0.099997 -3.90398e-06 0)
(0.100017 -3.86041e-06 0)
(0.100054 -3.66573e-06 0)
(0.100094 -9.47672e-06 0)
(0.100123 -2.0219e-05 0)
(0.100131 -2.96307e-05 0)
(0.100122 -3.15241e-05 0)
(0.100097 -3.00605e-05 0)
(0.100067 -3.08553e-05 0)
(0.100023 -3.59599e-05 0)
(0.0999885 -3.80731e-05 0)
(0.0999448 -4.03736e-05 0)
(0.0999305 -3.26174e-05 0)
(0.0998995 -3.74904e-05 0)
)
;

boundaryField
{
    sides
    {
        type            calculated;
        value           nonuniform List<vector> 
40
(
(0.100018 0 0)
(0.100031 0 0)
(0.100025 0 0)
(0.100014 0 0)
(0.100007 0 0)
(0.0999972 0 0)
(0.099997 0 0)
(0.100017 0 0)
(0.100054 0 0)
(0.100094 0 0)
(0.100123 0 0)
(0.100131 0 0)
(0.100122 0 0)
(0.100097 0 0)
(0.100067 0 0)
(0.100023 0 0)
(0.0999885 0 0)
(0.0999448 0 0)
(0.0999305 0 0)
(0.0998995 0 0)
(0.100002 0 0)
(0.100012 0 0)
(0.100004 0 0)
(0.0999916 0 0)
(0.0999848 0 0)
(0.0999778 0 0)
(0.0999806 0 0)
(0.100004 0 0)
(0.100044 0 0)
(0.10009 0 0)
(0.100125 0 0)
(0.100139 0 0)
(0.100134 0 0)
(0.100116 0 0)
(0.100089 0 0)
(0.100056 0 0)
(0.100027 0 0)
(0.10001 0 0)
(0.100002 0 0)
(0.100026 0 0)
)
;
    }
    inlet
    {
        type            calculated;
        value           nonuniform List<vector> 
20
(
(0.10001 0 0)
(0.10001 0 0)
(0.100009 0 0)
(0.100006 0 0)
(0.100002 0 0)
(0.0999959 0 0)
(0.099989 0 0)
(0.0999822 0 0)
(0.099977 0 0)
(0.0999745 0 0)
(0.0999754 0 0)
(0.0999796 0 0)
(0.0999865 0 0)
(0.0999949 0 0)
(0.100003 0 0)
(0.100011 0 0)
(0.100017 0 0)
(0.100021 0 0)
(0.100023 0 0)
(0.100025 0 0)
)
;
    }
    outlet
    {
        type            calculated;
        value           nonuniform List<vector> 
20
(
(0.100027 -2.90988e-05 0)
(0.100021 -1.56901e-06 0)
(0.100017 -2.44226e-05 0)
(0.100016 -1.86389e-05 0)
(0.100016 -2.31332e-06 0)
(0.100018 -1.53158e-05 0)
(0.10002 3.39533e-05 0)
(0.100032 -3.98589e-06 0)
(0.0999929 1.23346e-05 0)
(0.0997847 -2.4508e-05 0)
(0.0997791 -9.59703e-05 0)
(0.0999745 -0.00012664 0)
(0.0999985 -0.000102736 0)
(0.0999735 -0.000143709 0)
(0.099959 -7.44899e-05 0)
(0.0999429 -0.000100187 0)
(0.0999299 -4.80786e-05 0)
(0.099919 -6.00114e-05 0)
(0.0999085 -1.53034e-05 0)
(0.0998993 -3.74903e-05 0)
)
;
    }
    frontAndBack
    {
        type            empty;
    }
}


// ************************************************************************* //
