2.80937e-05    54.1863
8.78022e-05    324.679
0.000154994    820.053
0.000230608    948.066
0.000315699    823.926
0.000411455    666.368
0.000519212    534.363
0.000640475      432.5
0.000776937     354.66
0.000930502    294.497
0.00110331    247.206
0.00129779    209.391
0.00151663    178.674
0.00176291    153.374
0.00204005    132.283
0.00235193    114.518
 0.0027029    99.4215
0.00309785    86.4959
0.00354231     75.358
0.00404248    65.7088
0.00460533    57.3116
0.00523873    49.9764
0.00595151     43.549
0.00675364    37.9025
 0.0076563    32.9312
0.00867209    28.5464
 0.0098152    24.6726
 0.0111016    21.2453
 0.0125492    18.2085
 0.0141782     15.514
 0.0160115    13.1196
 0.0180745     10.989
  0.020396     9.0914
 0.0230086    7.40172
 0.0259485    5.90214
  0.029257    4.58452
 0.0329801    3.45451
 0.0371699    2.53579
 0.0418848    1.86923
 0.0471906     1.5043
 0.0528094    1.50853
 0.0581152    1.88148
 0.0628301    2.55477
 0.0670199    3.47856
  0.070743    4.61217
 0.0740515    5.93237
 0.0769914    7.43388
  0.079604     9.1251
 0.0819255     11.024
 0.0839885    13.1555
 0.0858218    15.5506
 0.0874508    18.2455
 0.0888984    21.2821
 0.0901848    24.7088
 0.0913279    28.5813
 0.0923437    32.9641
 0.0932464    37.9324
 0.0940485    43.5748
 0.0947613    49.9968
 0.0953947    57.3249
 0.0959575    65.7132
 0.0964577    75.3514
 0.0969021    86.4757
 0.0972971    99.3847
 0.0976481    114.461
   0.09796    132.201
 0.0982371    153.262
 0.0984834    178.527
 0.0987022      209.2
 0.0988967    246.962
 0.0990695    294.188
 0.0992231    354.269
 0.0993595    432.008
 0.0994808     533.74
 0.0995885    665.574
 0.0996843    822.901
 0.0997694    946.746
  0.099845    818.611
 0.0999122    324.037
 0.0999719    54.0861
