2.80937e-05    22212.2
8.78022e-05    19580.5
0.000154994    14007.2
0.000230608    8806.43
0.000315699    5695.46
0.000411455    3924.09
0.000519212    2860.22
0.000640475    2182.91
0.000776937    1726.06
0.000930502    1401.85
0.00110331    1161.82
0.00129779    977.871
0.00151663    832.913
0.00176291    716.077
0.00204005    620.171
0.00235193    540.268
 0.0027029    472.886
0.00309785    415.496
0.00354231    366.215
0.00404248    323.609
0.00460533    286.569
0.00523873    254.216
0.00595151    225.845
0.00675364    200.881
 0.0076563    178.851
0.00867209    159.355
 0.0098152    142.055
 0.0111016     126.66
 0.0125492    112.913
 0.0141782    100.586
 0.0160115    89.4661
 0.0180745    79.3532
  0.020396    70.0436
 0.0230086    61.3177
 0.0259485    52.9206
  0.029257    44.5429
 0.0329801    35.8237
 0.0371699    26.4389
 0.0418848    16.2875
 0.0471906    5.44722
 0.0528094    5.71193
 0.0581152    16.5343
 0.0628301    26.6481
 0.0670199    35.9864
  0.070743    44.6637
 0.0740515    53.0093
 0.0769914    61.3827
  0.079604    70.0907
 0.0819255     79.386
 0.0839885    89.4866
 0.0858218    100.595
 0.0874508    112.911
 0.0888984    126.646
 0.0901848    142.028
 0.0913279    159.312
 0.0923437    178.791
 0.0932464    200.802
 0.0940485    225.742
 0.0947613    254.087
 0.0953947    286.409
 0.0959575    323.413
 0.0964577    365.976
 0.0969021    415.208
 0.0972971    472.541
 0.0976481    539.856
   0.09796     619.68
 0.0982371    715.494
 0.0984834    832.223
 0.0987022    977.054
 0.0988967    1160.85
 0.0990695    1400.71
 0.0992231    1724.72
 0.0993595    2181.36
 0.0994808    2858.42
 0.0995885    3922.03
 0.0996843    5693.04
 0.0997694    8803.26
  0.099845    14001.2
 0.0999122    19568.8
 0.0999719    22196.2
