2.80937e-05 0.00802669
8.78022e-05   0.153522
0.000154994   0.472915
0.000230608   0.658106
0.000315699   0.730005
0.000411455   0.755873
0.000519212   0.763708
0.000640475   0.764455
0.000776937   0.762379
0.000930502   0.759157
0.00110331   0.755431
0.00129779   0.751399
0.00151663   0.747076
0.00176291   0.742391
0.00204005   0.737244
0.00235193   0.731521
 0.0027029   0.725109
0.00309785   0.717898
0.00354231   0.709783
0.00404248   0.700665
0.00460533   0.690445
0.00523873    0.67903
0.00595151   0.666322
0.00675364   0.652223
 0.0076563   0.636627
0.00867209   0.619419
 0.0098152   0.600475
 0.0111016   0.579653
 0.0125492   0.556799
 0.0141782   0.531744
 0.0160115   0.504307
 0.0180745   0.474313
  0.020396   0.441616
 0.0230086   0.406158
 0.0259485   0.368079
  0.029257   0.327937
 0.0329801   0.287096
 0.0371699   0.248293
 0.0418848   0.216106
 0.0471906   0.196666
 0.0528094   0.196974
 0.0581152   0.216955
 0.0628301   0.249518
 0.0670199   0.288534
  0.070743   0.329468
 0.0740515   0.369631
 0.0769914   0.407689
  0.079604   0.443104
 0.0819255   0.475745
 0.0839885   0.505674
 0.0858218   0.533042
 0.0874508   0.558025
 0.0888984   0.580803
 0.0901848   0.601547
 0.0913279   0.620413
 0.0923437    0.63754
 0.0932464   0.653055
 0.0940485   0.667072
 0.0947613   0.679697
 0.0953947    0.69103
 0.0959575   0.701167
 0.0964577   0.710203
 0.0969021   0.718236
 0.0972971   0.725367
 0.0976481   0.731699
   0.09796   0.737344
 0.0982371   0.742415
 0.0984834   0.747025
 0.0987022   0.751277
 0.0988967   0.755239
 0.0990695   0.758899
 0.0992231   0.762057
 0.0993595   0.764075
 0.0994808   0.763273
 0.0995885   0.755387
 0.0996843   0.729475
 0.0997694   0.657545
  0.099845   0.472376
 0.0999122   0.153292
 0.0999719 0.00801456
