2.80937e-05 0.00535113
8.78022e-05   0.102348
0.000154994   0.315277
0.000230608   0.438738
0.000315699    0.48667
0.000411455   0.503915
0.000519212   0.509139
0.000640475   0.509637
0.000776937   0.508252
0.000930502   0.506105
0.00110331    0.50362
0.00129779   0.500933
0.00151663    0.49805
0.00176291   0.494927
0.00204005   0.491496
0.00235193   0.487681
 0.0027029   0.483406
0.00309785   0.478599
0.00354231   0.473189
0.00404248    0.46711
0.00460533   0.460297
0.00523873   0.452686
0.00595151   0.444215
0.00675364   0.434815
 0.0076563   0.424418
0.00867209   0.412946
 0.0098152   0.400317
 0.0111016   0.386436
 0.0125492     0.3712
 0.0141782   0.354496
 0.0160115   0.336205
 0.0180745   0.316209
  0.020396   0.294411
 0.0230086   0.270772
 0.0259485   0.245386
  0.029257   0.218625
 0.0329801   0.191397
 0.0371699   0.165529
 0.0418848   0.144071
 0.0471906   0.131111
 0.0528094   0.131316
 0.0581152   0.144637
 0.0628301   0.166345
 0.0670199   0.192356
  0.070743   0.219645
 0.0740515    0.24642
 0.0769914   0.271793
  0.079604   0.295403
 0.0819255   0.317163
 0.0839885   0.337116
 0.0858218   0.355361
 0.0874508   0.372016
 0.0888984   0.387202
 0.0901848   0.401032
 0.0913279   0.413609
 0.0923437   0.425027
 0.0932464    0.43537
 0.0940485   0.444715
 0.0947613   0.453131
 0.0953947   0.460687
 0.0959575   0.467445
 0.0964577   0.473469
 0.0969021   0.478824
 0.0972971   0.483578
 0.0976481   0.487799
   0.09796   0.491563
 0.0982371   0.494943
 0.0984834   0.498017
 0.0987022   0.500851
 0.0988967   0.503493
 0.0990695   0.505933
 0.0992231   0.508038
 0.0993595   0.509383
 0.0994808   0.508849
 0.0995885   0.503592
 0.0996843   0.486317
 0.0997694   0.438363
  0.099845   0.314918
 0.0999122   0.102195
 0.0999719 0.00534304
