2.80937e-05 -8.06147e-05
8.78022e-05 -0.00957238
0.000154994 -0.0828098
0.000230608  -0.143081
0.000315699  -0.173716
0.000411455  -0.190904
0.000519212   -0.20087
0.000640475  -0.207146
0.000776937  -0.211412
0.000930502  -0.214474
0.00110331  -0.216725
0.00129779  -0.218361
0.00151663  -0.219481
0.00176291  -0.220134
0.00204005  -0.220341
0.00235193  -0.220108
 0.0027029  -0.219436
0.00309785  -0.218318
0.00354231  -0.216746
0.00404248  -0.214709
0.00460533  -0.212197
0.00523873  -0.209196
0.00595151  -0.205691
0.00675364   -0.20166
 0.0076563  -0.197081
0.00867209  -0.191923
 0.0098152  -0.186148
 0.0111016  -0.179709
 0.0125492  -0.172547
 0.0141782  -0.164591
 0.0160115  -0.155753
 0.0180745  -0.145928
  0.020396  -0.134991
 0.0230086  -0.122793
 0.0259485  -0.109161
  0.029257 -0.0938996
 0.0329801 -0.0768172
 0.0371699   -0.05777
 0.0418848 -0.0365763
 0.0471906 -0.0125894
 0.0528094  0.0132055
 0.0581152  0.0371792
 0.0628301  0.0583665
 0.0670199  0.0774026
  0.070743   0.094467
 0.0740515   0.109707
 0.0769914   0.123318
  0.079604   0.135493
 0.0819255   0.146407
 0.0839885   0.156208
 0.0858218   0.165023
 0.0874508   0.172955
 0.0888984   0.180092
 0.0901848   0.186506
 0.0913279   0.192256
 0.0923437   0.197387
 0.0932464    0.20194
 0.0940485   0.205943
 0.0947613   0.209422
 0.0953947   0.212395
 0.0959575    0.21488
 0.0964577   0.216888
 0.0969021   0.218433
 0.0972971   0.219524
 0.0976481    0.22017
   0.09796   0.220376
 0.0982371   0.220144
 0.0984834   0.219468
 0.0987022   0.218325
 0.0988967   0.216668
 0.0990695   0.214398
 0.0992231   0.211319
 0.0993595   0.207039
 0.0994808   0.200751
 0.0995885   0.190776
 0.0996843    0.17358
 0.0997694   0.142945
  0.099845  0.0826886
 0.0999122 0.00955042
 0.0999719 8.04607e-05
