2.80937e-05  0.0731514
8.78022e-05   0.319919
0.000154994   0.561495
0.000230608   0.662373
0.000315699   0.697617
0.000411455    0.70987
0.000519212    0.71354
0.000640475   0.713889
0.000776937   0.712918
0.000930502   0.711411
0.00110331   0.709662
0.00129779   0.707766
0.00151663   0.705727
0.00176291   0.703511
0.00204005   0.701068
0.00235193   0.698341
 0.0027029   0.695274
0.00309785   0.691808
0.00354231   0.687887
0.00404248   0.683454
0.00460533   0.678452
0.00523873    0.67282
0.00595151   0.666494
0.00675364   0.659405
 0.0076563   0.651474
0.00867209   0.642609
 0.0098152   0.632706
 0.0111016   0.621639
 0.0125492   0.609261
 0.0141782   0.595395
 0.0160115   0.579832
 0.0180745   0.562324
  0.020396   0.542596
 0.0230086   0.520358
 0.0259485   0.495364
  0.029257   0.467573
 0.0329801    0.43749
 0.0371699   0.406852
 0.0418848   0.379566
 0.0471906   0.362092
 0.0528094   0.362376
 0.0581152   0.380311
 0.0628301   0.407855
 0.0670199   0.438584
  0.070743   0.468664
 0.0740515   0.496408
 0.0769914   0.521338
  0.079604    0.54351
 0.0819255   0.563172
 0.0839885   0.580617
 0.0858218   0.596122
 0.0874508   0.609931
 0.0888984   0.622256
 0.0901848   0.633271
 0.0913279   0.643124
 0.0923437   0.651941
 0.0932464   0.659826
 0.0940485   0.666869
 0.0947613    0.67315
 0.0953947   0.678739
 0.0959575   0.683699
 0.0964577   0.688091
 0.0969021   0.691971
 0.0972971   0.695398
 0.0976481   0.698426
   0.09796   0.701115
 0.0982371   0.703522
 0.0984834   0.705703
 0.0987022   0.707708
 0.0988967   0.709572
 0.0990695    0.71129
 0.0992231   0.712768
 0.0993595   0.713711
 0.0994808   0.713336
 0.0995885   0.709642
 0.0996843   0.697364
 0.0997694    0.66209
  0.099845   0.561175
 0.0999122   0.319679
 0.0999719  0.0730961
