/*--------------------------------*- C++ -*----------------------------------*\
  =========                 |
  \\      /  F ield         | OpenFOAM: The Open Source CFD Toolbox
   \\    /   O peration     | Website:  https://openfoam.org
    \\  /    A nd           | Version:  9
     \\/     M anipulation  |
\*---------------------------------------------------------------------------*/
FoamFile
{
    format      ascii;
    class       volScalarField;
    location    "73";
    object      ddt0(h);
}
// * * * * * * * * * * * * * * * * * * * * * * * * * * * * * * * * * * * * * //

dimensions      [0 1 -1 0 0 0 0];

internalField   nonuniform List<scalar> 
400
(
-3.30958e-09
-1.8607e-08
-9.64524e-10
3.26708e-08
2.86365e-08
1.06388e-08
1.87443e-08
8.44649e-09
1.47112e-08
-8.13717e-09
-2.64841e-08
-1.59888e-08
-2.23606e-08
9.68989e-09
5.20312e-09
-1.52094e-09
6.53758e-09
-1.18246e-08
-3.44617e-08
-2.00969e-08
-3.21631e-09
-4.18671e-09
1.03193e-08
9.59143e-09
-1.78707e-09
1.70216e-08
7.08907e-09
2.06944e-08
1.78997e-09
1.18555e-08
-7.24235e-09
-5.9094e-09
-2.03571e-09
-9.00157e-09
3.0211e-09
-4.83211e-10
-2.24082e-10
-1.09969e-09
-5.72626e-09
-1.48228e-09
9.86225e-11
1.47318e-08
1.12029e-08
-2.45494e-08
-7.51892e-09
1.70505e-08
-2.83702e-09
1.47039e-08
1.03614e-08
1.19558e-09
2.54462e-08
-1.34408e-08
1.33915e-08
-8.219e-09
-8.534e-09
4.02674e-09
-3.36676e-09
1.03031e-09
1.93329e-08
1.22666e-08
1.40079e-09
2.12854e-08
-1.47625e-09
-2.26678e-08
8.73637e-09
-8.89979e-09
-3.31336e-09
-1.12751e-08
2.152e-08
-9.36062e-09
-7.65323e-09
4.71879e-08
-1.56501e-08
8.28684e-09
8.25334e-09
4.6266e-09
-4.78537e-09
-1.54046e-09
1.64749e-08
1.2786e-08
-1.53134e-09
1.3121e-08
-5.39906e-09
5.65525e-09
1.02918e-08
-1.22307e-08
-2.99305e-08
2.07311e-08
-6.6348e-08
8.65767e-08
-5.78806e-08
2.42111e-08
6.21369e-08
-2.42034e-08
7.50965e-09
2.27877e-08
-1.63555e-09
-1.5567e-08
-6.72655e-09
7.53936e-10
-6.82501e-09
1.40321e-09
2.95701e-09
2.21867e-08
1.51611e-08
-3.6373e-08
6.55352e-09
-4.99927e-08
4.65683e-08
-8.10509e-08
1.63512e-07
-1.34451e-07
3.13972e-08
5.82327e-08
6.96088e-11
8.36927e-09
4.83188e-09
-9.60276e-09
-1.21887e-08
-5.28995e-09
-1.07024e-08
-2.83489e-09
9.26815e-09
2.52683e-08
-8.18426e-09
-1.63364e-08
-1.46548e-08
5.11859e-09
4.07354e-08
-1.25586e-07
5.49413e-07
2.5058e-07
-1.12991e-07
-1.03411e-08
2.77937e-08
1.41476e-08
9.89482e-09
2.76488e-09
-4.74862e-10
-2.51615e-09
-8.15606e-09
2.2101e-10
1.06455e-08
3.30562e-09
-1.49585e-08
-2.36306e-08
2.59708e-08
1.32363e-08
-1.00637e-07
6.78395e-07
-5.93854e-06
5.93992e-07
1.08751e-07
-4.11969e-08
-1.96473e-08
8.3137e-09
1.70847e-08
2.03212e-08
1.15879e-08
2.42922e-09
-8.90279e-10
4.60511e-09
3.68452e-09
-1.69568e-08
-2.57011e-08
1.19142e-08
1.0424e-08
1.97874e-08
8.61998e-08
-7.12521e-07
5.864e-06
-6.24883e-07
-1.70547e-07
-1.85652e-08
-2.86935e-08
-1.00433e-08
9.01285e-08
2.11607e-08
1.6159e-08
3.10757e-08
3.42144e-09
3.40809e-09
-5.35712e-09
-3.07734e-08
-1.17249e-08
2.23082e-08
2.67721e-08
-3.71636e-08
-7.47043e-08
1.6248e-07
-5.34992e-07
-2.49311e-07
1.63741e-07
-3.15569e-09
-2.72026e-08
-2.13251e-08
-9.19496e-08
1.05546e-09
1.58066e-08
-1.62716e-08
1.55838e-09
-6.29956e-09
-6.83065e-09
-2.50421e-08
-3.70543e-09
3.87197e-08
-1.69766e-08
-2.70839e-08
-5.38848e-09
-1.7943e-08
1.12494e-07
2.02792e-07
-2.33253e-08
4.39821e-09
1.32371e-08
-1.99149e-08
-2.60246e-08
-8.97398e-09
5.22697e-09
6.32706e-09
-9.52627e-11
-1.41673e-08
-5.03246e-09
-3.3018e-09
-6.80788e-09
2.48745e-08
-3.32037e-09
-3.29297e-08
-2.34014e-08
1.69141e-07
7.845e-07
4.07761e-07
1.87098e-08
1.79781e-08
8.01911e-09
-2.3333e-08
-9.25263e-09
-5.04291e-10
-2.61187e-09
-4.78526e-10
4.91365e-09
-1.52356e-08
-2.30055e-09
1.13026e-08
-1.16252e-08
-1.24495e-08
2.35598e-08
-4.13348e-09
5.56053e-08
-2.71225e-07
-4.94046e-07
-4.87281e-07
-3.58561e-08
4.7967e-10
-2.29464e-08
9.70618e-10
2.37492e-08
1.91031e-08
-6.14437e-09
-9.69441e-09
1.32509e-08
-6.11163e-09
-6.75586e-09
1.74197e-08
-1.60929e-08
-4.03707e-08
5.03995e-09
7.38389e-08
-7.22587e-08
1.53864e-07
-5.03214e-07
5.29127e-09
-9.10979e-09
-5.74744e-08
-1.2251e-08
2.43041e-08
3.88445e-08
2.32143e-08
-1.45409e-08
-1.70654e-08
1.62542e-08
3.6101e-09
-8.07008e-09
8.66092e-09
-3.34169e-10
-5.69617e-08
-1.96999e-08
3.29243e-08
7.74001e-08
-4.90741e-08
6.19582e-08
1.0648e-08
-4.30704e-08
1.86693e-08
2.78418e-08
4.00891e-08
3.47622e-08
9.6319e-09
-1.81808e-08
-1.45598e-08
9.3169e-09
6.55938e-09
-2.65996e-09
3.76783e-09
1.20386e-08
-2.99736e-08
-4.97705e-08
2.96988e-10
3.97444e-08
2.21646e-08
4.6664e-08
8.10725e-09
5.38408e-08
4.43397e-08
3.76768e-08
3.26299e-08
4.78911e-09
-1.49042e-08
-1.37286e-08
-4.86643e-09
-6.9789e-10
4.78738e-09
8.40384e-10
4.3354e-09
1.70927e-08
6.56279e-09
-3.52515e-08
-3.36656e-08
-1.29758e-08
1.53883e-08
2.11171e-08
3.49012e-08
4.32703e-08
3.14269e-08
2.33986e-08
-9.6452e-10
-2.88841e-08
-2.7306e-08
-4.57058e-09
3.51783e-09
-4.86264e-09
4.07446e-09
-1.95974e-09
-2.43914e-09
1.7397e-08
2.63398e-08
5.56189e-09
-2.48948e-08
-2.3736e-08
-1.42596e-08
-1.59533e-08
-5.4169e-10
3.5325e-09
6.26832e-09
-7.44296e-09
-2.64826e-08
-3.39095e-08
-1.83454e-08
4.93373e-09
7.14527e-09
3.18136e-10
2.55051e-09
-5.12827e-09
-1.11775e-08
5.91096e-09
2.74424e-08
2.80236e-08
9.37058e-09
-4.2749e-09
-4.99967e-09
-9.97202e-09
-1.91787e-08
-1.45507e-08
-4.63846e-09
-1.2165e-08
-2.26744e-08
-1.54448e-08
3.03851e-09
1.55947e-08
9.32755e-09
7.73344e-09
1.17089e-09
-7.71672e-09
-1.44962e-08
-4.56519e-09
1.96308e-08
3.33466e-08
2.85624e-08
1.45805e-08
1.45959e-08
1.3075e-08
-6.73562e-09
-9.35348e-09
5.09965e-09
1.03098e-09
-1.13391e-08
1.15549e-09
1.97446e-08
2.27417e-08
1.04848e-08
)
;

boundaryField
{
    sides
    {
        type            calculated;
        value           nonuniform List<scalar> 
40
(
7.73344e-09
1.17089e-09
-7.71672e-09
-1.44962e-08
-4.56519e-09
1.96308e-08
3.33466e-08
2.85624e-08
1.45805e-08
1.45959e-08
1.3075e-08
-6.73562e-09
-9.35348e-09
5.09965e-09
1.03098e-09
-1.13391e-08
1.15549e-09
1.97446e-08
2.27417e-08
1.04848e-08
-3.30958e-09
-1.8607e-08
-9.64524e-10
3.26708e-08
2.86365e-08
1.06388e-08
1.87443e-08
8.44649e-09
1.47112e-08
-8.13717e-09
-2.64841e-08
-1.59888e-08
-2.23606e-08
9.68989e-09
5.20312e-09
-1.52094e-09
6.53758e-09
-1.18246e-08
-3.44617e-08
-2.00969e-08
)
;
    }
    inlet
    {
        type            calculated;
        value           nonuniform List<scalar> 
20
(
-3.30958e-09
-3.21631e-09
9.86225e-11
1.40079e-09
-1.53134e-09
-6.82501e-09
-1.07024e-08
-8.15606e-09
-8.90279e-10
3.42144e-09
1.55838e-09
-9.52627e-11
4.91365e-09
1.32509e-08
1.62542e-08
9.3169e-09
-6.9789e-10
-4.86264e-09
3.18136e-10
7.73344e-09
)
;
    }
    outlet
    {
        type            calculated;
        value           uniform 0;
    }
    frontAndBack
    {
        type            empty;
    }
}


// ************************************************************************* //
