/*--------------------------------*- C++ -*----------------------------------*\
  =========                 |
  \\      /  F ield         | OpenFOAM: The Open Source CFD Toolbox
   \\    /   O peration     | Website:  https://openfoam.org
    \\  /    A nd           | Version:  9
     \\/     M anipulation  |
\*---------------------------------------------------------------------------*/
FoamFile
{
    format      ascii;
    class       volVectorField;
    location    "73";
    object      ddt0(hU);
}
// * * * * * * * * * * * * * * * * * * * * * * * * * * * * * * * * * * * * * //

dimensions      [0 2 -2 0 0 0 0];

internalField   nonuniform List<vector> 
400
(
(2.18334e-09 1.75053e-09 0)
(3.60592e-09 3.95827e-10 0)
(5.51907e-10 -2.08251e-09 0)
(-4.73077e-10 -1.92161e-09 0)
(1.93031e-09 1.44369e-09 0)
(3.20864e-09 1.19077e-09 0)
(2.60896e-09 3.62842e-10 0)
(-1.24654e-09 3.87335e-10 0)
(9.34107e-12 1.31193e-09 0)
(3.50698e-10 9.24362e-10 0)
(-2.61092e-11 3.35257e-09 0)
(8.29474e-10 -4.71272e-10 0)
(-3.05569e-09 5.85523e-11 0)
(5.98582e-10 -6.96885e-10 0)
(7.87598e-10 -8.63239e-10 0)
(6.44422e-11 7.00078e-10 0)
(3.13799e-09 -2.94951e-11 0)
(2.99696e-09 -2.67802e-09 0)
(-2.61828e-09 -4.10011e-09 0)
(-5.89111e-09 -1.34622e-09 0)
(9.43848e-10 3.13956e-09 0)
(1.42017e-09 -2.73843e-10 0)
(-2.14638e-10 -4.92939e-09 0)
(4.14493e-10 -2.48362e-09 0)
(1.57772e-09 3.83547e-09 0)
(2.58938e-09 1.13756e-09 0)
(9.9579e-10 1.30946e-09 0)
(1.44479e-09 -2.48168e-10 0)
(-6.48616e-10 3.06705e-09 0)
(3.83731e-09 8.64631e-10 0)
(6.54967e-11 3.12735e-09 0)
(-1.56915e-09 1.19774e-09 0)
(-5.86214e-10 -7.02192e-10 0)
(-1.75707e-09 1.73135e-10 0)
(1.78858e-09 -3.31142e-10 0)
(4.42833e-10 1.78077e-09 0)
(-1.26437e-09 1.94895e-09 0)
(3.89043e-10 -1.40348e-09 0)
(2.5312e-09 -4.58286e-09 0)
(2.08645e-09 -2.60939e-09 0)
(-7.61356e-10 2.42358e-09 0)
(-7.21976e-10 -1.60533e-09 0)
(5.66701e-10 -4.3277e-09 0)
(1.90966e-09 -1.59336e-10 0)
(8.32462e-10 9.24282e-10 0)
(7.57807e-10 -6.62778e-10 0)
(7.97937e-12 6.70206e-10 0)
(2.35044e-09 2.76001e-10 0)
(1.07619e-09 2.62858e-10 0)
(5.71171e-12 4.31714e-09 0)
(4.19281e-09 -1.5407e-09 0)
(-2.81152e-09 5.13153e-09 0)
(8.79953e-10 1.95067e-09 0)
(4.12086e-10 6.45583e-10 0)
(6.87681e-10 2.22225e-09 0)
(1.44737e-09 3.11578e-09 0)
(-2.03501e-09 4.95749e-09 0)
(-1.05142e-09 4.40032e-09 0)
(3.66546e-09 2.488e-10 0)
(4.67987e-09 -1.5174e-09 0)
(-2.18119e-09 1.61978e-09 0)
(-1.78918e-09 -1.09831e-09 0)
(1.39369e-09 -1.24053e-09 0)
(1.62738e-09 -7.4489e-10 0)
(2.89866e-10 -4.30382e-09 0)
(-9.75013e-10 -1.56802e-09 0)
(2.22021e-09 1.82046e-12 0)
(-3.2428e-10 1.76043e-10 0)
(5.73648e-09 -3.49307e-10 0)
(-1.63106e-09 1.45379e-09 0)
(-1.55477e-09 1.01273e-08 0)
(7.47695e-09 -1.81922e-09 0)
(-4.57705e-09 6.39853e-09 0)
(1.96563e-09 3.18474e-09 0)
(4.48352e-09 6.22668e-10 0)
(1.5045e-09 2.52312e-09 0)
(-1.86832e-09 6.31048e-09 0)
(-2.5432e-09 7.2239e-09 0)
(1.41965e-09 1.91732e-09 0)
(4.405e-09 -6.22708e-10 0)
(-2.51516e-09 8.90195e-10 0)
(-1.51594e-09 1.8216e-10 0)
(8.60924e-10 1.04825e-10 0)
(6.77273e-10 -3.26678e-09 0)
(-6.60963e-10 -5.18978e-09 0)
(1.44563e-09 -4.8172e-10 0)
(6.83433e-10 1.43275e-09 0)
(4.95574e-09 -2.90206e-09 0)
(-4.91613e-09 5.18484e-09 0)
(1.68129e-08 -1.05867e-08 0)
(-9.73482e-09 8.39023e-09 0)
(-3.40052e-09 4.83159e-09 0)
(1.37642e-08 -4.47611e-09 0)
(-4.90589e-09 2.64697e-09 0)
(1.10649e-09 -5.08696e-11 0)
(6.30116e-09 -9.8719e-10 0)
(1.12086e-09 3.99005e-09 0)
(-4.71131e-09 7.48258e-09 0)
(-4.2931e-09 4.45805e-09 0)
(2.67198e-10 8.64376e-10 0)
(-2.17256e-09 1.81889e-10 0)
(-1.34752e-09 4.32338e-11 0)
(1.57497e-11 -1.29184e-09 0)
(-6.56236e-10 -4.50481e-09 0)
(1.11242e-09 -2.29461e-09 0)
(2.18626e-09 2.9173e-09 0)
(2.63513e-09 8.83473e-10 0)
(1.937e-09 2.1369e-09 0)
(1.58237e-09 -1.05043e-08 0)
(-8.87702e-09 1.29325e-08 0)
(2.87795e-08 -5.92389e-08 0)
(-2.39749e-08 1.14786e-08 0)
(5.06494e-10 -1.07596e-09 0)
(1.42451e-08 -9.14771e-09 0)
(-5.79473e-10 -4.5329e-09 0)
(2.84449e-09 -3.73489e-09 0)
(5.65558e-09 -3.39899e-10 0)
(-9.42151e-11 3.20928e-09 0)
(-5.48273e-09 3.29693e-09 0)
(-5.44906e-09 1.4238e-09 0)
(-2.01636e-09 -9.46117e-10 0)
(-1.16633e-09 -1.36926e-09 0)
(-7.78518e-10 -3.23097e-09 0)
(1.41788e-10 -3.43509e-09 0)
(2.4569e-09 1.93662e-09 0)
(3.5308e-09 4.57953e-09 0)
(3.11717e-09 1.92894e-09 0)
(-5.16306e-09 -2.25358e-09 0)
(1.66979e-08 -8.16789e-09 0)
(-5.41787e-08 1.8729e-08 0)
(4.35763e-08 -1.63189e-07 0)
(8.04468e-08 -5.00963e-08 0)
(-2.26271e-08 1.40026e-08 0)
(-4.68309e-09 -1.38082e-09 0)
(8.3975e-09 -7.64883e-09 0)
(6.61912e-09 -6.42476e-09 0)
(7.2871e-09 -4.81783e-09 0)
(3.43985e-09 -3.38422e-09 0)
(-2.51859e-09 -2.24133e-09 0)
(-6.20478e-09 -3.75975e-10 0)
(-1.56253e-09 -2.10349e-09 0)
(-9.3045e-10 -2.59321e-09 0)
(-1.50599e-10 -3.63698e-09 0)
(1.37864e-09 -1.0288e-09 0)
(4.03799e-09 4.56194e-09 0)
(2.78104e-09 3.18531e-09 0)
(-6.02365e-10 -1.30782e-10 0)
(5.30301e-10 -5.67393e-09 0)
(9.58949e-09 -1.08102e-09 0)
(-8.68227e-08 -3.34214e-08 0)
(-6.70117e-07 2.07058e-07 0)
(2.32017e-07 4.37699e-08 0)
(6.17458e-08 -6.04704e-09 0)
(-1.68089e-08 3.53786e-09 0)
(-7.85467e-09 -8.61295e-10 0)
(3.25579e-09 -5.43456e-09 0)
(8.20521e-09 -7.3009e-09 0)
(7.79159e-09 -6.96919e-09 0)
(2.57491e-09 -5.51639e-09 0)
(-3.54513e-09 -1.33754e-09 0)
(-8.47092e-10 -2.71622e-09 0)
(-6.0607e-11 -2.48159e-09 0)
(1.00431e-09 -2.00953e-09 0)
(3.29301e-09 1.21707e-09 0)
(3.38759e-09 4.15679e-09 0)
(1.05889e-09 6.72738e-11 0)
(-1.99816e-09 -4.44015e-09 0)
(-3.18323e-09 -2.41811e-09 0)
(-7.32252e-09 7.01777e-09 0)
(9.04972e-08 -2.90234e-08 0)
(6.70462e-07 2.15462e-07 0)
(-2.30109e-07 3.99714e-08 0)
(-6.78364e-08 -3.83546e-09 0)
(3.13614e-09 9.55429e-09 0)
(-6.57864e-09 7.41449e-09 0)
(-4.1837e-09 1.82437e-09 0)
(1.24887e-08 -4.10084e-09 0)
(8.88918e-09 -7.02396e-09 0)
(6.75152e-09 -6.21663e-09 0)
(2.44238e-09 -3.6587e-09 0)
(1.96688e-10 -2.39339e-09 0)
(1.27323e-09 -8.37546e-10 0)
(2.38981e-09 8.02075e-10 0)
(3.77184e-09 1.80575e-09 0)
(2.3005e-09 1.41273e-09 0)
(-1.6411e-09 -3.01474e-09 0)
(-2.31762e-09 -4.09176e-09 0)
(8.11209e-09 2.72006e-09 0)
(-1.65836e-08 7.46919e-09 0)
(5.89223e-08 2.62485e-08 0)
(-4.36629e-08 -1.61649e-07 0)
(-8.06401e-08 -4.20506e-08 0)
(3.61082e-08 1.31094e-08 0)
(6.70346e-10 7.18969e-09 0)
(-1.63463e-08 7.86922e-09 0)
(-1.22221e-08 6.98907e-09 0)
(-1.2308e-08 1.51348e-09 0)
(4.90586e-09 -2.21096e-09 0)
(7.45191e-09 -2.50202e-09 0)
(2.20868e-09 -2.15205e-09 0)
(1.13733e-09 -1.01485e-09 0)
(2.73313e-09 1.10447e-09 0)
(2.76202e-09 3.15842e-09 0)
(3.15513e-09 8.19894e-10 0)
(5.57434e-10 -2.21815e-09 0)
(-1.9348e-09 -2.17377e-09 0)
(1.41768e-09 -2.06172e-09 0)
(3.75775e-09 5.06936e-09 0)
(1.14663e-08 -6.50107e-09 0)
(-2.10352e-08 2.40458e-08 0)
(3.65511e-09 -1.65723e-07 0)
(5.25187e-08 -2.70789e-09 0)
(-8.3694e-10 1.91247e-09 0)
(-1.14619e-09 -7.48129e-09 0)
(-2.23242e-09 1.23301e-09 0)
(-1.13433e-08 3.99847e-09 0)
(-8.35052e-09 3.54827e-09 0)
(2.41705e-09 3.1846e-09 0)
(5.88329e-09 2.18345e-09 0)
(2.65791e-09 1.68145e-09 0)
(1.80316e-09 9.57167e-10 0)
(3.56204e-09 2.1296e-09 0)
(2.1406e-09 3.48647e-09 0)
(1.57292e-09 1.07819e-10 0)
(3.72944e-10 -4.5748e-09 0)
(-9.38593e-10 -1.48805e-10 0)
(1.57702e-09 3.18523e-09 0)
(3.95401e-09 -4.85937e-09 0)
(9.61574e-09 -1.43282e-09 0)
(-1.10003e-07 -2.28376e-08 0)
(5.32323e-08 1.50001e-07 0)
(1.8074e-07 1.22976e-08 0)
(1.46721e-08 -1.52678e-08 0)
(8.05229e-10 -6.94187e-09 0)
(-6.50455e-10 -7.07494e-09 0)
(-9.02806e-09 -3.19038e-09 0)
(-4.05241e-09 2.93499e-09 0)
(3.35182e-09 4.42857e-09 0)
(3.32032e-09 2.98184e-09 0)
(-6.91586e-10 1.33602e-09 0)
(1.94721e-09 2.38024e-09 0)
(2.89931e-09 1.94453e-09 0)
(1.07907e-09 2.45363e-09 0)
(-3.97363e-10 6.58971e-10 0)
(7.25235e-10 -4.20836e-09 0)
(1.4036e-09 -5.38361e-10 0)
(7.56924e-11 5.40443e-09 0)
(6.20292e-12 -2.27595e-09 0)
(-1.0366e-09 -8.23336e-09 0)
(1.01059e-07 -1.52846e-08 0)
(-1.47147e-08 1.40404e-07 0)
(-1.89281e-07 -3.25352e-09 0)
(-2.24373e-08 -8.05642e-09 0)
(6.46166e-09 -1.01733e-08 0)
(-1.71456e-09 -1.03982e-08 0)
(2.67268e-09 -2.89762e-09 0)
(5.78742e-09 3.36549e-09 0)
(4.58157e-09 3.15789e-09 0)
(1.00544e-10 6.02212e-10 0)
(-3.07931e-09 -3.46412e-10 0)
(1.45e-09 2.06612e-09 0)
(1.62909e-09 1.41582e-09 0)
(4.03123e-10 1.40323e-09 0)
(-1.67454e-09 2.4884e-09 0)
(6.42034e-11 -1.68875e-09 0)
(2.97326e-09 -2.88931e-09 0)
(-3.11509e-10 2.70661e-09 0)
(-1.13989e-09 6.4023e-09 0)
(-8.96963e-09 -2.47809e-09 0)
(3.61543e-08 1.02421e-08 0)
(-5.65463e-08 -1.40723e-07 0)
(-1.42908e-08 -2.27105e-08 0)
(4.55713e-09 -2.66646e-09 0)
(-1.05228e-08 -6.64371e-09 0)
(5.23177e-09 -2.75017e-10 0)
(1.24271e-08 4.26201e-09 0)
(8.91174e-09 3.78627e-09 0)
(1.54444e-09 5.27183e-10 0)
(-3.70999e-09 -2.35699e-09 0)
(-2.18709e-09 -1.699e-09 0)
(8.11814e-10 4.92979e-10 0)
(7.21021e-10 1.3107e-09 0)
(9.63399e-10 1.54745e-09 0)
(-2.01059e-09 3.33752e-09 0)
(-1.14621e-09 1.73537e-09 0)
(2.16259e-09 -5.10331e-09 0)
(3.56267e-09 -2.17796e-09 0)
(-3.69781e-09 6.16372e-09 0)
(4.18171e-09 1.19955e-08 0)
(-1.07032e-08 4.38107e-09 0)
(4.66008e-09 -1.36998e-08 0)
(3.83302e-09 7.32787e-09 0)
(-1.04393e-08 -4.73801e-09 0)
(8.00738e-09 5.85815e-09 0)
(1.53122e-08 1.0066e-08 0)
(1.41073e-08 8.08146e-09 0)
(5.53245e-09 2.25488e-09 0)
(-4.40762e-09 -2.14021e-09 0)
(-6.1709e-09 -2.80133e-09 0)
(7.77442e-10 -1.05938e-09 0)
(2.94143e-10 -6.43902e-10 0)
(9.47091e-10 1.26017e-09 0)
(1.83528e-09 2.09473e-09 0)
(-9.84461e-10 2.83668e-09 0)
(-2.77549e-09 3.07061e-09 0)
(8.52664e-10 -3.2576e-09 0)
(3.71841e-09 -7.29334e-09 0)
(3.13173e-09 -5.30107e-10 0)
(-4.60737e-11 9.8707e-09 0)
(-8.38543e-10 6.27689e-09 0)
(3.64554e-09 1.56441e-08 0)
(-4.30494e-09 4.2981e-09 0)
(5.70266e-09 1.12824e-08 0)
(1.25669e-08 1.44196e-08 0)
(1.33886e-08 1.19251e-08 0)
(9.10282e-09 5.33472e-09 0)
(-2.22128e-09 -2.84056e-09 0)
(-9.50049e-09 -4.97339e-09 0)
(-5.51357e-09 -1.44551e-09 0)
(3.30784e-09 5.09426e-10 0)
(-1.64732e-10 -3.10323e-10 0)
(1.31311e-09 8.73873e-10 0)
(2.18758e-09 1.23105e-09 0)
(2.92018e-10 1.49024e-09 0)
(-2.64081e-09 2.46642e-09 0)
(-1.00247e-09 6.2733e-10 0)
(2.8109e-09 -5.7171e-09 0)
(4.20986e-09 -5.50279e-09 0)
(1.45712e-09 -1.83617e-09 0)
(3.32555e-09 2.94645e-09 0)
(1.55826e-09 2.14752e-10 0)
(1.16277e-09 3.37296e-09 0)
(5.70161e-09 9.12194e-09 0)
(7.67644e-09 8.41328e-09 0)
(6.65256e-09 4.39187e-09 0)
(-1.16869e-09 -2.98293e-09 0)
(-8.75224e-09 -8.00401e-09 0)
(-8.88585e-09 -5.89719e-09 0)
(-2.12836e-09 1.60307e-12 0)
(4.38051e-09 1.47408e-09 0)
(-6.06239e-10 9.48455e-10 0)
(4.00221e-10 6.43858e-10 0)
(1.30865e-09 -2.42991e-10 0)
(1.16021e-09 -7.96492e-10 0)
(-5.57933e-10 1.13588e-09 0)
(-8.04938e-10 3.25149e-09 0)
(1.37002e-09 1.24632e-09 0)
(2.10153e-09 -3.52065e-09 0)
(1.43958e-09 -4.99747e-09 0)
(-3.9011e-10 -5.72943e-09 0)
(-4.63561e-11 -8.10265e-09 0)
(3.58673e-09 -4.9456e-09 0)
(3.16681e-09 -2.03209e-09 0)
(1.92583e-09 -2.18321e-09 0)
(-1.72919e-09 -6.5352e-09 0)
(-6.05073e-09 -9.46883e-09 0)
(-6.85863e-09 -8.36602e-09 0)
(-3.77332e-09 -4.26243e-09 0)
(1.27017e-09 8.8457e-10 0)
(4.30458e-09 1.69283e-09 0)
(-6.70674e-10 2.15307e-09 0)
(-1.88237e-09 6.35704e-10 0)
(-7.5186e-10 -9.45638e-10 0)
(1.3529e-09 -2.41222e-09 0)
(2.32177e-09 -4.94908e-10 0)
(1.91168e-09 3.48998e-09 0)
(1.02881e-09 4.80539e-09 0)
(2.57471e-10 1.6628e-09 0)
(-3.0448e-10 -2.19839e-09 0)
(-1.97479e-10 -4.59828e-09 0)
(9.85509e-10 -5.51387e-09 0)
(1.68217e-09 -6.29057e-09 0)
(5.58321e-10 -5.61453e-09 0)
(-2.04532e-09 -6.78492e-09 0)
(-3.58202e-09 -9.32937e-09 0)
(-2.60133e-09 -8.33373e-09 0)
(-4.70346e-10 -4.91084e-09 0)
(1.76438e-09 -1.77529e-09 0)
(3.95029e-09 1.32218e-09 0)
(3.91943e-09 1.4976e-09 0)
(-7.87159e-10 1.33129e-09 0)
(-4.39669e-09 2.98367e-10 0)
(-2.79126e-09 -5.42226e-10 0)
(1.09572e-09 -1.34681e-09 0)
(4.38784e-09 -6.1798e-10 0)
(4.30769e-09 1.40113e-09 0)
(1.55492e-09 2.36668e-09 0)
(-7.84206e-10 1.58612e-09 0)
(-1.31391e-09 -2.30817e-10 0)
(1.54315e-10 -1.15816e-09 0)
(2.34075e-09 -2.11314e-09 0)
(2.74082e-09 -2.46305e-09 0)
(1.10004e-10 -2.31527e-09 0)
(-2.92706e-09 -3.08062e-09 0)
(-2.10496e-09 -3.82924e-09 0)
(1.48842e-09 -2.96793e-09 0)
(4.31831e-09 -1.33896e-09 0)
(5.25726e-09 -2.2106e-10 0)
(5.22778e-09 7.39613e-10 0)
(3.20736e-09 6.54341e-10 0)
)
;

boundaryField
{
    sides
    {
        type            calculated;
        value           nonuniform List<vector> 
40
(
(-7.87159e-10 0 0)
(-4.39669e-09 0 0)
(-2.79126e-09 0 0)
(1.09572e-09 0 0)
(4.38784e-09 0 0)
(4.30769e-09 0 0)
(1.55492e-09 0 0)
(-7.84206e-10 0 0)
(-1.31391e-09 0 0)
(1.54315e-10 0 0)
(2.34075e-09 0 0)
(2.74082e-09 0 0)
(1.10004e-10 0 0)
(-2.92706e-09 0 0)
(-2.10496e-09 0 0)
(1.48842e-09 0 0)
(4.31831e-09 0 0)
(5.25726e-09 0 0)
(5.22778e-09 0 0)
(3.20736e-09 0 0)
(2.18334e-09 0 0)
(3.60592e-09 0 0)
(5.51907e-10 0 0)
(-4.73077e-10 0 0)
(1.93031e-09 0 0)
(3.20864e-09 0 0)
(2.60896e-09 0 0)
(-1.24654e-09 0 0)
(9.34107e-12 0 0)
(3.50698e-10 0 0)
(-2.61092e-11 0 0)
(8.29474e-10 0 0)
(-3.05569e-09 0 0)
(5.98582e-10 0 0)
(7.87598e-10 0 0)
(6.44422e-11 0 0)
(3.13799e-09 0 0)
(2.99696e-09 0 0)
(-2.61828e-09 0 0)
(-5.89111e-09 0 0)
)
;
    }
    inlet
    {
        type            calculated;
        value           uniform (0 0 0);
    }
    outlet
    {
        type            calculated;
        value           nonuniform List<vector> 
20
(
(-5.89111e-09 -1.34622e-09 0)
(2.08645e-09 -2.60939e-09 0)
(4.67987e-09 -1.5174e-09 0)
(4.405e-09 -6.22708e-10 0)
(2.67198e-10 8.64376e-10 0)
(-5.44906e-09 1.4238e-09 0)
(-6.20478e-09 -3.75975e-10 0)
(-3.54513e-09 -1.33754e-09 0)
(2.44238e-09 -3.6587e-09 0)
(2.20868e-09 -2.15205e-09 0)
(2.65791e-09 1.68145e-09 0)
(-6.91586e-10 1.33602e-09 0)
(-3.07931e-09 -3.46412e-10 0)
(-2.18709e-09 -1.699e-09 0)
(7.77442e-10 -1.05938e-09 0)
(3.30784e-09 5.09426e-10 0)
(4.38051e-09 1.47408e-09 0)
(4.30458e-09 1.69283e-09 0)
(3.91943e-09 1.4976e-09 0)
(3.20736e-09 6.54341e-10 0)
)
;
    }
    frontAndBack
    {
        type            empty;
    }
}


// ************************************************************************* //
