/*--------------------------------*- C++ -*----------------------------------*\
  =========                 |
  \\      /  F ield         | OpenFOAM: The Open Source CFD Toolbox
   \\    /   O peration     | Website:  https://openfoam.org
    \\  /    A nd           | Version:  9
     \\/     M anipulation  |
\*---------------------------------------------------------------------------*/
FoamFile
{
    format      ascii;
    class       surfaceScalarField;
    location    "73";
    object      ddtCorrDdt0(phi);
}
// * * * * * * * * * * * * * * * * * * * * * * * * * * * * * * * * * * * * * //

dimensions      [0 4 -2 0 0 0 0];

internalField   nonuniform List<scalar> 
760
(
2.78002e-11
1.05511e-11
1.93295e-11
-1.93254e-12
-7.8977e-12
-2.2825e-11
-1.13267e-11
-1.25064e-11
2.55481e-11
2.73545e-11
1.42002e-11
1.55837e-11
8.3876e-12
3.50773e-12
-1.64468e-11
1.08487e-12
8.37113e-12
1.21028e-11
-5.04819e-12
-8.40384e-12
1.35631e-11
6.59472e-12
-8.99369e-12
-1.27316e-11
-9.84268e-12
-9.21272e-13
6.09941e-12
-6.12811e-12
-6.60313e-13
-7.55678e-12
4.16158e-12
8.6845e-12
1.73261e-11
3.11462e-12
1.39376e-11
-1.54823e-11
-2.40756e-11
-2.61414e-11
-1.76264e-11
1.69017e-11
1.32969e-11
2.70538e-12
-9.37564e-12
-9.2569e-12
-3.0478e-11
9.29591e-12
-2.90202e-12
1.3827e-11
2.78604e-11
4.31911e-12
-8.35267e-13
1.21015e-11
9.36132e-12
-5.5578e-12
-8.04808e-12
7.16029e-12
1.54898e-11
2.29304e-11
-3.37576e-12
-1.91975e-11
9.90308e-13
6.45739e-12
2.22243e-11
-1.44921e-11
-1.12056e-11
2.38983e-12
8.07737e-12
1.09363e-11
5.63238e-12
-7.16516e-12
1.10852e-11
-6.90409e-12
1.89346e-11
1.14313e-11
7.44815e-12
1.8381e-11
-1.62692e-11
-1.07645e-11
-1.16941e-12
1.01213e-11
-1.14232e-11
-9.85682e-12
8.02123e-12
-1.39976e-11
2.70255e-11
5.50218e-12
-1.79362e-11
-1.64835e-11
1.26545e-11
-6.40596e-12
-2.29441e-12
-2.5204e-12
2.17424e-11
1.16785e-11
-1.31912e-11
-1.54058e-11
2.21249e-11
4.78132e-11
1.90697e-12
-1.70231e-11
-1.36754e-11
3.4608e-11
1.13156e-11
2.68644e-11
-4.94208e-13
-1.2549e-13
1.15353e-11
1.54712e-11
-4.99622e-12
1.92864e-11
-1.34758e-11
2.92429e-11
9.71025e-12
3.11967e-11
2.07655e-11
7.38967e-12
-4.57488e-12
-1.76828e-11
5.71137e-12
-1.16737e-11
-1.10941e-12
2.62458e-11
3.67875e-12
4.9886e-12
-1.21755e-11
-1.64536e-11
-2.99418e-11
1.21945e-11
-1.07054e-11
8.46052e-12
4.19934e-12
-5.69514e-13
-8.75415e-12
4.11877e-11
1.52998e-11
-5.09998e-11
-2.83287e-11
5.11354e-11
1.3433e-10
-1.12916e-11
-5.2241e-11
-1.04525e-11
3.59805e-11
2.74301e-11
3.08005e-11
1.46305e-11
-1.11567e-11
-1.92588e-12
1.76053e-15
-1.20041e-11
2.87712e-11
-8.659e-12
4.07758e-11
1.44217e-11
2.45856e-11
5.47889e-12
-2.07336e-11
3.17982e-12
-1.78701e-12
4.56748e-12
1.73476e-11
-5.46303e-13
-1.30364e-11
-2.15317e-11
-2.11422e-12
-2.50698e-11
2.07652e-11
5.50663e-12
3.45864e-12
1.00722e-11
1.16808e-11
-1.9054e-11
1.85917e-12
3.97489e-11
8.83713e-11
-7.90677e-11
-1.32802e-10
-1.12646e-10
9.43021e-11
1.18482e-10
4.19379e-12
-8.36124e-11
-1.82037e-11
-1.56188e-11
2.74409e-11
1.21138e-11
2.10721e-11
-1.104e-11
-7.44328e-12
7.6661e-12
-3.0574e-11
2.94038e-11
-1.22866e-11
2.54491e-11
8.88982e-12
-1.36884e-11
-9.21212e-13
5.68693e-13
-2.5511e-12
1.71812e-12
-1.14135e-11
-1.79251e-11
-2.43699e-11
1.90171e-11
1.51343e-12
2.99218e-11
2.44711e-11
-2.80108e-11
-1.94443e-12
8.56435e-11
4.38408e-11
-1.29341e-10
-1.71142e-10
1.42972e-10
2.86045e-10
-5.49506e-12
-6.15641e-10
-1.14794e-10
5.95323e-12
9.33905e-11
1.20519e-10
1.91968e-11
-6.73715e-11
-4.49431e-12
-5.4418e-11
3.07628e-11
-2.29013e-11
2.21155e-11
-1.2057e-11
-2.00271e-11
-2.40042e-12
-3.19648e-11
1.64872e-12
2.31698e-12
-7.69004e-12
-8.54663e-12
-1.32122e-12
-1.12655e-11
-1.01054e-11
-2.13006e-11
-2.71176e-12
-1.00906e-11
3.70435e-11
1.99222e-11
3.26549e-12
2.314e-11
3.35029e-11
2.22857e-11
-8.38231e-11
-7.49709e-11
2.00764e-10
1.04909e-10
-5.43184e-10
-2.54156e-10
7.61972e-10
1.52559e-09
-6.05627e-12
-5.46035e-10
-8.81528e-11
-2.70708e-11
3.03088e-11
5.6484e-11
3.17983e-11
-1.39445e-11
3.94585e-11
-2.17689e-11
3.37447e-11
-2.22815e-11
6.62176e-13
-3.11098e-11
-2.53539e-11
-2.48866e-11
-6.76539e-12
-2.8652e-12
-1.34821e-11
-6.46368e-12
-1.64429e-11
-4.26798e-12
-1.53197e-11
1.61159e-11
1.53363e-12
3.16817e-11
2.8859e-11
1.25754e-11
8.05263e-12
-4.32801e-11
-2.51299e-11
5.15987e-11
2.7488e-11
2.31049e-10
-1.67487e-10
-3.0306e-09
-9.55317e-11
-1.79746e-10
3.17338e-08
6.28187e-10
1.12168e-09
1.96914e-11
-2.96764e-11
-7.7332e-11
-1.7386e-11
-1.07335e-11
7.7514e-12
3.53714e-11
-6.15168e-13
4.61964e-11
-2.38741e-11
2.65211e-11
-4.22051e-11
-2.13242e-12
-3.29518e-11
-6.1078e-12
1.06551e-13
-1.43286e-11
-4.9026e-12
-9.7291e-12
6.37518e-12
-4.16813e-12
3.42587e-11
1.39896e-11
1.56632e-11
1.1181e-11
-1.73569e-11
-8.46038e-12
4.37759e-14
-2.31652e-11
-4.90057e-11
-3.42295e-11
-2.0002e-10
2.17418e-10
3.03825e-09
-3.09756e-10
1.85154e-10
1.29883e-09
-6.33912e-10
-6.03085e-10
-7.00947e-11
-5.85396e-11
-7.39941e-12
3.67129e-11
-3.5119e-11
6.66652e-11
1.97629e-11
2.53468e-11
5.90353e-11
-9.0171e-10
4.317e-11
-1.92915e-11
2.97628e-11
-2.33236e-11
-4.61176e-10
7.51216e-12
-9.61675e-12
-8.44387e-13
1.85427e-12
1.92393e-11
1.31275e-11
3.62476e-11
5.54386e-12
-6.73676e-12
-1.56297e-12
-2.34696e-11
-2.34239e-11
-2.29129e-11
-1.29016e-11
1.20291e-10
6.87969e-11
-2.08477e-10
-1.12412e-10
5.67142e-10
3.38937e-10
-8.07614e-10
-8.14307e-10
8.96357e-11
1.23115e-10
1.08898e-10
6.49025e-11
-6.96613e-11
-5.74044e-11
-7.94727e-11
1.36031e-11
-6.35326e-11
3.70524e-11
-1.31152e-11
1.58324e-11
4.04255e-11
7.60709e-12
1.55379e-11
6.37287e-12
8.84378e-12
1.72556e-11
1.30027e-13
8.5499e-12
1.07327e-11
1.41372e-11
1.94726e-11
3.36035e-11
-4.86954e-13
-2.24147e-11
-2.23396e-11
-2.94275e-11
2.43592e-13
5.54016e-11
-7.67313e-12
-3.60166e-12
-1.41673e-13
1.03963e-10
2.72656e-11
-2.85886e-10
-1.1762e-10
3.43737e-10
-1.17758e-09
7.05022e-11
-2.40644e-10
-1.44986e-11
-6.49463e-11
4.33823e-12
-3.53721e-11
-4.14768e-11
-1.20933e-11
-6.18532e-11
5.9666e-12
-1.1049e-11
1.87208e-11
3.20793e-11
2.1461e-11
1.86813e-11
1.61803e-11
9.12531e-12
2.34207e-11
9.77472e-12
1.66398e-11
1.11386e-11
2.09461e-12
1.51262e-11
1.50869e-11
-2.31664e-12
-7.58083e-13
-2.39953e-11
-2.92688e-11
3.74619e-12
4.24279e-11
2.63843e-11
1.76619e-11
-5.50392e-11
1.24556e-10
1.47578e-12
-1.14936e-09
-1.46877e-10
1.49581e-09
4.99769e-08
2.45937e-10
5.21883e-10
8.90747e-12
-7.96684e-11
1.17409e-11
-2.46495e-11
-3.27165e-11
-3.60268e-11
-4.14455e-11
-1.51734e-11
8.3311e-13
1.03854e-11
2.63205e-11
1.81366e-11
6.81037e-12
1.14427e-11
3.73957e-12
1.81472e-11
1.29382e-11
2.04072e-11
6.24594e-12
-1.08585e-11
8.05246e-12
-4.11952e-12
7.1598e-12
2.06383e-11
-1.7532e-11
5.13274e-12
-2.53962e-12
-2.13267e-11
2.30284e-11
3.11195e-11
1.1567e-11
-1.34464e-10
-4.39907e-11
1.20843e-09
-2.36801e-11
-1.36845e-09
-1.01236e-09
-3.52305e-10
-4.26065e-10
2.07095e-11
3.98353e-11
4.168e-12
-4.31585e-11
2.60637e-12
-3.84511e-11
2.42233e-11
-8.49113e-13
2.36383e-11
1.54957e-11
1.55492e-11
7.60784e-12
-6.55599e-12
-8.14484e-12
-7.80609e-12
4.67003e-12
6.75378e-12
1.93808e-11
5.25595e-12
-1.015e-11
4.46746e-12
-2.56926e-11
1.74087e-11
3.1801e-11
8.00456e-13
2.42253e-11
-2.42859e-11
-2.57636e-11
7.89626e-12
-4.69361e-11
5.65942e-11
5.12706e-11
5.7264e-12
8.73934e-11
5.28066e-11
-3.55274e-10
-2.48458e-10
9.08421e-11
1.0135e-10
-6.83842e-11
-9.49115e-11
-5.87574e-12
-3.40575e-11
5.62863e-11
2.20041e-11
5.96109e-11
3.2251e-11
1.92192e-11
1.69789e-11
-1.06376e-11
-4.16943e-12
-1.33342e-11
-1.64845e-11
-9.34992e-12
-4.14543e-12
-1.85386e-12
1.47727e-11
7.46012e-12
2.40713e-12
1.01889e-11
-3.40067e-11
1.60271e-11
1.02935e-11
1.60692e-11
4.34507e-11
-2.9708e-11
-1.10965e-12
-2.70127e-11
-4.67922e-11
1.69178e-11
4.21584e-11
9.37208e-11
-8.70178e-11
-8.53848e-12
9.83837e-11
-2.65055e-10
-6.65309e-11
-2.49226e-11
-3.78946e-12
3.06947e-11
7.00631e-11
6.86755e-11
8.23473e-11
6.14982e-11
5.35497e-11
4.00444e-11
-5.98163e-12
4.68108e-12
-3.8533e-11
-1.54907e-11
-1.12241e-11
-9.91651e-12
-1.08671e-12
-2.47008e-12
-4.18503e-12
1.26871e-11
6.56745e-12
1.06819e-11
1.09934e-11
-2.31909e-11
1.19525e-11
-2.06949e-11
1.42458e-11
3.94176e-11
-6.85216e-12
2.11452e-11
-4.84324e-11
4.69278e-12
-2.09136e-11
-2.45651e-11
1.33306e-11
2.84044e-11
6.26085e-11
-8.70149e-12
6.2846e-11
-1.16673e-11
4.59678e-11
5.55159e-11
8.21919e-11
6.98145e-11
7.23794e-11
6.53124e-11
5.36568e-11
1.73402e-11
1.3376e-11
-3.80391e-11
-2.60562e-11
-4.90947e-11
-2.70652e-11
-2.77845e-12
-1.74517e-12
6.17858e-12
1.83857e-12
1.13715e-12
1.05141e-11
3.30828e-12
1.4453e-11
1.81099e-12
-1.02439e-11
3.1382e-12
-2.57336e-11
1.0555e-11
7.22147e-12
1.208e-11
3.63134e-11
-1.29436e-11
1.27347e-11
-3.8937e-11
2.75909e-12
-3.24731e-11
2.27356e-11
-1.77404e-11
-7.60381e-12
-1.86983e-11
2.01366e-11
8.05065e-12
3.25455e-11
1.89465e-11
4.40404e-11
1.76396e-11
1.69257e-11
-7.77744e-12
-2.99405e-11
-3.82401e-11
-4.80606e-11
-4.63978e-11
-3.3458e-11
-2.65836e-11
7.18262e-12
3.03352e-12
8.41812e-12
-1.76377e-13
7.64591e-12
1.90562e-12
2.36706e-12
1.40862e-11
-4.89942e-12
3.0263e-12
-1.04994e-11
-1.38515e-11
3.13983e-12
-5.11672e-12
2.29054e-11
1.76291e-11
2.38749e-11
1.56334e-11
-5.77122e-12
1.26336e-12
-2.81499e-11
-1.01317e-11
-3.78834e-11
1.40913e-11
-4.41293e-11
1.84142e-11
-3.69461e-11
1.26245e-11
-2.86041e-11
2.21497e-12
-3.35192e-11
-2.15458e-11
-5.37325e-11
-3.53404e-11
-5.40591e-11
-2.59641e-11
-3.77312e-11
-8.74254e-12
-1.81258e-11
1.41176e-11
4.1843e-12
7.99594e-12
-8.14716e-12
9.58283e-12
-1.07637e-11
1.7815e-12
4.96976e-12
-3.95248e-12
1.55697e-11
-1.21334e-11
7.84396e-12
-3.95395e-12
2.44623e-12
1.72482e-11
1.5926e-12
2.54566e-11
5.47556e-12
1.4635e-11
-3.32914e-12
-7.29639e-12
-2.20387e-12
-1.93495e-11
9.81664e-12
-2.13105e-11
1.30195e-11
-3.20926e-11
-5.11845e-12
-2.87077e-11
-2.19957e-11
-3.58514e-11
-1.55273e-11
-4.25283e-11
-4.62544e-12
-3.26633e-11
3.53966e-12
-1.7346e-11
1.29965e-11
-7.15114e-12
2.00445e-11
4.38631e-12
5.97761e-12
-1.92098e-11
-2.12151e-11
-5.14352e-12
2.14486e-11
2.6093e-11
1.12847e-11
-2.91164e-12
-5.48121e-12
-1.29864e-12
1.19855e-12
1.51078e-11
1.86371e-11
-1.09692e-11
-2.51231e-11
9.99598e-13
2.20887e-11
2.2914e-11
2.50088e-11
2.19977e-11
)
;

boundaryField
{
    sides
    {
        type            calculated;
        value           uniform 0;
    }
    inlet
    {
        type            calculated;
        value           uniform 0;
    }
    outlet
    {
        type            calculated;
        value           nonuniform List<scalar> 
20
(
-4.54308e-11
-1.20743e-12
2.69954e-11
3.29461e-11
1.19453e-11
-2.45079e-11
-3.60348e-11
-2.90144e-11
-7.47089e-12
1.94639e-11
1.04066e-11
-1.30559e-11
-2.42534e-11
-9.51297e-12
1.59786e-11
3.20278e-11
3.44361e-11
2.9341e-11
2.22043e-11
1.50797e-11
)
;
    }
    frontAndBack
    {
        type            empty;
        value           nonuniform List<scalar> 0();
    }
}


// ************************************************************************* //
