/*--------------------------------*- C++ -*----------------------------------*\
  =========                 |
  \\      /  F ield         | OpenFOAM: The Open Source CFD Toolbox
   \\    /   O peration     | Website:  https://openfoam.org
    \\  /    A nd           | Version:  9
     \\/     M anipulation  |
\*---------------------------------------------------------------------------*/
FoamFile
{
    format      ascii;
    class       volVectorField;
    location    "73";
    object      hU;
}
// * * * * * * * * * * * * * * * * * * * * * * * * * * * * * * * * * * * * * //

dimensions      [0 2 -1 0 0 0 0];

internalField   nonuniform List<vector> 
400
(
(0.001 -2.40721e-08 0)
(0.00100004 -7.06026e-08 0)
(0.00100012 -1.13547e-07 0)
(0.00100024 -1.52804e-07 0)
(0.00100039 -1.87466e-07 0)
(0.00100058 -2.16956e-07 0)
(0.00100078 -2.37331e-07 0)
(0.00100099 -2.45694e-07 0)
(0.00100118 -2.3632e-07 0)
(0.00100133 -2.10799e-07 0)
(0.0010014 -1.67585e-07 0)
(0.0010014 -1.28104e-07 0)
(0.00100129 -9.87786e-08 0)
(0.00100111 -9.30469e-08 0)
(0.00100087 -9.96098e-08 0)
(0.00100064 -1.35282e-07 0)
(0.00100044 -1.56166e-07 0)
(0.00100034 -2.00889e-07 0)
(0.00100026 -1.88579e-07 0)
(0.00100033 -2.68337e-07 0)
(0.001 -2.63552e-08 0)
(0.00100005 -7.91042e-08 0)
(0.00100013 -1.29176e-07 0)
(0.00100026 -1.7497e-07 0)
(0.00100042 -2.13646e-07 0)
(0.00100062 -2.40959e-07 0)
(0.00100084 -2.46888e-07 0)
(0.00100108 -2.2132e-07 0)
(0.0010013 -1.54571e-07 0)
(0.00100147 -4.68308e-08 0)
(0.00100156 9.52542e-08 0)
(0.00100154 2.487e-07 0)
(0.00100141 3.90032e-07 0)
(0.00100119 4.7691e-07 0)
(0.00100092 5.05455e-07 0)
(0.00100067 4.52744e-07 0)
(0.00100048 3.79343e-07 0)
(0.00100036 2.57362e-07 0)
(0.00100033 2.05251e-07 0)
(0.00100029 8.12724e-08 0)
(0.001 -5.23996e-08 0)
(0.00100004 -1.59823e-07 0)
(0.00100013 -2.68096e-07 0)
(0.00100026 -3.74413e-07 0)
(0.00100043 -4.73972e-07 0)
(0.00100064 -5.56539e-07 0)
(0.0010009 -6.05062e-07 0)
(0.00100117 -5.98979e-07 0)
(0.00100143 -5.18323e-07 0)
(0.00100164 -3.50637e-07 0)
(0.00100176 -1.08549e-07 0)
(0.00100175 1.64045e-07 0)
(0.00100159 4.02487e-07 0)
(0.0010013 5.20469e-07 0)
(0.00100095 5.00381e-07 0)
(0.00100062 3.55199e-07 0)
(0.00100037 2.04489e-07 0)
(0.00100026 4.66958e-08 0)
(0.00100022 -3.12487e-09 0)
(0.0010003 -1.16962e-07 0)
(0.001 -7.37101e-08 0)
(0.00100004 -2.23542e-07 0)
(0.00100013 -3.76041e-07 0)
(0.00100026 -5.30893e-07 0)
(0.00100045 -6.81208e-07 0)
(0.00100069 -8.11155e-07 0)
(0.001001 -8.90789e-07 0)
(0.00100134 -8.87235e-07 0)
(0.00100171 -7.56187e-07 0)
(0.00100203 -4.74179e-07 0)
(0.00100222 -2.09313e-08 0)
(0.00100219 4.9371e-07 0)
(0.00100192 9.37457e-07 0)
(0.00100146 1.14e-06 0)
(0.00100097 1.0554e-06 0)
(0.00100058 7.44406e-07 0)
(0.00100041 4.25167e-07 0)
(0.00100035 1.70292e-07 0)
(0.0010004 1.01595e-07 0)
(0.00100034 5.18764e-10 0)
(0.001 -9.13543e-08 0)
(0.00100004 -2.79314e-07 0)
(0.00100012 -4.78066e-07 0)
(0.00100025 -6.9448e-07 0)
(0.00100044 -9.21349e-07 0)
(0.00100072 -1.14017e-06 0)
(0.00100109 -1.30028e-06 0)
(0.00100155 -1.33882e-06 0)
(0.00100207 -1.1755e-06 0)
(0.00100257 -7.78604e-07 0)
(0.0010029 -1.68988e-07 0)
(0.00100288 5.79659e-07 0)
(0.00100244 1.23013e-06 0)
(0.00100167 1.51119e-06 0)
(0.00100086 1.37526e-06 0)
(0.00100031 9.65248e-07 0)
(0.00100013 5.82142e-07 0)
(0.00100021 3.14016e-07 0)
(0.00100036 2.61378e-07 0)
(0.00100043 1.68038e-07 0)
(0.001 -1.03798e-07 0)
(0.00100003 -3.19786e-07 0)
(0.00100009 -5.63317e-07 0)
(0.00100019 -8.45482e-07 0)
(0.00100038 -1.17331e-06 0)
(0.00100068 -1.52556e-06 0)
(0.00100115 -1.86025e-06 0)
(0.00100179 -2.05503e-06 0)
(0.00100254 -1.91271e-06 0)
(0.00100326 -1.1987e-06 0)
(0.00100377 7.96292e-08 0)
(0.00100377 1.54189e-06 0)
(0.00100309 2.43214e-06 0)
(0.00100192 2.30301e-06 0)
(0.00100082 1.42933e-06 0)
(0.00100019 4.92367e-07 0)
(0.00100017 1.33546e-08 0)
(0.00100037 -8.59751e-08 0)
(0.00100064 5.95702e-08 0)
(0.00100054 5.01896e-08 0)
(0.001 -1.03089e-07 0)
(0.001 -3.34689e-07 0)
(0.00100002 -6.03303e-07 0)
(0.00100008 -9.63074e-07 0)
(0.00100021 -1.39286e-06 0)
(0.00100048 -1.94659e-06 0)
(0.001001 -2.49006e-06 0)
(0.00100188 -3.08526e-06 0)
(0.00100321 -3.23454e-06 0)
(0.00100473 -2.87906e-06 0)
(0.00100574 -6.79371e-07 0)
(0.00100536 2.55293e-06 0)
(0.00100349 4.82749e-06 0)
(0.00100112 4.735e-06 0)
(0.000999608 3.02707e-06 0)
(0.000999371 1.26337e-06 0)
(0.00100001 4.30594e-07 0)
(0.00100056 3.25435e-07 0)
(0.00100092 5.61054e-07 0)
(0.00100065 5.34176e-07 0)
(0.000999996 -9.30492e-08 0)
(0.000999968 -2.89828e-07 0)
(0.000999907 -5.78418e-07 0)
(0.000999875 -9.57889e-07 0)
(0.000999879 -1.57781e-06 0)
(0.0010001 -2.3452e-06 0)
(0.0010005 -3.40343e-06 0)
(0.00100152 -4.12635e-06 0)
(0.00100308 -4.3748e-06 0)
(0.00100601 -2.55387e-06 0)
(0.00100909 7.64273e-07 0)
(0.00100916 4.2663e-06 0)
(0.00100551 4.71617e-06 0)
(0.00100073 2.78078e-06 0)
(0.000998149 7.34114e-07 0)
(0.000998274 -2.75455e-07 0)
(0.000999798 -2.86447e-07 0)
(0.00100088 -1.1061e-08 0)
(0.00100133 2.10872e-07 0)
(0.00100085 1.0286e-07 0)
(0.000999995 -4.96819e-08 0)
(0.000999915 -2.04651e-07 0)
(0.000999756 -3.87627e-07 0)
(0.000999531 -7.35756e-07 0)
(0.000999288 -1.33868e-06 0)
(0.000999211 -2.48182e-06 0)
(0.000999707 -4.68882e-06 0)
(0.00100139 -8.06993e-06 0)
(0.00100491 -1.32867e-05 0)
(0.00100958 -1.49162e-05 0)
(0.0010119 3.85356e-06 0)
(0.00100892 1.87292e-05 0)
(0.00100221 1.57797e-05 0)
(0.000997566 5.74147e-06 0)
(0.000996885 -3.16123e-07 0)
(0.000998461 -1.26379e-06 0)
(0.00100027 -9.54695e-08 0)
(0.001001 6.33005e-07 0)
(0.00100107 6.50699e-07 0)
(0.00100054 2.43713e-07 0)
(0.000999804 -2.01356e-08 0)
(0.00100017 -6.70973e-08 0)
(0.000999215 -1.51865e-07 0)
(0.000999904 -2.49004e-07 0)
(0.000997522 -5.92438e-07 0)
(0.000998843 -1.13199e-06 0)
(0.000993346 -2.88482e-06 0)
(0.000997531 -5.59327e-06 0)
(0.000991665 -1.15411e-05 0)
(0.000915836 -1.27033e-05 0)
(0.000951465 2.6547e-07 0)
(0.00101022 1.46392e-05 0)
(0.000990951 1.30865e-05 0)
(0.000983973 5.14214e-06 0)
(0.000989584 1.95079e-07 0)
(0.000996279 -7.81261e-07 0)
(0.000999236 -1.12295e-07 0)
(0.000999413 2.47272e-07 0)
(0.000998648 1.73632e-07 0)
(0.000998504 -1.84815e-07 0)
(0.000999804 1.30425e-08 0)
(0.00100017 4.60159e-08 0)
(0.000999215 1.17666e-07 0)
(0.000999903 1.99953e-07 0)
(0.000997519 5.28855e-07 0)
(0.000998838 1.05071e-06 0)
(0.000993339 2.78599e-06 0)
(0.000997519 5.47393e-06 0)
(0.000991651 1.13974e-05 0)
(0.000915808 1.25511e-05 0)
(0.00095143 -4.77182e-07 0)
(0.00101021 -1.49066e-05 0)
(0.000990946 -1.34079e-05 0)
(0.000983965 -5.53568e-06 0)
(0.000989565 -6.48246e-07 0)
(0.000996241 2.4816e-07 0)
(0.000999194 -4.72134e-07 0)
(0.000999367 -1.00206e-06 0)
(0.000998633 -9.88368e-07 0)
(0.000998454 -8.88356e-07 0)
(0.000999995 4.31227e-08 0)
(0.000999915 1.84491e-07 0)
(0.000999755 3.54037e-07 0)
(0.00099953 6.87411e-07 0)
(0.000999286 1.27568e-06 0)
(0.00099921 2.40092e-06 0)
(0.000999702 4.58966e-06 0)
(0.00100139 7.94343e-06 0)
(0.0010049 1.31319e-05 0)
(0.00100958 1.47164e-05 0)
(0.00101188 -4.06359e-06 0)
(0.0010089 -1.90062e-05 0)
(0.00100214 -1.60974e-05 0)
(0.000997477 -6.12413e-06 0)
(0.000996813 -8.55962e-08 0)
(0.000998399 7.74605e-07 0)
(0.00100017 -4.26946e-07 0)
(0.00100085 -1.30412e-06 0)
(0.00100088 -1.37848e-06 0)
(0.00100037 -1.25038e-06 0)
(0.000999996 8.71329e-08 0)
(0.000999968 2.7097e-07 0)
(0.000999905 5.45566e-07 0)
(0.000999871 9.10337e-07 0)
(0.00099987 1.51273e-06 0)
(0.00100008 2.2608e-06 0)
(0.00100048 3.29476e-06 0)
(0.00100149 3.99252e-06 0)
(0.00100303 4.21136e-06 0)
(0.00100594 2.36294e-06 0)
(0.00100902 -9.78078e-07 0)
(0.00100906 -4.54138e-06 0)
(0.00100543 -5.0207e-06 0)
(0.00100066 -3.13071e-06 0)
(0.000998058 -1.13271e-06 0)
(0.000998135 -2.52212e-07 0)
(0.000999622 -3.22428e-07 0)
(0.00100064 -7.40313e-07 0)
(0.00100106 -9.6619e-07 0)
(0.00100055 -1.0736e-06 0)
(0.001 9.75275e-08 0)
(0.001 3.16669e-07 0)
(0.00100002 5.72303e-07 0)
(0.00100007 9.17721e-07 0)
(0.0010002 1.33298e-06 0)
(0.00100047 1.87014e-06 0)
(0.00100097 2.39943e-06 0)
(0.00100185 2.97705e-06 0)
(0.00100317 3.11317e-06 0)
(0.00100469 2.7338e-06 0)
(0.00100568 5.06917e-07 0)
(0.00100527 -2.75162e-06 0)
(0.00100338 -5.0754e-06 0)
(0.00100096 -5.06938e-06 0)
(0.000999411 -3.44892e-06 0)
(0.000999123 -1.79427e-06 0)
(0.000999745 -1.02094e-06 0)
(0.00100025 -1.05824e-06 0)
(0.00100061 -1.3062e-06 0)
(0.00100023 -1.5153e-06 0)
(0.001 9.84587e-08 0)
(0.00100003 3.03582e-07 0)
(0.00100008 5.36137e-07 0)
(0.00100018 8.05975e-07 0)
(0.00100036 1.12135e-06 0)
(0.00100066 1.45878e-06 0)
(0.00100112 1.77842e-06 0)
(0.00100174 1.95251e-06 0)
(0.00100248 1.78506e-06 0)
(0.00100317 1.03683e-06 0)
(0.00100366 -2.78528e-07 0)
(0.00100363 -1.77862e-06 0)
(0.00100292 -2.70715e-06 0)
(0.00100171 -2.62869e-06 0)
(0.00100058 -1.77735e-06 0)
(0.000999905 -8.95401e-07 0)
(0.000999858 -4.27806e-07 0)
(0.00099998 -4.47752e-07 0)
(0.00100022 -6.15697e-07 0)
(0.001 -8.48341e-07 0)
(0.001 8.63206e-08 0)
(0.00100004 2.65062e-07 0)
(0.00100011 4.54809e-07 0)
(0.00100024 6.61681e-07 0)
(0.00100043 8.77856e-07 0)
(0.0010007 1.0845e-06 0)
(0.00100106 1.23012e-06 0)
(0.0010015 1.2536e-06 0)
(0.001002 1.0749e-06 0)
(0.00100248 6.5771e-07 0)
(0.0010028 1.97669e-08 0)
(0.00100274 -7.68504e-07 0)
(0.00100227 -1.44703e-06 0)
(0.00100146 -1.77168e-06 0)
(0.00100062 -1.66705e-06 0)
(0.00100001 -1.34908e-06 0)
(0.000999792 -1.03096e-06 0)
(0.000999764 -9.3737e-07 0)
(0.000999884 -9.44721e-07 0)
(0.000999767 -1.10816e-06 0)
(0.001 6.94895e-08 0)
(0.00100004 2.10539e-07 0)
(0.00100012 3.5451e-07 0)
(0.00100025 5.01269e-07 0)
(0.00100043 6.44134e-07 0)
(0.00100066 7.66435e-07 0)
(0.00100096 8.38393e-07 0)
(0.00100129 8.26521e-07 0)
(0.00100163 6.91436e-07 0)
(0.00100191 4.05936e-07 0)
(0.00100206 -4.78135e-08 0)
(0.001002 -5.75854e-07 0)
(0.00100171 -1.03432e-06 0)
(0.0010012 -1.28045e-06 0)
(0.00100065 -1.2301e-06 0)
(0.00100016 -9.96342e-07 0)
(0.000999913 -7.04123e-07 0)
(0.000999739 -5.57451e-07 0)
(0.000999752 -4.86755e-07 0)
(0.000999561 -5.98036e-07 0)
(0.001 5.08437e-08 0)
(0.00100004 1.50606e-07 0)
(0.00100012 2.46988e-07 0)
(0.00100025 3.38269e-07 0)
(0.00100041 4.21219e-07 0)
(0.00100062 4.84039e-07 0)
(0.00100086 5.10234e-07 0)
(0.00100112 4.74701e-07 0)
(0.00100137 3.61893e-07 0)
(0.00100157 1.5515e-07 0)
(0.00100167 -1.18427e-07 0)
(0.0010016 -4.22299e-07 0)
(0.00100139 -6.82023e-07 0)
(0.00100103 -8.42903e-07 0)
(0.00100064 -8.51739e-07 0)
(0.00100022 -7.73022e-07 0)
(0.000999949 -6.3976e-07 0)
(0.000999689 -5.97176e-07 0)
(0.000999628 -5.60984e-07 0)
(0.000999387 -6.84421e-07 0)
(0.001 3.51412e-08 0)
(0.00100004 1.05281e-07 0)
(0.00100011 1.74589e-07 0)
(0.00100023 2.41097e-07 0)
(0.00100038 3.01539e-07 0)
(0.00100056 3.50068e-07 0)
(0.00100077 3.76761e-07 0)
(0.00100097 3.70483e-07 0)
(0.00100116 3.20817e-07 0)
(0.0010013 2.2408e-07 0)
(0.00100136 8.54232e-08 0)
(0.00100131 -7.14412e-08 0)
(0.00100115 -2.06779e-07 0)
(0.00100086 -2.97915e-07 0)
(0.00100054 -3.13428e-07 0)
(0.00100017 -2.83187e-07 0)
(0.000999901 -2.03675e-07 0)
(0.000999613 -1.68889e-07 0)
(0.000999518 -1.18192e-07 0)
(0.00099925 -1.98108e-07 0)
(0.001 -3.82956e-09 0)
(0.00100004 -9.7121e-09 0)
(0.00100012 -1.29313e-08 0)
(0.00100024 -1.50294e-08 0)
(0.00100039 -1.74404e-08 0)
(0.00100056 -2.28543e-08 0)
(0.00100075 -3.32826e-08 0)
(0.00100094 -5.27671e-08 0)
(0.00100111 -8.13274e-08 0)
(0.00100123 -1.22063e-07 0)
(0.00100128 -1.69987e-07 0)
(0.00100121 -2.31443e-07 0)
(0.00100107 -2.90585e-07 0)
(0.00100081 -3.41376e-07 0)
(0.00100053 -3.59927e-07 0)
(0.00100018 -3.68327e-07 0)
(0.000999946 -3.4262e-07 0)
(0.00099961 -3.52849e-07 0)
(0.000999523 -3.27739e-07 0)
(0.000999131 -4.10493e-07 0)
)
;

boundaryField
{
    sides
    {
        type            slip;
    }
    inlet
    {
        type            fixedValue;
        value           uniform (0.001 0 0);
    }
    outlet
    {
        type            zeroGradient;
    }
    frontAndBack
    {
        type            empty;
    }
}


// ************************************************************************* //
