/*--------------------------------*- C++ -*----------------------------------*\
  =========                 |
  \\      /  F ield         | OpenFOAM: The Open Source CFD Toolbox
   \\    /   O peration     | Website:  https://openfoam.org
    \\  /    A nd           | Version:  9
     \\/     M anipulation  |
\*---------------------------------------------------------------------------*/
FoamFile
{
    format      ascii;
    class       surfaceScalarField;
    location    "73";
    object      phi;
}
// * * * * * * * * * * * * * * * * * * * * * * * * * * * * * * * * * * * * * //

dimensions      [0 4 -1 0 0 0 0];

internalField   nonuniform List<scalar> 
760
(
5.0001e-06
-9.17044e-11
5.00041e-06
-3.06689e-10
5.00092e-06
-5.16203e-10
5.00162e-06
-7.09602e-10
5.00249e-06
-8.75624e-10
5.0035e-06
-1.00455e-09
5.00455e-06
-1.06247e-09
5.00556e-06
-1.01598e-09
5.0064e-06
-8.31246e-10
5.00692e-06
-5.20758e-10
5.00704e-06
-1.19591e-10
5.00665e-06
3.99185e-10
5.00579e-06
8.5494e-10
5.00469e-06
1.10205e-09
5.00352e-06
1.17168e-09
5.00257e-06
9.54877e-10
5.00185e-06
7.16921e-10
5.00161e-06
2.43648e-10
5.0015e-06
1.04953e-10
-3.92401e-10
5.00012e-06
-2.12545e-10
5.00045e-06
-6.36307e-10
5.00098e-06
-1.05163e-09
5.00172e-06
-1.44824e-09
5.00265e-06
-1.80725e-09
5.00374e-06
-2.09771e-09
5.00493e-06
-2.25168e-09
5.00611e-06
-2.19736e-09
5.00713e-06
-1.853e-09
5.00777e-06
-1.16571e-09
5.00774e-06
-8.76179e-11
5.00725e-06
8.91416e-10
5.00626e-06
1.84324e-09
5.00495e-06
2.41443e-09
5.00368e-06
2.44624e-09
5.00277e-06
1.8616e-09
5.00224e-06
1.24805e-09
5.00191e-06
5.7958e-10
5.00165e-06
3.65823e-10
-1.47265e-10
5.00011e-06
-3.2221e-10
5.00043e-06
-9.57919e-10
5.00096e-06
-1.58287e-09
5.00172e-06
-2.20815e-09
5.00272e-06
-2.80849e-09
5.00394e-06
-3.32135e-09
5.00532e-06
-3.63166e-09
5.00672e-06
-3.59952e-09
5.00793e-06
-3.06312e-09
5.00872e-06
-1.95555e-09
5.00893e-06
-3.01623e-10
5.00825e-06
1.5737e-09
5.00687e-06
3.22711e-09
5.00515e-06
4.13194e-09
5.0035e-06
4.09454e-09
5.0023e-06
3.0613e-09
5.00166e-06
1.89399e-09
5.00147e-06
7.67878e-10
5.00144e-06
3.92982e-10
-2.21856e-10
5.0001e-06
-4.23236e-10
5.00041e-06
-1.26815e-09
5.00095e-06
-2.11741e-09
5.00175e-06
-3.01048e-09
5.00285e-06
-3.91526e-09
5.00429e-06
-4.75373e-09
5.00602e-06
-5.35857e-09
5.00795e-06
-5.53628e-09
5.00984e-06
-4.95164e-09
5.01107e-06
-3.19321e-09
5.0112e-06
-4.17823e-10
5.00999e-06
2.77208e-09
5.00764e-06
5.56962e-09
5.00514e-06
6.63723e-09
5.00347e-06
5.76249e-09
5.00269e-06
3.83217e-09
5.00247e-06
2.11452e-09
5.0023e-06
9.36527e-10
5.00199e-06
7.07218e-10
3.40143e-10
5.00008e-06
-5.05396e-10
5.00034e-06
-1.52711e-09
5.00083e-06
-2.61149e-09
5.00163e-06
-3.81384e-09
5.00285e-06
-5.13663e-09
5.00458e-06
-6.46817e-09
5.0068e-06
-7.57965e-09
5.00942e-06
-8.1544e-09
5.01239e-06
-7.91854e-09
5.01479e-06
-5.59283e-09
5.01481e-06
-4.76763e-10
5.01285e-06
4.75547e-09
5.00866e-06
9.73531e-09
5.00459e-06
1.07074e-08
5.00223e-06
8.11735e-09
5.00174e-06
4.32596e-09
5.00204e-06
1.80951e-09
5.00225e-06
7.24767e-10
5.00201e-06
9.51151e-10
6.29644e-10
5.00004e-06
-5.46966e-10
5.0002e-06
-1.68341e-09
5.00054e-06
-2.95343e-09
5.00121e-06
-4.48798e-09
5.00241e-06
-6.33488e-09
5.00452e-06
-8.57765e-09
5.0076e-06
-1.06561e-08
5.01168e-06
-1.22193e-08
5.01552e-06
-1.17863e-08
5.01902e-06
-9.05694e-09
5.02021e-06
-1.71401e-09
5.01601e-06
8.93649e-09
5.00951e-06
1.62539e-08
5.00421e-06
1.5994e-08
5.00217e-06
1.01524e-08
5.00249e-06
3.99948e-09
5.00326e-06
1.03271e-09
5.00339e-06
5.97595e-10
5.00279e-06
1.54676e-09
1.42539e-09
4.99998e-06
-5.27115e-10
4.99994e-06
-1.64125e-09
5.00003e-06
-3.04697e-09
5.00036e-06
-4.81832e-09
5.00122e-06
-7.19383e-09
5.00292e-06
-1.0277e-08
5.00681e-06
-1.45358e-08
5.01392e-06
-1.93466e-08
5.02376e-06
-2.16024e-08
5.03088e-06
-1.62659e-08
5.02878e-06
5.94569e-10
5.01674e-06
2.08959e-08
5.00418e-06
2.87997e-08
4.99873e-06
2.14536e-08
5.00057e-06
8.31011e-09
5.00285e-06
1.72647e-09
5.00371e-06
1.61271e-10
5.00366e-06
6.48263e-10
5.00304e-06
2.16081e-09
1.68357e-09
4.99987e-06
-3.92813e-10
4.99955e-06
-1.32641e-09
4.99912e-06
-2.61903e-09
4.99885e-06
-4.54741e-09
4.99933e-06
-7.66742e-09
5.00036e-06
-1.1306e-08
5.00365e-06
-1.783e-08
5.00983e-06
-2.55187e-08
5.0249e-06
-3.66862e-08
5.05602e-06
-4.75065e-08
5.05009e-06
6.44398e-09
5.02321e-06
4.78698e-08
4.99817e-06
5.38042e-08
4.99349e-06
2.61318e-08
4.99946e-06
2.34003e-09
5.00407e-06
-2.87912e-09
5.00491e-06
-6.74111e-10
5.00372e-06
1.82843e-09
5.0035e-06
2.37655e-09
9.71413e-10
4.99977e-06
-1.60722e-10
4.99915e-06
-7.09008e-10
4.99792e-06
-1.38379e-09
4.99611e-06
-2.73431e-09
4.99402e-06
-5.57747e-09
4.99374e-06
-1.10303e-08
4.99945e-06
-2.35407e-08
5.01713e-06
-4.32057e-08
5.05568e-06
-7.52194e-08
5.06692e-06
-5.86209e-08
5.04968e-06
2.37729e-08
4.99646e-06
1.00991e-07
4.9893e-06
6.10044e-08
4.99591e-06
1.95412e-08
5.00019e-06
-1.93375e-09
5.00293e-06
-5.61619e-09
5.00252e-06
-2.50502e-10
5.00184e-06
2.51038e-09
5.00254e-06
1.67402e-09
8.3093e-11
4.99986e-06
-1.78111e-11
4.9992e-06
-5.28318e-11
4.99791e-06
-8.67431e-11
4.99531e-06
-1.27965e-10
4.9899e-06
-1.69815e-10
4.97908e-06
-2.22471e-10
4.95582e-06
-2.73608e-10
4.91296e-06
-3.29185e-10
4.83812e-06
-4.09241e-10
4.78003e-06
-4.31058e-10
4.80423e-06
-6.44889e-10
4.90603e-06
-7.18204e-10
4.96778e-06
-7.38776e-10
4.98821e-06
-9.03533e-10
4.98744e-06
-1.16144e-09
4.98326e-06
-1.42555e-09
4.98456e-06
-1.55823e-09
4.98891e-06
-1.82933e-09
4.99247e-06
-1.8962e-09
-2.58344e-09
4.99986e-06
1.26714e-10
4.9992e-06
6.03187e-10
4.99791e-06
1.21395e-09
4.9953e-06
2.48315e-09
4.98988e-06
5.24702e-09
4.97905e-06
1.05989e-08
4.95577e-06
2.3012e-08
4.9129e-06
4.25452e-08
4.83804e-06
7.44627e-08
4.77972e-06
5.78361e-08
4.80427e-06
-2.50842e-08
4.906e-06
-1.02482e-07
4.96776e-06
-6.25224e-08
4.98806e-06
-2.12035e-08
4.98735e-06
-4.55755e-10
4.98293e-06
2.99535e-09
4.98443e-06
-3.05091e-09
4.98889e-06
-6.28338e-09
4.99235e-06
-5.35614e-09
-4.98261e-09
4.99977e-06
3.61283e-10
4.99915e-06
1.22635e-09
4.99791e-06
2.44671e-09
4.9961e-06
4.29689e-09
4.99402e-06
7.3289e-09
4.99373e-06
1.08844e-08
4.99943e-06
1.7321e-08
5.01708e-06
2.48966e-08
5.05563e-06
3.591e-08
5.06704e-06
4.6351e-08
5.04948e-06
-6.23359e-09
4.99611e-06
-4.90695e-08
4.98884e-06
-5.52724e-08
4.99569e-06
-2.80515e-08
5.0001e-06
-4.87224e-09
5.00231e-06
7.86001e-10
5.00165e-06
-2.39169e-09
5.0009e-06
-5.5304e-09
5.00168e-06
-6.13439e-09
-5.9507e-09
4.99986e-06
4.97778e-10
4.99955e-06
1.54611e-09
4.99911e-06
2.88268e-09
4.99883e-06
4.57928e-09
4.99928e-06
6.88394e-09
5.00027e-06
9.88989e-09
5.00348e-06
1.41095e-08
5.0096e-06
1.8777e-08
5.02458e-06
2.09208e-08
5.05561e-06
1.54096e-08
5.04975e-06
-1.68307e-09
5.02281e-06
-2.21906e-08
4.99787e-06
-3.03044e-08
4.99316e-06
-2.33351e-08
4.99864e-06
-1.03484e-08
5.00345e-06
-4.02334e-09
5.00373e-06
-2.67162e-09
5.00235e-06
-4.15858e-09
5.00216e-06
-5.94274e-09
-6.53587e-09
4.99998e-06
5.19079e-10
4.99993e-06
1.59624e-09
5e-06
2.80611e-09
5.0003e-06
4.27691e-09
5.00113e-06
6.06199e-09
5.0028e-06
8.22863e-09
5.00668e-06
1.02202e-08
5.01378e-06
1.16772e-08
5.02357e-06
1.1137e-08
5.03071e-06
8.28535e-09
5.02837e-06
6.18702e-10
5.01625e-06
-1.00185e-08
5.0035e-06
-1.75511e-08
4.99778e-06
-1.76014e-08
4.99942e-06
-1.198e-08
5.00161e-06
-6.21758e-09
5.0024e-06
-3.46784e-09
5.00212e-06
-3.8894e-09
5.00119e-06
-5.00703e-09
-5.97766e-09
5.00004e-06
4.79056e-10
5.00018e-06
1.45113e-09
5.0005e-06
2.48549e-09
5.00114e-06
3.63146e-09
5.00232e-06
4.89532e-09
5.0044e-06
6.15748e-09
5.00742e-06
7.1971e-09
5.01139e-06
7.69247e-09
5.01513e-06
7.39805e-09
5.01852e-06
4.88671e-09
5.01957e-06
-3.95605e-10
5.01523e-06
-5.6896e-09
5.00854e-06
-1.08531e-08
5.00312e-06
-1.21625e-08
5.00088e-06
-9.74623e-09
5.00101e-06
-6.35161e-09
5.00154e-06
-4.01688e-09
5.0013e-06
-3.65469e-09
5.00035e-06
-4.0446e-09
-4.97697e-09
5.00008e-06
3.99561e-10
5.00032e-06
1.20426e-09
5.00079e-06
2.01449e-09
5.00156e-06
2.85911e-09
5.00274e-06
3.71436e-09
5.00441e-06
4.50216e-09
5.00656e-06
5.05194e-09
5.0091e-06
5.15311e-09
5.01203e-06
4.45227e-09
5.0144e-06
2.51104e-09
5.01414e-06
-1.37988e-10
5.01208e-06
-3.63224e-09
5.00776e-06
-6.52568e-09
5.00349e-06
-7.90312e-09
5.00093e-06
-7.19088e-09
5.00012e-06
-5.5601e-09
5.00009e-06
-3.99547e-09
4.99986e-06
-3.42632e-09
4.99917e-06
-3.34001e-09
-4.17172e-09
5.0001e-06
3.01246e-10
5.0004e-06
9.05711e-10
5.00091e-06
1.50193e-09
5.00167e-06
2.09066e-09
5.00273e-06
2.65124e-09
5.00412e-06
3.11968e-09
5.00579e-06
3.39025e-09
5.00763e-06
3.31492e-09
5.00933e-06
2.75264e-09
5.01027e-06
1.56548e-09
5.01043e-06
-3.10117e-10
5.00903e-06
-2.24036e-09
5.0065e-06
-4.01074e-09
5.00367e-06
-5.08286e-09
5.00154e-06
-5.06744e-09
5.00033e-06
-4.36618e-09
4.99969e-06
-3.35417e-09
4.99916e-06
-2.8893e-09
4.99845e-06
-2.62249e-09
-3.2147e-09
5.0001e-06
1.99537e-10
5.00041e-06
5.96623e-10
5.00093e-06
9.84771e-10
5.00166e-06
1.35526e-09
5.00261e-06
1.69358e-09
5.00378e-06
1.95616e-09
5.00509e-06
2.07699e-09
5.00645e-06
1.96498e-09
5.00765e-06
1.55935e-09
5.00839e-06
8.25574e-10
5.00821e-06
-1.35494e-10
5.00733e-06
-1.36508e-09
5.0057e-06
-2.38072e-09
5.00368e-06
-3.06961e-09
5.00178e-06
-3.17756e-09
5.00033e-06
-2.90713e-09
4.99931e-06
-2.33061e-09
4.99852e-06
-2.09276e-09
4.99773e-06
-1.82876e-09
-2.27698e-09
5.00008e-06
1.15612e-10
5.00037e-06
3.0588e-10
5.00087e-06
4.93129e-10
5.00155e-06
6.71913e-10
5.00241e-06
8.31344e-10
5.00341e-06
9.51143e-10
5.00448e-06
1.00125e-09
5.0055e-06
9.41494e-10
5.00633e-06
7.3975e-10
5.00679e-06
3.61917e-10
5.00681e-06
-1.43781e-10
5.00608e-06
-6.30927e-10
5.00479e-06
-1.093e-09
5.00315e-06
-1.4302e-09
5.00148e-06
-1.50394e-09
5.00002e-06
-1.44083e-09
4.99888e-06
-1.18775e-09
4.99792e-06
-1.13258e-09
4.99707e-06
-9.73449e-10
-1.42389e-09
5.00011e-06
5.00042e-06
5.00091e-06
5.00159e-06
5.00242e-06
5.00337e-06
5.00436e-06
5.00529e-06
5.00603e-06
5.00639e-06
5.00625e-06
5.00562e-06
5.00453e-06
5.0031e-06
5.0016e-06
5.00017e-06
4.99898e-06
4.99785e-06
4.99687e-06
)
;

boundaryField
{
    sides
    {
        type            calculated;
        value           uniform 0;
    }
    inlet
    {
        type            calculated;
        value           nonuniform List<scalar> 
20
(
-5e-06
-5e-06
-5e-06
-5e-06
-5e-06
-5e-06
-5e-06
-5e-06
-5e-06
-5e-06
-5e-06
-5e-06
-5e-06
-5e-06
-5e-06
-5e-06
-5e-06
-5e-06
-5e-06
-5e-06
)
;
    }
    outlet
    {
        type            calculated;
        value           nonuniform List<scalar> 
20
(
5.0019e-06
5.00141e-06
5.00152e-06
5.00143e-06
5.00172e-06
5.00199e-06
5.00278e-06
5.00421e-06
5.00343e-06
4.99513e-06
4.99474e-06
5.00264e-06
5.00274e-06
5.00063e-06
4.99935e-06
4.99837e-06
4.99749e-06
4.99679e-06
4.99621e-06
4.99544e-06
)
;
    }
    frontAndBack
    {
        type            empty;
        value           nonuniform List<scalar> 0();
    }
}


// ************************************************************************* //
