/*--------------------------------*- C++ -*----------------------------------*\
  =========                 |
  \\      /  F ield         | OpenFOAM: The Open Source CFD Toolbox
   \\    /   O peration     | Website:  https://openfoam.org
    \\  /    A nd           | Version:  9
     \\/     M anipulation  |
\*---------------------------------------------------------------------------*/
FoamFile
{
    format      ascii;
    class       volVectorField;
    location    "73";
    object      U;
}
// * * * * * * * * * * * * * * * * * * * * * * * * * * * * * * * * * * * * * //

dimensions      [0 1 -1 0 0 0 0];

internalField   nonuniform List<vector> 
400
(
(0.0999964 -2.40711e-06 0)
(0.100001 -7.06002e-06 0)
(0.10001 -1.13544e-05 0)
(0.100023 -1.52802e-05 0)
(0.10004 -1.87467e-05 0)
(0.100061 -2.16962e-05 0)
(0.100083 -2.37343e-05 0)
(0.100107 -2.45713e-05 0)
(0.100128 -2.36342e-05 0)
(0.100144 -2.10823e-05 0)
(0.100152 -1.67605e-05 0)
(0.100152 -1.28119e-05 0)
(0.10014 -9.87895e-06 0)
(0.10012 -9.30551e-06 0)
(0.100093 -9.96159e-06 0)
(0.100068 -1.35287e-05 0)
(0.100045 -1.56168e-05 0)
(0.100034 -2.00889e-05 0)
(0.100025 -1.88578e-05 0)
(0.100033 -2.68336e-05 0)
(0.099997 -2.63544e-06 0)
(0.100002 -7.9102e-06 0)
(0.100011 -1.29173e-05 0)
(0.100025 -1.74969e-05 0)
(0.100044 -2.13649e-05 0)
(0.100066 -2.40968e-05 0)
(0.100091 -2.46904e-05 0)
(0.100117 -2.2134e-05 0)
(0.100141 -1.54588e-05 0)
(0.100161 -4.68371e-06 0)
(0.100171 9.52681e-06 0)
(0.100168 2.48735e-05 0)
(0.100154 3.90082e-05 0)
(0.100129 4.7696e-05 0)
(0.1001 5.05492e-05 0)
(0.100071 4.52763e-05 0)
(0.10005 3.79351e-05 0)
(0.100037 2.57364e-05 0)
(0.100033 2.05252e-05 0)
(0.100029 8.12725e-06 0)
(0.0999968 -5.23978e-06 0)
(0.100002 -1.59818e-05 0)
(0.100011 -2.68091e-05 0)
(0.100025 -3.74411e-05 0)
(0.100044 -4.73979e-05 0)
(0.100068 -5.56561e-05 0)
(0.100096 -6.05103e-05 0)
(0.100127 -5.99038e-05 0)
(0.100156 -5.18389e-05 0)
(0.10018 -3.50691e-05 0)
(0.100193 -1.08567e-05 0)
(0.100192 1.64073e-05 0)
(0.100174 4.02547e-05 0)
(0.100142 5.20529e-05 0)
(0.100102 5.00418e-05 0)
(0.100066 3.55211e-05 0)
(0.100037 2.0449e-05 0)
(0.100025 4.66955e-06 0)
(0.100021 -3.12484e-07 0)
(0.100029 -1.16962e-05 0)
(0.0999962 -7.37072e-06 0)
(0.100001 -2.23534e-05 0)
(0.10001 -3.76032e-05 0)
(0.100025 -5.30887e-05 0)
(0.100046 -6.81215e-05 0)
(0.100073 -8.11186e-05 0)
(0.100107 -8.90854e-05 0)
(0.100146 -8.87335e-05 0)
(0.100186 -7.56304e-05 0)
(0.100222 -4.7427e-05 0)
(0.100243 -2.09358e-06 0)
(0.10024 4.93814e-05 0)
(0.10021 9.37626e-05 0)
(0.100159 0.000114014 0)
(0.100104 0.000105547 0)
(0.100061 7.44425e-05 0)
(0.100041 4.2517e-05 0)
(0.100035 1.70292e-05 0)
(0.10004 1.01595e-05 0)
(0.100035 5.18766e-08 0)
(0.0999952 -9.13498e-06 0)
(0.0999994 -2.79301e-05 0)
(0.100008 -4.78049e-05 0)
(0.100023 -6.94465e-05 0)
(0.100044 -9.2135e-05 0)
(0.100076 -0.000114021 0)
(0.100117 -0.000130038 0)
(0.100168 -0.000133899 0)
(0.100225 -0.000117572 0)
(0.100281 -7.78793e-05 0)
(0.100318 -1.69036e-05 0)
(0.100316 5.79822e-05 0)
(0.100267 0.000123042 0)
(0.100181 0.000151141 0)
(0.100091 0.000137532 0)
(0.100029 9.65232e-05 0)
(0.100009 5.8212e-05 0)
(0.100019 3.14008e-05 0)
(0.100036 2.61376e-05 0)
(0.100043 1.68039e-05 0)
(0.0999939 -1.03791e-05 0)
(0.0999968 -3.19767e-05 0)
(0.100003 -5.63288e-05 0)
(0.100015 -8.45447e-05 0)
(0.100036 -0.000117328 0)
(0.10007 -0.000152558 0)
(0.100122 -0.000186038 0)
(0.100193 -0.000205532 0)
(0.100277 -0.000191314 0)
(0.100357 -0.000119907 0)
(0.100414 7.96584e-06 0)
(0.100415 0.000154247 0)
(0.100339 0.000243286 0)
(0.100208 0.000230338 0)
(0.100084 0.000142937 0)
(0.100015 4.92346e-05 0)
(0.100012 1.3354e-06 0)
(0.100035 -8.59736e-06 0)
(0.100064 5.95707e-06 0)
(0.100055 5.019e-06 0)
(0.0999923 -1.03081e-05 0)
(0.0999927 -3.34664e-05 0)
(0.0999947 -6.03257e-05 0)
(0.100001 -9.63007e-05 0)
(0.100016 -0.000139279 0)
(0.100046 -0.000194654 0)
(0.100103 -0.000249015 0)
(0.100202 -0.000308567 0)
(0.10035 -0.000323546 0)
(0.100519 -0.000288039 0)
(0.100632 -6.79766e-05 0)
(0.100591 0.000255432 0)
(0.100383 0.000482909 0)
(0.100117 0.000473524 0)
(0.0999478 0.000302668 0)
(0.0999219 0.000126317 0)
(0.0999926 4.3056e-05 0)
(0.100056 3.25434e-05 0)
(0.100095 5.61069e-05 0)
(0.100067 5.34183e-05 0)
(0.0999904 -9.30406e-06 0)
(0.0999873 -2.898e-05 0)
(0.0999805 -5.78359e-05 0)
(0.0999768 -9.57786e-05 0)
(0.0999774 -0.000157765 0)
(0.100001 -0.0002345 0)
(0.100047 -0.000340332 0)
(0.10016 -0.000412665 0)
(0.100335 -0.000437595 0)
(0.100658 -0.000255531 0)
(0.101006 7.65009e-05 0)
(0.101014 0.000427045 0)
(0.100606 0.000471877 0)
(0.100071 0.000278073 0)
(0.0997819 7.33871e-05 0)
(0.0997968 -2.75371e-05 0)
(0.0999672 -2.8641e-05 0)
(0.100089 -1.10612e-06 0)
(0.100138 2.10882e-05 0)
(0.100087 1.02862e-05 0)
(0.0999894 -4.96768e-06 0)
(0.0999804 -2.04628e-05 0)
(0.0999627 -3.87577e-05 0)
(0.0999377 -7.35642e-05 0)
(0.0999106 -0.000133844 0)
(0.0999019 -0.000248135 0)
(0.0999567 -0.000468817 0)
(0.100144 -0.000807033 0)
(0.100536 -0.00132927 0)
(0.101062 -0.00149316 0)
(0.101323 0.000385861 0)
(0.100996 0.00187485 0)
(0.100241 0.00157828 0)
(0.09972 0.000573936 0)
(0.0996445 -3.15983e-05 0)
(0.099822 -0.000126349 0)
(0.100024 -9.54667e-06 0)
(0.100107 6.33047e-05 0)
(0.100113 6.50735e-05 0)
(0.100055 2.43716e-05 0)
(0.0999702 -2.01336e-06 0)
(0.100006 -6.70895e-06 0)
(0.0999076 -1.51843e-05 0)
(0.0999716 -2.48957e-05 0)
(0.0997258 -5.92282e-05 0)
(0.099844 -0.000113154 0)
(0.0992764 -0.000288313 0)
(0.0996751 -0.00055889 0)
(0.0991181 -0.00115355 0)
(0.102004 -0.00141487 0)
(0.106281 2.96536e-05 0)
(0.101267 0.00146747 0)
(0.0990078 0.0013075 0)
(0.0982224 0.0005133 0)
(0.0988552 1.94876e-05 0)
(0.099605 -7.81081e-05 0)
(0.0999351 -1.12308e-05 0)
(0.0999522 2.47299e-05 0)
(0.099867 1.73636e-05 0)
(0.0998489 -1.84812e-05 0)
(0.0999709 1.30413e-06 0)
(0.100006 4.60109e-06 0)
(0.0999082 1.17651e-05 0)
(0.0999722 1.99917e-05 0)
(0.0997262 5.28719e-05 0)
(0.099844 0.00010503 0)
(0.0992762 0.000278437 0)
(0.0996745 0.000546968 0)
(0.0991171 0.00113919 0)
(0.102001 0.00139792 0)
(0.106276 -5.33021e-05 0)
(0.101265 -0.00149428 0)
(0.0990079 -0.00133962 0)
(0.0982222 -0.000552587 0)
(0.0988537 -6.47572e-05 0)
(0.0996014 2.48104e-05 0)
(0.099931 -4.72189e-05 0)
(0.0999478 -0.000100217 0)
(0.0998658 -9.88393e-05 0)
(0.0998441 -8.88344e-05 0)
(0.0999914 4.31192e-06 0)
(0.0999825 1.84474e-05 0)
(0.0999647 3.53999e-05 0)
(0.0999396 6.87318e-05 0)
(0.0999124 0.000127547 0)
(0.0999037 0.00024005 0)
(0.0999582 0.00045891 0)
(0.100146 0.000794399 0)
(0.100537 0.00131381 0)
(0.101063 0.00147318 0)
(0.101325 -0.000406909 0)
(0.100995 -0.0019026 0)
(0.100235 -0.00161008 0)
(0.0997121 -0.000612194 0)
(0.0996385 -8.55595e-06 0)
(0.0998172 7.74428e-05 0)
(0.100015 -4.26938e-05 0)
(0.100092 -0.000130421 0)
(0.100093 -0.000137856 0)
(0.100038 -0.000125039 0)
(0.0999938 8.71278e-06 0)
(0.0999906 2.70953e-05 0)
(0.0999837 5.45529e-05 0)
(0.0999797 9.10269e-05 0)
(0.0999798 0.000151262 0)
(0.100003 0.000226069 0)
(0.100048 0.000329475 0)
(0.100159 0.000399292 0)
(0.100332 0.000421258 0)
(0.100654 0.000236435 0)
(0.101 -9.79021e-05 0)
(0.101007 -0.000454594 0)
(0.100601 -0.00050236 0)
(0.100067 -0.000313072 0)
(0.0997751 -0.000113236 0)
(0.0997847 -2.5214e-05 0)
(0.099951 -3.22392e-05 0)
(0.100066 -7.4033e-05 0)
(0.100111 -9.66241e-05 0)
(0.100057 -0.000107362 0)
(0.099997 9.75245e-06 0)
(0.0999973 3.16659e-05 0)
(0.0999991 5.72287e-05 0)
(0.100005 9.177e-05 0)
(0.100019 0.000133297 0)
(0.100049 0.000187018 0)
(0.100105 0.000239961 0)
(0.100203 0.000297758 0)
(0.10035 0.000311419 0)
(0.100519 0.000273518 0)
(0.100631 5.07235e-05 0)
(0.100586 -0.000275324 0)
(0.100375 -0.000507726 0)
(0.100105 -0.000506979 0)
(0.0999305 -0.000344855 0)
(0.099899 -0.000179403 0)
(0.0999682 -0.000102087 0)
(0.100026 -0.000105825 0)
(0.100065 -0.000130625 0)
(0.100025 -0.000151533 0)
(0.1 9.84586e-06 0)
(0.100003 3.03582e-05 0)
(0.100009 5.36141e-05 0)
(0.10002 8.05991e-05 0)
(0.10004 0.00011214 0)
(0.100073 0.000145888 0)
(0.100124 0.000177864 0)
(0.100194 0.000195289 0)
(0.100276 0.000178556 0)
(0.100353 0.000103721 0)
(0.100407 -2.78643e-05 0)
(0.100405 -0.000177936 0)
(0.100326 -0.000270806 0)
(0.10019 -0.000262921 0)
(0.100064 -0.000177745 0)
(0.0999891 -8.95388e-05 0)
(0.0999835 -4.27796e-05 0)
(0.0999981 -4.47753e-05 0)
(0.100023 -6.15709e-05 0)
(0.100002 -8.48351e-05 0)
(0.100003 8.63228e-06 0)
(0.100007 2.6507e-05 0)
(0.100015 4.54827e-05 0)
(0.100029 6.61716e-05 0)
(0.10005 8.7792e-05 0)
(0.10008 0.000108461 0)
(0.10012 0.00012303 0)
(0.10017 0.000125385 0)
(0.100225 0.000107517 0)
(0.100279 6.57913e-05 0)
(0.100315 1.97737e-06 0)
(0.100309 -7.68766e-05 0)
(0.100256 -0.000144744 0)
(0.100166 -0.000177202 0)
(0.100072 -0.00016672 0)
(0.100003 -0.000134911 0)
(0.0999791 -0.000103096 0)
(0.0999765 -9.37372e-05 0)
(0.0999893 -9.4473e-05 0)
(0.0999774 -0.000110817 0)
(0.100005 6.94929e-06 0)
(0.10001 2.1055e-05 0)
(0.100019 3.54532e-05 0)
(0.100033 5.01308e-05 0)
(0.100053 6.44197e-05 0)
(0.100079 7.6653e-05 0)
(0.100111 8.38525e-05 0)
(0.100148 8.26683e-05 0)
(0.100186 6.91599e-05 0)
(0.100218 4.06045e-05 0)
(0.100235 -4.78271e-06 0)
(0.100228 -5.76014e-05 0)
(0.100195 -0.000103457 0)
(0.100139 -0.000128069 0)
(0.100077 -0.000123025 0)
(0.100023 -9.96411e-05 0)
(0.099995 -7.04149e-05 0)
(0.0999762 -5.57464e-05 0)
(0.0999768 -4.86763e-05 0)
(0.0999569 -5.98041e-05 0)
(0.100007 5.08472e-06 0)
(0.100012 1.50617e-05 0)
(0.100021 2.47008e-05 0)
(0.100034 3.38302e-05 0)
(0.100053 4.21268e-05 0)
(0.100076 4.84106e-05 0)
(0.100103 5.10319e-05 0)
(0.100131 4.74794e-05 0)
(0.100159 3.61975e-05 0)
(0.100182 1.55188e-05 0)
(0.100193 -1.18458e-05 0)
(0.100186 -4.22406e-05 0)
(0.100162 -6.82179e-05 0)
(0.100122 -8.43062e-05 0)
(0.100078 -8.5186e-05 0)
(0.100032 -7.73096e-05 0)
(0.100001 -6.39799e-05 0)
(0.0999726 -5.97199e-05 0)
(0.0999649 -5.60996e-05 0)
(0.0999396 -6.84426e-05 0)
(0.100009 3.51442e-06 0)
(0.100013 1.0529e-05 0)
(0.100021 1.74606e-05 0)
(0.100034 2.41124e-05 0)
(0.100051 3.01577e-05 0)
(0.100071 3.5012e-05 0)
(0.100094 3.76825e-05 0)
(0.100117 3.70556e-05 0)
(0.100138 3.20887e-05 0)
(0.100153 2.24132e-05 0)
(0.10016 8.54437e-06 0)
(0.100155 -7.1458e-06 0)
(0.100137 -2.06824e-05 0)
(0.100105 -2.9797e-05 0)
(0.100068 -3.13473e-05 0)
(0.100027 -2.83216e-05 0)
(0.0999971 -2.0369e-05 0)
(0.0999658 -1.68897e-05 0)
(0.0999542 -1.18195e-05 0)
(0.0999258 -1.9811e-05 0)
(0.10001 -3.82994e-07 0)
(0.100014 -9.71309e-07 0)
(0.100023 -1.29328e-06 0)
(0.100036 -1.50313e-06 0)
(0.100053 -1.74429e-06 0)
(0.100072 -2.2858e-06 0)
(0.100094 -3.32887e-06 0)
(0.100115 -5.2778e-06 0)
(0.100134 -8.13456e-06 0)
(0.100147 -1.22093e-05 0)
(0.100152 -1.70028e-05 0)
(0.100145 -2.31498e-05 0)
(0.100129 -2.90649e-05 0)
(0.1001 -3.41441e-05 0)
(0.100069 -3.59984e-05 0)
(0.10003 -3.68371e-05 0)
(0.100003 -3.4265e-05 0)
(0.099967 -3.5287e-05 0)
(0.0999557 -3.2775e-05 0)
(0.0999144 -4.10498e-05 0)
)
;

boundaryField
{
    sides
    {
        type            calculated;
        value           nonuniform List<vector> 
40
(
(0.10001 0 0)
(0.100014 0 0)
(0.100023 0 0)
(0.100036 0 0)
(0.100053 0 0)
(0.100072 0 0)
(0.100094 0 0)
(0.100115 0 0)
(0.100134 0 0)
(0.100147 0 0)
(0.100152 0 0)
(0.100145 0 0)
(0.100129 0 0)
(0.1001 0 0)
(0.100069 0 0)
(0.10003 0 0)
(0.100003 0 0)
(0.099967 0 0)
(0.0999557 0 0)
(0.0999144 0 0)
(0.0999964 0 0)
(0.100001 0 0)
(0.10001 0 0)
(0.100023 0 0)
(0.10004 0 0)
(0.100061 0 0)
(0.100083 0 0)
(0.100107 0 0)
(0.100128 0 0)
(0.100144 0 0)
(0.100152 0 0)
(0.100152 0 0)
(0.10014 0 0)
(0.10012 0 0)
(0.100093 0 0)
(0.100068 0 0)
(0.100045 0 0)
(0.100034 0 0)
(0.100025 0 0)
(0.100033 0 0)
)
;
    }
    inlet
    {
        type            calculated;
        value           nonuniform List<vector> 
20
(
(0.0999962 0 0)
(0.0999967 0 0)
(0.0999966 0 0)
(0.099996 0 0)
(0.0999951 0 0)
(0.0999938 0 0)
(0.0999923 0 0)
(0.0999908 0 0)
(0.0999898 0 0)
(0.0999898 0 0)
(0.0999904 0 0)
(0.0999918 0 0)
(0.0999942 0 0)
(0.099997 0 0)
(0.0999998 0 0)
(0.100003 0 0)
(0.100005 0 0)
(0.100007 0 0)
(0.100008 0 0)
(0.10001 0 0)
)
;
    }
    outlet
    {
        type            calculated;
        value           nonuniform List<vector> 
20
(
(0.100033 -2.68337e-05 0)
(0.100029 8.12724e-06 0)
(0.10003 -1.16962e-05 0)
(0.100034 5.18764e-08 0)
(0.100043 1.68038e-05 0)
(0.100054 5.01896e-06 0)
(0.100065 5.34176e-05 0)
(0.100085 1.0286e-05 0)
(0.100054 2.43713e-05 0)
(0.0998504 -1.84815e-05 0)
(0.0998454 -8.88356e-05 0)
(0.100037 -0.000125038 0)
(0.100055 -0.00010736 0)
(0.100023 -0.00015153 0)
(0.1 -8.48341e-05 0)
(0.0999767 -0.000110816 0)
(0.0999561 -5.98036e-05 0)
(0.0999387 -6.84421e-05 0)
(0.099925 -1.98108e-05 0)
(0.0999131 -4.10493e-05 0)
)
;
    }
    frontAndBack
    {
        type            empty;
    }
}


// ************************************************************************* //
