/*--------------------------------*- C++ -*----------------------------------*\
  =========                 |
  \\      /  F ield         | OpenFOAM: The Open Source CFD Toolbox
   \\    /   O peration     | Website:  https://openfoam.org
    \\  /    A nd           | Version:  9
     \\/     M anipulation  |
\*---------------------------------------------------------------------------*/
FoamFile
{
    format      ascii;
    class       volVectorField;
    location    "64";
    object      ddtCorrDdt0(hU);
}
// * * * * * * * * * * * * * * * * * * * * * * * * * * * * * * * * * * * * * //

dimensions      [0 2 -2 0 0 0 0];

internalField   nonuniform List<vector> 
400
(
(9.02868e-10 1.0865e-09 0)
(1.04313e-09 6.93299e-10 0)
(-1.99958e-09 7.30698e-10 0)
(-2.54573e-09 5.17656e-10 0)
(1.88384e-09 1.90831e-10 0)
(5.70512e-09 9.88916e-10 0)
(6.4437e-09 1.25834e-09 0)
(1.37147e-09 1.83787e-09 0)
(-3.31464e-09 2.37056e-09 0)
(-3.55637e-09 1.73008e-09 0)
(-1.18643e-09 2.15041e-09 0)
(-1.2219e-09 1.71854e-09 0)
(-2.54835e-09 -1.68096e-10 0)
(-5.24256e-09 9.99558e-10 0)
(-4.67239e-09 1.93643e-09 0)
(-4.60463e-10 1.20748e-09 0)
(9.52878e-10 -3.51007e-10 0)
(-4.80407e-10 -7.631e-10 0)
(-1.25595e-09 -7.74453e-10 0)
(-5.44485e-10 -4.96976e-10 0)
(-1.19706e-10 1.48395e-09 0)
(6.08371e-10 1.55347e-09 0)
(-1.45732e-09 2.26928e-09 0)
(-1.62094e-09 1.78168e-09 0)
(8.69319e-10 1.11864e-09 0)
(4.50812e-09 2.66099e-09 0)
(5.05346e-09 3.40341e-09 0)
(2.08829e-09 6.18732e-09 0)
(-1.52533e-09 3.42027e-09 0)
(-3.63348e-09 4.26094e-09 0)
(1.00845e-09 -6.59886e-10 0)
(-4.03981e-09 2.84263e-09 0)
(-1.9645e-09 5.85874e-10 0)
(-1.03852e-09 3.0857e-10 0)
(-2.32304e-09 3.89201e-09 0)
(-1.9121e-09 3.05646e-09 0)
(-2.01888e-09 6.90073e-10 0)
(-1.72447e-09 2.46016e-09 0)
(-6.35738e-10 2.41323e-09 0)
(1.57858e-09 -2.76849e-10 0)
(-3.27085e-10 4.63203e-10 0)
(6.67511e-10 3.23479e-09 0)
(3.96047e-10 3.93206e-09 0)
(-2.06392e-10 2.21781e-09 0)
(1.32254e-10 1.00582e-09 0)
(2.1311e-09 2.84421e-09 0)
(4.31861e-09 6.39772e-09 0)
(3.42767e-10 8.29771e-09 0)
(1.39378e-09 1.42277e-10 0)
(-4.91766e-09 1.77895e-09 0)
(-5.4987e-10 -8.9515e-10 0)
(2.86448e-09 -3.0418e-09 0)
(-5.34717e-09 4.70822e-09 0)
(3.31669e-09 -6.59246e-10 0)
(4.87888e-09 -2.49756e-10 0)
(-6.80092e-10 1.05668e-09 0)
(-2.04462e-09 1.34431e-09 0)
(-1.22721e-09 4.41527e-09 0)
(-1.98447e-09 4.61137e-09 0)
(1.51635e-12 7.76433e-10 0)
(-1.09375e-10 6.13539e-10 0)
(1.52147e-09 5.43708e-09 0)
(1.76642e-09 5.31859e-09 0)
(7.30198e-10 1.1691e-09 0)
(-4.69831e-10 -8.26678e-10 0)
(1.72435e-09 2.1918e-09 0)
(1.36961e-09 9.79371e-09 0)
(1.20914e-09 8.07979e-10 0)
(-3.68044e-09 4.87488e-09 0)
(6.96617e-09 -8.77147e-09 0)
(-1.33146e-08 5.44115e-09 0)
(6.36774e-09 -1.42061e-09 0)
(-2.51643e-11 2.33048e-09 0)
(-5.58412e-09 6.89027e-09 0)
(8.27221e-09 -1.81526e-09 0)
(6.32449e-09 -4.85669e-09 0)
(-9.77596e-10 -3.88056e-10 0)
(-2.85182e-09 6.61585e-09 0)
(-1.29838e-09 7.578e-09 0)
(1.02876e-09 1.74277e-09 0)
(-1.7471e-11 2.15271e-09 0)
(1.87356e-09 6.24614e-09 0)
(2.40106e-09 5.32261e-09 0)
(1.03537e-09 9.06367e-12 0)
(2.14931e-10 -2.57857e-09 0)
(1.41527e-09 3.56957e-09 0)
(-2.43799e-09 4.74277e-09 0)
(3.11073e-09 2.39547e-09 0)
(-6.01382e-09 3.23666e-09 0)
(1.32876e-09 5.42037e-10 0)
(1.23196e-08 -8.82098e-09 0)
(-1.66768e-08 1.44385e-08 0)
(8.77107e-09 2.88916e-09 0)
(-3.32163e-10 5.34869e-09 0)
(-5.47648e-09 2.48699e-09 0)
(5.46882e-09 -5.05699e-09 0)
(6.27307e-09 -2.05991e-09 0)
(5.62065e-10 8.02799e-09 0)
(-3.92656e-09 1.03271e-08 0)
(-3.71494e-09 2.6215e-09 0)
(-6.53443e-10 3.55001e-09 0)
(9.82489e-10 5.99412e-09 0)
(1.92538e-09 4.38835e-09 0)
(1.35041e-09 -7.82504e-10 0)
(1.82124e-09 -2.00434e-09 0)
(-1.03272e-09 2.11406e-09 0)
(8.9425e-10 2.72525e-09 0)
(-5.91391e-09 8.90575e-09 0)
(1.20553e-08 -2.19743e-09 0)
(-2.12412e-08 9.40089e-09 0)
(1.65644e-08 -2.06957e-08 0)
(9.70464e-09 -1.47724e-08 0)
(-1.89076e-08 1.34937e-08 0)
(3.44282e-09 2.06849e-09 0)
(1.68906e-09 -1.38976e-09 0)
(-7.92903e-11 -3.37592e-09 0)
(4.49973e-09 -1.65456e-09 0)
(2.9346e-09 5.6612e-09 0)
(-2.05104e-09 8.09612e-09 0)
(-5.13225e-09 2.23714e-09 0)
(-1.60908e-09 2.99907e-09 0)
(-5.39206e-10 4.86073e-09 0)
(1.16503e-09 3.53678e-09 0)
(2.15423e-09 -4.38039e-11 0)
(1.73078e-09 -8.04408e-10 0)
(9.28959e-10 1.55253e-09 0)
(-2.58089e-09 6.44597e-09 0)
(1.03848e-09 5.94939e-09 0)
(-5.34982e-09 7.06768e-09 0)
(1.86325e-08 -3.96147e-08 0)
(-1.00847e-07 1.15153e-07 0)
(4.63043e-08 -4.32115e-08 0)
(2.57324e-08 -6.54631e-09 0)
(-1.3106e-08 4.4829e-09 0)
(-1.51931e-09 -3.71281e-09 0)
(4.14305e-09 -5.3324e-09 0)
(5.44198e-09 -1.67367e-09 0)
(3.87576e-09 4.30942e-09 0)
(-1.46511e-09 5.75533e-09 0)
(-6.10132e-09 1.0429e-09 0)
(-2.03159e-09 8.27073e-10 0)
(-1.29726e-09 2.93264e-09 0)
(1.0996e-09 2.79006e-09 0)
(2.61859e-09 1.78875e-09 0)
(3.0589e-09 1.29079e-09 0)
(3.71756e-10 2.51937e-09 0)
(-8.29463e-10 6.99083e-09 0)
(5.84043e-11 4.38337e-09 0)
(-2.81561e-08 -5.4833e-09 0)
(1.36788e-07 2.60872e-08 0)
(9.61247e-08 -9.91512e-08 0)
(-1.73031e-07 6.13758e-08 0)
(4.81241e-08 1.16878e-08 0)
(1.34043e-08 -1.08102e-09 0)
(-2.97391e-09 -3.62874e-09 0)
(3.28423e-09 -6.17394e-09 0)
(6.47592e-09 -3.72074e-09 0)
(4.29393e-09 -4.32636e-10 0)
(-2.36901e-10 1.08004e-09 0)
(-5.20605e-09 -3.38665e-11 0)
(-1.48803e-09 -1.08062e-09 0)
(-1.10834e-09 9.51516e-10 0)
(2.06697e-09 2.06696e-09 0)
(3.66456e-09 3.17896e-09 0)
(2.69991e-09 3.65898e-09 0)
(1.25145e-09 1.14392e-09 0)
(-2.66139e-09 1.16289e-09 0)
(-5.21849e-09 2.38273e-09 0)
(2.89039e-08 -9.07827e-10 0)
(-1.39535e-07 3.11592e-08 0)
(-9.39722e-08 -8.5501e-08 0)
(1.7116e-07 6.15509e-08 0)
(-6.62388e-08 1.60303e-08 0)
(-2.66007e-08 6.79954e-09 0)
(-2.61083e-09 3.22287e-09 0)
(4.8285e-09 -1.0663e-09 0)
(4.0446e-09 -5.05695e-09 0)
(3.03855e-09 -4.62696e-09 0)
(1.6411e-09 -3.22262e-09 0)
(-3.41299e-09 -2.34888e-09 0)
(-5.97005e-10 -1.61539e-09 0)
(-1.24528e-10 -1.04991e-10 0)
(3.1885e-09 1.18177e-09 0)
(4.58038e-09 3.22543e-09 0)
(1.53897e-09 3.47945e-09 0)
(-2.06778e-09 -8.16311e-10 0)
(-2.00111e-09 -5.04699e-09 0)
(4.45726e-10 2.32266e-10 0)
(4.08686e-09 2.04698e-08 0)
(-9.3772e-09 -2.93719e-08 0)
(8.29955e-08 1.18851e-07 0)
(-5.40906e-08 -4.10659e-08 0)
(-2.86489e-08 -4.40454e-09 0)
(-2.1572e-09 1.52004e-08 0)
(-8.66568e-09 1.22629e-08 0)
(-7.08487e-09 6.5285e-09 0)
(-1.16404e-09 -1.15092e-09 0)
(5.81548e-10 -4.09249e-09 0)
(2.67025e-09 -3.44818e-09 0)
(4.87225e-09 -1.91866e-09 0)
(2.0532e-10 -9.10817e-10 0)
(6.96099e-10 -3.46339e-10 0)
(3.90856e-09 2.48882e-10 0)
(4.59871e-09 7.38961e-10 0)
(1.12764e-10 1.15036e-09 0)
(-3.69295e-09 -1.00777e-09 0)
(-2.81526e-09 -4.11914e-09 0)
(1.10609e-08 6.97921e-10 0)
(-7.43762e-09 -9.44966e-10 0)
(1.88638e-08 2.14469e-08 0)
(1.07002e-08 -1.94882e-08 0)
(-2.30125e-08 1.01787e-08 0)
(2.60211e-08 9.30724e-09 0)
(-6.97036e-10 1.23629e-09 0)
(-9.05849e-09 5.25862e-09 0)
(-1.30228e-08 4.6262e-09 0)
(-1.1395e-08 2.22858e-09 0)
(-4.22963e-09 -5.16531e-10 0)
(3.38375e-09 2.69337e-10 0)
(5.34717e-09 1.19798e-09 0)
(4.95254e-10 2.48485e-10 0)
(1.11231e-09 -5.47905e-10 0)
(2.95311e-09 -1.16927e-09 0)
(3.62242e-09 -2.21845e-09 0)
(2.02061e-10 -2.95553e-09 0)
(-3.37727e-09 9.72457e-10 0)
(-7.71167e-10 1.58812e-09 0)
(1.04776e-09 -2.65075e-09 0)
(2.01696e-08 -1.46739e-08 0)
(-1.01002e-08 -1.15836e-08 0)
(3.57288e-07 -1.2773e-08 0)
(3.50224e-08 -2.86098e-08 0)
(-4.01013e-08 -1.81126e-08 0)
(-6.137e-09 -1.45937e-08 0)
(-6.19521e-09 -9.16522e-09 0)
(-1.49643e-08 -2.51903e-09 0)
(-1.03484e-08 3.71264e-09 0)
(-1.94161e-09 3.88322e-09 0)
(4.17204e-09 3.44777e-09 0)
(3.94124e-09 2.22676e-09 0)
(4.75449e-10 4.77104e-10 0)
(6.67706e-10 -2.00007e-09 0)
(1.13658e-09 -2.97578e-09 0)
(1.21513e-09 -3.34245e-09 0)
(1.65918e-09 -3.89562e-09 0)
(-1.57796e-10 -1.07346e-09 0)
(-4.3315e-10 6.31484e-09 0)
(-2.54302e-09 -2.47173e-09 0)
(-1.03586e-08 -1.2519e-08 0)
(1.90884e-08 -2.09923e-08 0)
(-3.74173e-07 -2.45841e-08 0)
(-4.11053e-08 -4.13038e-08 0)
(2.92667e-08 -2.52398e-08 0)
(2.56069e-09 -2.02816e-08 0)
(-4.25461e-09 -1.41549e-08 0)
(-4.14383e-10 -1.28117e-09 0)
(1.2827e-09 6.91587e-09 0)
(1.63017e-09 4.31076e-09 0)
(2.68476e-09 1.92599e-09 0)
(1.15428e-09 1.63302e-09 0)
(4.64407e-10 -1.20142e-09 0)
(7.691e-11 -4.82719e-09 0)
(-2.43483e-10 -4.3658e-09 0)
(-6.39622e-10 -1.50599e-09 0)
(1.14534e-09 -5.17914e-10 0)
(3.64592e-09 -3.07654e-09 0)
(5.30145e-10 -4.79315e-10 0)
(-7.86022e-09 3.40739e-09 0)
(2.35411e-09 1.1844e-09 0)
(-1.82534e-08 6.27473e-09 0)
(-1.86059e-08 -1.43444e-08 0)
(2.18626e-08 1.4353e-08 0)
(-1.64474e-08 -1.08734e-08 0)
(-3.2276e-09 -1.16192e-08 0)
(7.97601e-09 -1.50631e-09 0)
(1.06144e-08 7.03759e-09 0)
(5.47117e-09 6.64511e-09 0)
(8.24169e-10 -5.15972e-10 0)
(4.59587e-10 -2.83243e-09 0)
(6.99489e-11 2.35496e-11 0)
(8.8952e-10 -4.01399e-09 0)
(5.87592e-10 -7.32282e-09 0)
(1.69598e-10 -4.71294e-09 0)
(-1.13961e-09 1.81479e-09 0)
(-5.68753e-10 4.19697e-09 0)
(2.8398e-09 -2.17432e-09 0)
(2.79794e-09 -9.23694e-09 0)
(-1.31623e-09 -1.8658e-09 0)
(-5.86655e-09 1.30273e-08 0)
(-7.16005e-09 3.37185e-09 0)
(2.33936e-09 2.75606e-08 0)
(-9.15105e-09 -2.83033e-09 0)
(3.45178e-09 -2.68692e-09 0)
(1.21578e-08 4.68355e-09 0)
(1.46337e-08 1.03646e-08 0)
(9.12283e-09 9.54627e-09 0)
(3.8055e-10 2.45909e-09 0)
(-3.10698e-09 -5.66365e-09 0)
(-1.58254e-09 -6.20866e-09 0)
(4.32178e-10 -9.78155e-10 0)
(1.76324e-09 -5.44742e-09 0)
(2.5087e-09 -7.70793e-09 0)
(2.11448e-09 -4.70746e-09 0)
(-1.64783e-10 2.83275e-09 0)
(-2.27475e-09 6.36798e-09 0)
(-3.65993e-10 9.533e-11 0)
(2.62595e-09 -1.15594e-08 0)
(1.84535e-09 -1.14948e-08 0)
(-1.58992e-09 6.20679e-10 0)
(3.27679e-09 1.3e-08 0)
(1.27598e-09 1.24437e-08 0)
(-2.94421e-09 9.75938e-09 0)
(9.23286e-09 8.80583e-09 0)
(1.2155e-08 8.42163e-09 0)
(7.88648e-09 8.59591e-09 0)
(-9.69644e-10 4.13261e-09 0)
(-6.6308e-09 -2.62708e-09 0)
(-6.04487e-09 -8.18031e-09 0)
(-2.47864e-09 -6.38483e-09 0)
(1.33394e-09 -6.82702e-10 0)
(2.41642e-09 -3.34539e-09 0)
(4.38191e-09 -5.91175e-09 0)
(3.47709e-09 -5.4994e-09 0)
(1.12357e-09 -4.41458e-10 0)
(-2.27723e-09 3.71624e-09 0)
(-2.48946e-09 1.61843e-09 0)
(2.03344e-10 -7.35347e-09 0)
(2.14288e-09 -1.26557e-08 0)
(8.05093e-10 -8.04763e-09 0)
(6.83432e-10 -2.73212e-10 0)
(-8.2149e-10 -2.76647e-09 0)
(1.26428e-09 2.53543e-09 0)
(3.48514e-09 1.42502e-09 0)
(3.08674e-09 2.47495e-10 0)
(-2.1646e-09 -1.14213e-09 0)
(-9.26916e-09 -2.58689e-09 0)
(-9.73537e-09 -3.66156e-09 0)
(-4.93878e-09 -5.71246e-09 0)
(-7.11867e-10 -3.86625e-09 0)
(2.36117e-09 1.85023e-10 0)
(2.19138e-09 1.66563e-09 0)
(3.25804e-09 -3.95505e-09 0)
(2.10084e-09 -6.47522e-09 0)
(1.04139e-09 -5.03271e-09 0)
(-4.67367e-11 -9.9306e-10 0)
(-1.08872e-09 6.38312e-10 0)
(5.01389e-11 -1.27113e-09 0)
(2.93935e-10 -5.80883e-09 0)
(-1.16199e-10 -6.17786e-09 0)
(-1.94457e-09 -4.8813e-09 0)
(-3.30284e-10 -5.51064e-09 0)
(1.92913e-09 -5.54768e-09 0)
(8.62857e-10 -6.24541e-09 0)
(-1.93799e-09 -7.58062e-09 0)
(-7.23214e-09 -8.74229e-09 0)
(-9.12558e-09 -4.98638e-09 0)
(-5.3529e-09 -8.22845e-11 0)
(-1.28302e-09 -4.65882e-10 0)
(9.00344e-10 -6.61763e-10 0)
(2.84831e-09 9.56631e-10 0)
(4.16803e-12 5.91853e-09 0)
(-1.16898e-09 -1.77518e-09 0)
(-1.52558e-09 -5.97077e-09 0)
(3.14937e-10 -6.53222e-09 0)
(2.61159e-09 -4.22451e-09 0)
(3.13618e-09 -7.76979e-10 0)
(1.87707e-09 1.1193e-09 0)
(-1.09875e-10 5.46863e-10 0)
(-1.77578e-09 -7.56512e-10 0)
(-1.81421e-09 -1.27658e-09 0)
(2.62905e-10 -1.21087e-09 0)
(9.43518e-10 -3.30774e-09 0)
(-1.23601e-09 -4.68487e-09 0)
(-4.83242e-09 -7.3423e-09 0)
(-5.71789e-09 -8.06728e-09 0)
(-2.46349e-09 -2.65852e-09 0)
(1.27305e-09 3.20542e-09 0)
(2.26075e-09 2.91339e-09 0)
(1.7746e-09 1.4508e-09 0)
(2.21562e-09 1.26005e-09 0)
(-3.0528e-09 3.62445e-09 0)
(-6.07688e-09 -1.46613e-10 0)
(-5.22988e-09 -2.56079e-09 0)
(-6.08647e-10 -3.12154e-09 0)
(4.63991e-09 -2.54751e-09 0)
(6.61703e-09 -6.47967e-10 0)
(4.13854e-09 6.26647e-10 0)
(1.0033e-11 1.18457e-09 0)
(-2.9253e-09 4.87039e-10 0)
(-2.03501e-09 3.28073e-10 0)
(2.39253e-10 -6.76039e-11 0)
(1.1716e-09 -9.80055e-10 0)
(-1.408e-09 -1.40534e-09 0)
(-4.62952e-09 -2.55083e-09 0)
(-2.66703e-09 -2.67506e-09 0)
(2.02293e-09 -4.7234e-10 0)
(4.97666e-09 1.95611e-09 0)
(4.11159e-09 1.92395e-09 0)
(1.54414e-09 1.03486e-09 0)
(8.90737e-10 5.51887e-10 0)
)
;

boundaryField
{
    sides
    {
        type            calculated;
        value           nonuniform List<vector> 
40
(
(-3.0528e-09 0 0)
(-6.07688e-09 0 0)
(-5.22988e-09 0 0)
(-6.08647e-10 0 0)
(4.63991e-09 0 0)
(6.61703e-09 0 0)
(4.13854e-09 0 0)
(1.0033e-11 0 0)
(-2.9253e-09 0 0)
(-2.03501e-09 0 0)
(2.39253e-10 0 0)
(1.1716e-09 0 0)
(-1.408e-09 0 0)
(-4.62952e-09 0 0)
(-2.66703e-09 0 0)
(2.02293e-09 0 0)
(4.97666e-09 0 0)
(4.11159e-09 0 0)
(1.54414e-09 0 0)
(8.90737e-10 0 0)
(9.02868e-10 0 0)
(1.04313e-09 0 0)
(-1.99958e-09 0 0)
(-2.54573e-09 0 0)
(1.88384e-09 0 0)
(5.70512e-09 0 0)
(6.4437e-09 0 0)
(1.37147e-09 0 0)
(-3.31464e-09 0 0)
(-3.55637e-09 0 0)
(-1.18643e-09 0 0)
(-1.2219e-09 0 0)
(-2.54835e-09 0 0)
(-5.24256e-09 0 0)
(-4.67239e-09 0 0)
(-4.60463e-10 0 0)
(9.52878e-10 0 0)
(-4.80407e-10 0 0)
(-1.25595e-09 0 0)
(-5.44485e-10 0 0)
)
;
    }
    inlet
    {
        type            calculated;
        value           uniform (0 0 0);
    }
    outlet
    {
        type            calculated;
        value           nonuniform List<vector> 
20
(
(-5.44485e-10 -4.96976e-10 0)
(1.57858e-09 -2.76849e-10 0)
(1.51635e-12 7.76433e-10 0)
(1.02876e-09 1.74277e-09 0)
(-3.71494e-09 2.6215e-09 0)
(-5.13225e-09 2.23714e-09 0)
(-6.10132e-09 1.0429e-09 0)
(-5.20605e-09 -3.38665e-11 0)
(-3.41299e-09 -2.34888e-09 0)
(4.87225e-09 -1.91866e-09 0)
(5.34717e-09 1.19798e-09 0)
(3.94124e-09 2.22676e-09 0)
(1.15428e-09 1.63302e-09 0)
(6.99489e-11 2.35496e-11 0)
(4.32178e-10 -9.78155e-10 0)
(1.33394e-09 -6.82702e-10 0)
(2.36117e-09 1.85023e-10 0)
(2.84831e-09 9.56631e-10 0)
(2.21562e-09 1.26005e-09 0)
(8.90737e-10 5.51887e-10 0)
)
;
    }
    frontAndBack
    {
        type            empty;
    }
}


// ************************************************************************* //
