/*--------------------------------*- C++ -*----------------------------------*\
  =========                 |
  \\      /  F ield         | OpenFOAM: The Open Source CFD Toolbox
   \\    /   O peration     | Website:  https://openfoam.org
    \\  /    A nd           | Version:  9
     \\/     M anipulation  |
\*---------------------------------------------------------------------------*/
FoamFile
{
    format      ascii;
    class       volVectorField;
    location    "64";
    object      hU;
}
// * * * * * * * * * * * * * * * * * * * * * * * * * * * * * * * * * * * * * //

dimensions      [0 2 -1 0 0 0 0];

internalField   nonuniform List<vector> 
400
(
(0.001 -2.3938e-08 0)
(0.00100004 -7.05032e-08 0)
(0.00100012 -1.13625e-07 0)
(0.00100024 -1.52884e-07 0)
(0.0010004 -1.87491e-07 0)
(0.00100058 -2.16592e-07 0)
(0.00100079 -2.36898e-07 0)
(0.00100099 -2.45592e-07 0)
(0.00100118 -2.3654e-07 0)
(0.00100133 -2.10945e-07 0)
(0.00100141 -1.67312e-07 0)
(0.0010014 -1.2741e-07 0)
(0.00100129 -9.83449e-08 0)
(0.00100111 -9.27053e-08 0)
(0.00100087 -9.92994e-08 0)
(0.00100065 -1.34955e-07 0)
(0.00100044 -1.55685e-07 0)
(0.00100034 -2.00532e-07 0)
(0.00100026 -1.88407e-07 0)
(0.00100034 -2.68461e-07 0)
(0.001 -2.60432e-08 0)
(0.00100005 -7.86683e-08 0)
(0.00100013 -1.29083e-07 0)
(0.00100026 -1.75199e-07 0)
(0.00100042 -2.13789e-07 0)
(0.00100062 -2.39937e-07 0)
(0.00100085 -2.45639e-07 0)
(0.00100108 -2.20574e-07 0)
(0.0010013 -1.54959e-07 0)
(0.00100148 -4.69407e-08 0)
(0.00100157 9.56285e-08 0)
(0.00100154 2.5023e-07 0)
(0.00100141 3.91226e-07 0)
(0.00100119 4.77367e-07 0)
(0.00100093 5.05969e-07 0)
(0.00100067 4.53596e-07 0)
(0.00100049 3.80959e-07 0)
(0.00100037 2.59328e-07 0)
(0.00100033 2.05236e-07 0)
(0.00100029 8.02469e-08 0)
(0.001 -5.18816e-08 0)
(0.00100004 -1.58872e-07 0)
(0.00100013 -2.67958e-07 0)
(0.00100026 -3.75239e-07 0)
(0.00100043 -4.74121e-07 0)
(0.00100065 -5.5482e-07 0)
(0.0010009 -6.02784e-07 0)
(0.00100117 -5.97693e-07 0)
(0.00100143 -5.1895e-07 0)
(0.00100165 -3.51313e-07 0)
(0.00100177 -1.07927e-07 0)
(0.00100176 1.65436e-07 0)
(0.0010016 4.04074e-07 0)
(0.00100131 5.20577e-07 0)
(0.00100095 5.00117e-07 0)
(0.00100062 3.55892e-07 0)
(0.00100037 2.06599e-07 0)
(0.00100026 4.92927e-08 0)
(0.00100022 -2.75378e-09 0)
(0.0010003 -1.17957e-07 0)
(0.001 -7.28252e-08 0)
(0.00100004 -2.22195e-07 0)
(0.00100013 -3.76269e-07 0)
(0.00100026 -5.32396e-07 0)
(0.00100045 -6.81219e-07 0)
(0.0010007 -8.08807e-07 0)
(0.001001 -8.87591e-07 0)
(0.00100135 -8.86364e-07 0)
(0.00100171 -7.57094e-07 0)
(0.00100203 -4.76022e-07 0)
(0.00100222 -2.06496e-08 0)
(0.00100219 4.95665e-07 0)
(0.00100193 9.38751e-07 0)
(0.00100147 1.14011e-06 0)
(0.00100097 1.05454e-06 0)
(0.00100059 7.44539e-07 0)
(0.00100041 4.27533e-07 0)
(0.00100035 1.73676e-07 0)
(0.0010004 1.02298e-07 0)
(0.00100035 -8.90702e-10 0)
(0.001 -9.00919e-08 0)
(0.00100004 -2.77828e-07 0)
(0.00100012 -4.78519e-07 0)
(0.00100025 -6.96062e-07 0)
(0.00100045 -9.21233e-07 0)
(0.00100073 -1.13744e-06 0)
(0.0010011 -1.29732e-06 0)
(0.00100156 -1.33815e-06 0)
(0.00100207 -1.17728e-06 0)
(0.00100257 -7.79728e-07 0)
(0.0010029 -1.69927e-07 0)
(0.00100288 5.82064e-07 0)
(0.00100244 1.2324e-06 0)
(0.00100167 1.5116e-06 0)
(0.00100086 1.37464e-06 0)
(0.00100031 9.65197e-07 0)
(0.00100013 5.84311e-07 0)
(0.00100022 3.17775e-07 0)
(0.00100037 2.62053e-07 0)
(0.00100043 1.66349e-07 0)
(0.001 -1.02358e-07 0)
(0.00100003 -3.18309e-07 0)
(0.00100009 -5.63689e-07 0)
(0.0010002 -8.4673e-07 0)
(0.00100038 -1.17299e-06 0)
(0.00100069 -1.52308e-06 0)
(0.00100115 -1.8577e-06 0)
(0.00100179 -2.05455e-06 0)
(0.00100255 -1.91433e-06 0)
(0.00100326 -1.20116e-06 0)
(0.00100377 8.24273e-08 0)
(0.00100378 1.54278e-06 0)
(0.0010031 2.43515e-06 0)
(0.00100192 2.30426e-06 0)
(0.00100082 1.42914e-06 0)
(0.00100019 4.92647e-07 0)
(0.00100018 1.54621e-08 0)
(0.00100037 -8.26144e-08 0)
(0.00100064 6.02774e-08 0)
(0.00100055 4.86589e-08 0)
(0.001 -1.01787e-07 0)
(0.00100001 -3.33324e-07 0)
(0.00100002 -6.03332e-07 0)
(0.00100008 -9.63754e-07 0)
(0.00100021 -1.39243e-06 0)
(0.00100049 -1.94447e-06 0)
(0.001001 -2.48763e-06 0)
(0.00100189 -3.08439e-06 0)
(0.00100321 -3.23514e-06 0)
(0.00100473 -2.8838e-06 0)
(0.00100573 -6.714e-07 0)
(0.00100536 2.55329e-06 0)
(0.0010035 4.82814e-06 0)
(0.00100113 4.73618e-06 0)
(0.000999612 3.02736e-06 0)
(0.000999375 1.26415e-06 0)
(0.00100001 4.33108e-07 0)
(0.00100056 3.29001e-07 0)
(0.00100093 5.61401e-07 0)
(0.00100066 5.32176e-07 0)
(0.000999995 -9.20625e-08 0)
(0.000999969 -2.88664e-07 0)
(0.000999909 -5.78098e-07 0)
(0.000999877 -9.5801e-07 0)
(0.00099988 -1.57722e-06 0)
(0.0010001 -2.3432e-06 0)
(0.00100051 -3.40102e-06 0)
(0.00100153 -4.12515e-06 0)
(0.00100308 -4.37542e-06 0)
(0.00100602 -2.55007e-06 0)
(0.00100911 7.56586e-07 0)
(0.00100915 4.27228e-06 0)
(0.00100551 4.71992e-06 0)
(0.00100074 2.78201e-06 0)
(0.000998153 7.34616e-07 0)
(0.000998277 -2.74354e-07 0)
(0.0009998 -2.84255e-07 0)
(0.00100088 -8.21095e-09 0)
(0.00100133 2.11229e-07 0)
(0.00100085 1.01339e-07 0)
(0.000999995 -4.89817e-08 0)
(0.000999916 -2.03736e-07 0)
(0.000999758 -3.87125e-07 0)
(0.000999533 -7.35443e-07 0)
(0.000999289 -1.33778e-06 0)
(0.000999213 -2.47999e-06 0)
(0.00099971 -4.68681e-06 0)
(0.0010014 -8.06911e-06 0)
(0.00100492 -1.32874e-05 0)
(0.00100958 -1.49125e-05 0)
(0.00101189 3.84568e-06 0)
(0.00100893 1.87349e-05 0)
(0.00100221 1.5783e-05 0)
(0.000997569 5.74254e-06 0)
(0.000996889 -3.157e-07 0)
(0.000998464 -1.26286e-06 0)
(0.00100027 -9.33469e-08 0)
(0.00100101 6.35286e-07 0)
(0.00100108 6.50729e-07 0)
(0.00100054 2.42091e-07 0)
(0.000999804 -1.9706e-08 0)
(0.00100017 -6.64453e-08 0)
(0.000999218 -1.51262e-07 0)
(0.000999906 -2.48225e-07 0)
(0.000997523 -5.91167e-07 0)
(0.000998845 -1.13042e-06 0)
(0.00099335 -2.88382e-06 0)
(0.000997534 -5.5935e-06 0)
(0.00099167 -1.15413e-05 0)
(0.000915835 -1.27069e-05 0)
(0.000951474 2.73789e-07 0)
(0.00101022 1.46379e-05 0)
(0.000990951 1.3086e-05 0)
(0.000983977 5.14325e-06 0)
(0.000989587 1.96013e-07 0)
(0.000996282 -7.80269e-07 0)
(0.000999238 -1.10962e-07 0)
(0.000999415 2.4848e-07 0)
(0.00099865 1.7339e-07 0)
(0.000998507 -1.86241e-07 0)
(0.000999804 1.30918e-08 0)
(0.00100017 4.64225e-08 0)
(0.000999217 1.18529e-07 0)
(0.000999905 2.0125e-07 0)
(0.00099752 5.30344e-07 0)
(0.00099884 1.05162e-06 0)
(0.000993341 2.7861e-06 0)
(0.000997523 5.47331e-06 0)
(0.000991654 1.13969e-05 0)
(0.000915813 1.25506e-05 0)
(0.000951434 -4.75713e-07 0)
(0.0010102 -1.49064e-05 0)
(0.00099095 -1.34076e-05 0)
(0.000983968 -5.5347e-06 0)
(0.000989568 -6.47021e-07 0)
(0.000996243 2.49218e-07 0)
(0.000999196 -4.72134e-07 0)
(0.000999369 -1.00214e-06 0)
(0.000998637 -9.88385e-07 0)
(0.000998457 -8.89062e-07 0)
(0.000999995 4.26986e-08 0)
(0.000999916 1.84622e-07 0)
(0.000999757 3.55248e-07 0)
(0.000999532 6.89228e-07 0)
(0.000999287 1.27706e-06 0)
(0.000999212 2.40098e-06 0)
(0.000999705 4.58901e-06 0)
(0.00100139 7.94365e-06 0)
(0.00100491 1.31318e-05 0)
(0.00100958 1.47158e-05 0)
(0.00101191 -4.0673e-06 0)
(0.00100891 -1.90115e-05 0)
(0.00100214 -1.60993e-05 0)
(0.000997479 -6.12428e-06 0)
(0.000996815 -8.44786e-08 0)
(0.000998401 7.7602e-07 0)
(0.00100017 -4.26815e-07 0)
(0.00100085 -1.3046e-06 0)
(0.00100088 -1.37832e-06 0)
(0.00100037 -1.25066e-06 0)
(0.000999996 8.62941e-08 0)
(0.000999969 2.70819e-07 0)
(0.000999907 5.47123e-07 0)
(0.000999873 9.12675e-07 0)
(0.000999872 1.51406e-06 0)
(0.00100008 2.26003e-06 0)
(0.00100048 3.29345e-06 0)
(0.00100149 3.99261e-06 0)
(0.00100303 4.21243e-06 0)
(0.00100595 2.36209e-06 0)
(0.001009 -9.81703e-07 0)
(0.00100906 -4.54689e-06 0)
(0.00100543 -5.02364e-06 0)
(0.00100067 -3.13088e-06 0)
(0.000998061 -1.13112e-06 0)
(0.000998137 -2.50239e-07 0)
(0.000999625 -3.22368e-07 0)
(0.00100064 -7.4145e-07 0)
(0.00100106 -9.66077e-07 0)
(0.00100055 -1.0735e-06 0)
(0.001 9.64727e-08 0)
(0.001 3.16231e-07 0)
(0.00100002 5.7403e-07 0)
(0.00100007 9.20439e-07 0)
(0.0010002 1.33433e-06 0)
(0.00100047 1.86899e-06 0)
(0.00100098 2.39731e-06 0)
(0.00100186 2.97639e-06 0)
(0.00100318 3.11448e-06 0)
(0.00100469 2.73525e-06 0)
(0.00100568 5.05927e-07 0)
(0.00100528 -2.75134e-06 0)
(0.00100339 -5.07699e-06 0)
(0.00100097 -5.06888e-06 0)
(0.000999414 -3.44678e-06 0)
(0.000999126 -1.79235e-06 0)
(0.000999747 -1.02158e-06 0)
(0.00100026 -1.06038e-06 0)
(0.00100062 -1.30655e-06 0)
(0.00100024 -1.51512e-06 0)
(0.001 9.73489e-08 0)
(0.00100003 3.02876e-07 0)
(0.00100008 5.3771e-07 0)
(0.00100019 8.08859e-07 0)
(0.00100037 1.12276e-06 0)
(0.00100066 1.45772e-06 0)
(0.00100112 1.776e-06 0)
(0.00100174 1.9513e-06 0)
(0.00100248 1.78601e-06 0)
(0.00100318 1.03803e-06 0)
(0.00100366 -2.77171e-07 0)
(0.00100364 -1.78103e-06 0)
(0.00100293 -2.70833e-06 0)
(0.00100171 -2.62806e-06 0)
(0.00100058 -1.77548e-06 0)
(0.000999908 -8.93914e-07 0)
(0.000999861 -4.28879e-07 0)
(0.000999984 -4.50487e-07 0)
(0.00100022 -6.16596e-07 0)
(0.00100001 -8.48274e-07 0)
(0.001 8.52337e-08 0)
(0.00100004 2.6428e-07 0)
(0.00100011 4.56186e-07 0)
(0.00100024 6.64501e-07 0)
(0.00100043 8.79206e-07 0)
(0.0010007 1.08339e-06 0)
(0.00100106 1.22805e-06 0)
(0.0010015 1.25243e-06 0)
(0.001002 1.0751e-06 0)
(0.00100249 6.58493e-07 0)
(0.0010028 1.8167e-08 0)
(0.00100275 -7.71014e-07 0)
(0.00100228 -1.44937e-06 0)
(0.00100147 -1.77221e-06 0)
(0.00100063 -1.66596e-06 0)
(0.00100001 -1.34793e-06 0)
(0.000999796 -1.03213e-06 0)
(0.000999768 -9.40182e-07 0)
(0.000999887 -9.45665e-07 0)
(0.00099977 -1.10805e-06 0)
(0.001 6.85573e-08 0)
(0.00100004 2.09918e-07 0)
(0.00100012 3.5574e-07 0)
(0.00100025 5.03644e-07 0)
(0.00100043 6.45131e-07 0)
(0.00100067 7.65092e-07 0)
(0.00100096 8.3651e-07 0)
(0.00100129 8.25753e-07 0)
(0.00100163 6.91924e-07 0)
(0.00100191 4.06126e-07 0)
(0.00100206 -4.92047e-08 0)
(0.001002 -5.78552e-07 0)
(0.00100171 -1.0368e-06 0)
(0.0010012 -1.28083e-06 0)
(0.00100065 -1.22888e-06 0)
(0.00100016 -9.94993e-07 0)
(0.000999917 -7.04829e-07 0)
(0.000999743 -5.5962e-07 0)
(0.000999756 -4.87296e-07 0)
(0.000999564 -5.97764e-07 0)
(0.001 5.02157e-08 0)
(0.00100004 1.50254e-07 0)
(0.00100012 2.48155e-07 0)
(0.00100025 3.40172e-07 0)
(0.00100042 4.21798e-07 0)
(0.00100062 4.82491e-07 0)
(0.00100086 5.08279e-07 0)
(0.00100112 4.74109e-07 0)
(0.00100137 3.62537e-07 0)
(0.00100157 1.55566e-07 0)
(0.00100167 -1.19368e-07 0)
(0.00100161 -4.2438e-07 0)
(0.0010014 -6.83467e-07 0)
(0.00100104 -8.42658e-07 0)
(0.00100064 -8.50367e-07 0)
(0.00100022 -7.7165e-07 0)
(0.000999954 -6.39909e-07 0)
(0.000999693 -5.98396e-07 0)
(0.000999632 -5.61033e-07 0)
(0.000999391 -6.84018e-07 0)
(0.001 3.48521e-08 0)
(0.00100004 1.05062e-07 0)
(0.00100011 1.75277e-07 0)
(0.00100023 2.42256e-07 0)
(0.00100038 3.01777e-07 0)
(0.00100057 3.48826e-07 0)
(0.00100077 3.75103e-07 0)
(0.00100098 3.69776e-07 0)
(0.00100117 3.21078e-07 0)
(0.0010013 2.24257e-07 0)
(0.00100137 8.49022e-08 0)
(0.00100132 -7.2524e-08 0)
(0.00100115 -2.07427e-07 0)
(0.00100087 -2.97515e-07 0)
(0.00100054 -3.12325e-07 0)
(0.00100017 -2.82158e-07 0)
(0.000999905 -2.03653e-07 0)
(0.000999617 -1.69471e-07 0)
(0.000999521 -1.18011e-07 0)
(0.000999253 -1.97778e-07 0)
(0.001 -3.89214e-09 0)
(0.00100004 -9.82489e-09 0)
(0.00100012 -1.28345e-08 0)
(0.00100024 -1.47547e-08 0)
(0.00100039 -1.74081e-08 0)
(0.00100056 -2.32915e-08 0)
(0.00100075 -3.39162e-08 0)
(0.00100094 -5.31525e-08 0)
(0.00100112 -8.14194e-08 0)
(0.00100124 -1.22114e-07 0)
(0.00100128 -1.70455e-07 0)
(0.00100122 -2.32017e-07 0)
(0.00100107 -2.90729e-07 0)
(0.00100081 -3.41046e-07 0)
(0.00100054 -3.59423e-07 0)
(0.00100019 -3.67949e-07 0)
(0.000999951 -3.42633e-07 0)
(0.000999613 -3.53059e-07 0)
(0.000999526 -3.27688e-07 0)
(0.000999134 -4.1039e-07 0)
)
;

boundaryField
{
    sides
    {
        type            slip;
    }
    inlet
    {
        type            fixedValue;
        value           uniform (0.001 0 0);
    }
    outlet
    {
        type            zeroGradient;
    }
    frontAndBack
    {
        type            empty;
    }
}


// ************************************************************************* //
