/*--------------------------------*- C++ -*----------------------------------*\
  =========                 |
  \\      /  F ield         | OpenFOAM: The Open Source CFD Toolbox
   \\    /   O peration     | Website:  https://openfoam.org
    \\  /    A nd           | Version:  9
     \\/     M anipulation  |
\*---------------------------------------------------------------------------*/
FoamFile
{
    format      ascii;
    class       volVectorField;
    location    "64";
    object      U;
}
// * * * * * * * * * * * * * * * * * * * * * * * * * * * * * * * * * * * * * //

dimensions      [0 1 -1 0 0 0 0];

internalField   nonuniform List<vector> 
400
(
(0.0999964 -2.39371e-06 0)
(0.100001 -7.05008e-06 0)
(0.100009 -1.13622e-05 0)
(0.100023 -1.52882e-05 0)
(0.10004 -1.87492e-05 0)
(0.100061 -2.16598e-05 0)
(0.100084 -2.3691e-05 0)
(0.100107 -2.45611e-05 0)
(0.100128 -2.36563e-05 0)
(0.100144 -2.10969e-05 0)
(0.100153 -1.67333e-05 0)
(0.100152 -1.27425e-05 0)
(0.10014 -9.83557e-06 0)
(0.10012 -9.27135e-06 0)
(0.100093 -9.93055e-06 0)
(0.100068 -1.3496e-05 0)
(0.100045 -1.55687e-05 0)
(0.100034 -2.00531e-05 0)
(0.100025 -1.88406e-05 0)
(0.100033 -2.6846e-05 0)
(0.0999969 -2.60424e-06 0)
(0.100002 -7.8666e-06 0)
(0.100011 -1.29081e-05 0)
(0.100026 -1.75198e-05 0)
(0.100044 -2.13792e-05 0)
(0.100066 -2.39946e-05 0)
(0.100091 -2.45655e-05 0)
(0.100117 -2.20594e-05 0)
(0.100141 -1.54977e-05 0)
(0.100161 -4.69471e-06 0)
(0.100171 9.56425e-06 0)
(0.100169 2.50266e-05 0)
(0.100154 3.91276e-05 0)
(0.100129 4.77416e-05 0)
(0.1001 5.06006e-05 0)
(0.100071 4.53616e-05 0)
(0.100051 3.80967e-05 0)
(0.100038 2.59331e-05 0)
(0.100034 2.05237e-05 0)
(0.100029 8.0247e-06 0)
(0.0999968 -5.18798e-06 0)
(0.100001 -1.58867e-05 0)
(0.100011 -2.67952e-05 0)
(0.100025 -3.75237e-05 0)
(0.100045 -4.74128e-05 0)
(0.100069 -5.54842e-05 0)
(0.100097 -6.02825e-05 0)
(0.100127 -5.97753e-05 0)
(0.100156 -5.19017e-05 0)
(0.10018 -3.51368e-05 0)
(0.100194 -1.07945e-05 0)
(0.100193 1.65464e-05 0)
(0.100174 4.04135e-05 0)
(0.100142 5.20637e-05 0)
(0.100102 5.00154e-05 0)
(0.100066 3.55905e-05 0)
(0.100038 2.06601e-05 0)
(0.100026 4.92925e-06 0)
(0.100021 -2.75375e-07 0)
(0.10003 -1.17957e-05 0)
(0.0999962 -7.28223e-06 0)
(0.100001 -2.22187e-05 0)
(0.10001 -3.7626e-05 0)
(0.100025 -5.32391e-05 0)
(0.100046 -6.81227e-05 0)
(0.100074 -8.08839e-05 0)
(0.100107 -8.87657e-05 0)
(0.100146 -8.86464e-05 0)
(0.100187 -7.57212e-05 0)
(0.100222 -4.76114e-05 0)
(0.100243 -2.06541e-06 0)
(0.100241 4.95769e-05 0)
(0.100211 9.38921e-05 0)
(0.100159 0.000114026 0)
(0.100104 0.000105461 0)
(0.100061 7.44559e-05 0)
(0.100042 4.27535e-05 0)
(0.100035 1.73676e-05 0)
(0.100041 1.02299e-05 0)
(0.100035 -8.90705e-08 0)
(0.0999952 -9.00875e-06 0)
(0.0999995 -2.77815e-05 0)
(0.100008 -4.78501e-05 0)
(0.100023 -6.96047e-05 0)
(0.100045 -9.21235e-05 0)
(0.100076 -0.000113748 0)
(0.100117 -0.000129742 0)
(0.100169 -0.000133832 0)
(0.100226 -0.00011775 0)
(0.100282 -7.79918e-05 0)
(0.100319 -1.69975e-05 0)
(0.100317 5.82229e-05 0)
(0.100268 0.000123269 0)
(0.100182 0.000151182 0)
(0.100091 0.00013747 0)
(0.10003 9.65181e-05 0)
(0.10001 5.84289e-05 0)
(0.100019 3.17767e-05 0)
(0.100036 2.62051e-05 0)
(0.100043 1.66349e-05 0)
(0.0999939 -1.02351e-05 0)
(0.0999969 -3.1829e-05 0)
(0.100003 -5.63659e-05 0)
(0.100015 -8.46696e-05 0)
(0.100036 -0.000117297 0)
(0.10007 -0.00015231 0)
(0.100122 -0.000185782 0)
(0.100193 -0.000205484 0)
(0.100277 -0.000191476 0)
(0.100357 -0.000120154 0)
(0.100414 8.24577e-06 0)
(0.100416 0.000154335 0)
(0.100339 0.000243587 0)
(0.100208 0.000230463 0)
(0.100085 0.000142918 0)
(0.100015 4.92625e-05 0)
(0.100013 1.54614e-06 0)
(0.100035 -8.2613e-06 0)
(0.100065 6.02779e-06 0)
(0.100056 4.86593e-06 0)
(0.0999923 -1.0178e-05 0)
(0.0999929 -3.33299e-05 0)
(0.099995 -6.03287e-05 0)
(0.100001 -9.63688e-05 0)
(0.100016 -0.000139235 0)
(0.100046 -0.000194442 0)
(0.100104 -0.000248771 0)
(0.100202 -0.000308481 0)
(0.10035 -0.000323607 0)
(0.10052 -0.000288513 0)
(0.100633 -6.71795e-05 0)
(0.100591 0.000255468 0)
(0.100383 0.000482974 0)
(0.100118 0.000473643 0)
(0.0999482 0.000302696 0)
(0.0999222 0.000126395 0)
(0.0999929 4.33073e-05 0)
(0.100056 3.29e-05 0)
(0.100095 5.61416e-05 0)
(0.100067 5.32183e-05 0)
(0.0999904 -9.20541e-06 0)
(0.0999875 -2.88636e-05 0)
(0.0999808 -5.78039e-05 0)
(0.0999771 -9.57909e-05 0)
(0.0999777 -0.000157706 0)
(0.100002 -0.0002343 0)
(0.100047 -0.000340091 0)
(0.10016 -0.000412545 0)
(0.100335 -0.000437657 0)
(0.100659 -0.000255152 0)
(0.101007 7.57306e-05 0)
(0.101014 0.000427647 0)
(0.100607 0.000472253 0)
(0.100072 0.000278195 0)
(0.0997823 7.34373e-05 0)
(0.0997971 -2.7427e-05 0)
(0.0999675 -2.84219e-05 0)
(0.100089 -8.21108e-07 0)
(0.100139 2.1124e-05 0)
(0.100087 1.01341e-05 0)
(0.0999894 -4.89767e-06 0)
(0.0999806 -2.03714e-05 0)
(0.0999631 -3.87076e-05 0)
(0.099938 -7.35331e-05 0)
(0.0999109 -0.000133753 0)
(0.0999022 -0.000247952 0)
(0.0999571 -0.000468617 0)
(0.100145 -0.000806953 0)
(0.100537 -0.00132934 0)
(0.101062 -0.00149279 0)
(0.101323 0.000385078 0)
(0.100997 0.00187542 0)
(0.100241 0.00157862 0)
(0.0997203 0.000574043 0)
(0.0996448 -3.1556e-05 0)
(0.0998222 -0.000126256 0)
(0.100024 -9.33442e-06 0)
(0.100107 6.35328e-05 0)
(0.100113 6.50765e-05 0)
(0.100056 2.42094e-05 0)
(0.0999702 -1.9704e-06 0)
(0.100006 -6.64377e-06 0)
(0.099908 -1.51241e-05 0)
(0.099972 -2.48179e-05 0)
(0.0997261 -5.91012e-05 0)
(0.0998444 -0.000112996 0)
(0.0992769 -0.000288213 0)
(0.0996756 -0.000558913 0)
(0.0991187 -0.00115357 0)
(0.102004 -0.00141527 0)
(0.106281 3.05827e-05 0)
(0.101267 0.00146734 0)
(0.099008 0.00130745 0)
(0.0982228 0.000513411 0)
(0.0988556 1.95809e-05 0)
(0.0996053 -7.80089e-05 0)
(0.0999353 -1.10974e-05 0)
(0.0999525 2.48507e-05 0)
(0.0998673 1.73394e-05 0)
(0.0998492 -1.86239e-05 0)
(0.0999709 1.30906e-06 0)
(0.100007 4.64175e-06 0)
(0.0999086 1.18514e-05 0)
(0.0999725 2.01214e-05 0)
(0.0997265 5.30208e-05 0)
(0.0998444 0.00010512 0)
(0.0992766 0.000278449 0)
(0.099675 0.000546907 0)
(0.0991176 0.00113915 0)
(0.102002 0.00139787 0)
(0.106277 -5.3138e-05 0)
(0.101266 -0.00149426 0)
(0.0990083 -0.00133959 0)
(0.0982226 -0.00055249 0)
(0.098854 -6.46349e-05 0)
(0.0996016 2.49162e-05 0)
(0.0999312 -4.72189e-05 0)
(0.0999481 -0.000100225 0)
(0.0998662 -9.88409e-05 0)
(0.0998444 -8.89051e-05 0)
(0.0999914 4.26951e-06 0)
(0.0999827 1.84606e-05 0)
(0.099965 3.5521e-05 0)
(0.09994 6.89137e-05 0)
(0.0999127 0.000127686 0)
(0.0999041 0.000240057 0)
(0.0999586 0.000458846 0)
(0.100147 0.000794422 0)
(0.100538 0.0013138 0)
(0.101064 0.00147313 0)
(0.101325 -0.00040727 0)
(0.100996 -0.00190313 0)
(0.100235 -0.00161027 0)
(0.0997124 -0.00061221 0)
(0.0996388 -8.44424e-06 0)
(0.0998174 7.75843e-05 0)
(0.100015 -4.26806e-05 0)
(0.100092 -0.000130469 0)
(0.100094 -0.00013784 0)
(0.100038 -0.000125067 0)
(0.0999938 8.62891e-06 0)
(0.0999908 2.70803e-05 0)
(0.099984 5.47087e-05 0)
(0.09998 9.12609e-05 0)
(0.0999802 0.000151395 0)
(0.100003 0.000225992 0)
(0.100048 0.000329345 0)
(0.100159 0.000399302 0)
(0.100333 0.000421365 0)
(0.100655 0.00023635 0)
(0.101 -9.8268e-05 0)
(0.101007 -0.000455146 0)
(0.100601 -0.000502654 0)
(0.100068 -0.000313091 0)
(0.0997754 -0.000113077 0)
(0.099785 -2.50167e-05 0)
(0.0999513 -3.22332e-05 0)
(0.100067 -7.41467e-05 0)
(0.100112 -9.66128e-05 0)
(0.100057 -0.000107351 0)
(0.0999971 9.64699e-06 0)
(0.0999975 3.16222e-05 0)
(0.0999994 5.74014e-05 0)
(0.100005 9.20419e-05 0)
(0.100019 0.000133432 0)
(0.100049 0.000186903 0)
(0.100106 0.00023975 0)
(0.100204 0.000297692 0)
(0.100351 0.000311551 0)
(0.10052 0.000273664 0)
(0.100631 5.06244e-05 0)
(0.100587 -0.000275296 0)
(0.100376 -0.000507885 0)
(0.100105 -0.00050693 0)
(0.0999308 -0.000344642 0)
(0.0998993 -0.000179211 0)
(0.0999684 -0.000102151 0)
(0.100027 -0.000106039 0)
(0.100065 -0.00013066 0)
(0.100025 -0.000151515 0)
(0.1 9.73488e-06 0)
(0.100003 3.02877e-05 0)
(0.100009 5.37715e-05 0)
(0.100021 8.08875e-05 0)
(0.100041 0.000112281 0)
(0.100074 0.000145783 0)
(0.100125 0.000177622 0)
(0.100194 0.000195169 0)
(0.100276 0.000178651 0)
(0.100354 0.00010384 0)
(0.100408 -2.77286e-05 0)
(0.100406 -0.000178177 0)
(0.100326 -0.000270923 0)
(0.100191 -0.000262858 0)
(0.100064 -0.000177559 0)
(0.0999894 -8.93902e-05 0)
(0.0999838 -4.28869e-05 0)
(0.0999985 -4.50487e-05 0)
(0.100024 -6.16608e-05 0)
(0.100002 -8.48284e-05 0)
(0.100003 8.52359e-06 0)
(0.100007 2.64288e-05 0)
(0.100015 4.56204e-05 0)
(0.100029 6.64536e-05 0)
(0.10005 8.79272e-05 0)
(0.10008 0.00010835 0)
(0.100121 0.000122823 0)
(0.10017 0.000125268 0)
(0.100225 0.000107537 0)
(0.10028 6.58696e-05 0)
(0.100315 1.81733e-06 0)
(0.100309 -7.71277e-05 0)
(0.100257 -0.000144979 0)
(0.100166 -0.000177255 0)
(0.100072 -0.000166612 0)
(0.100003 -0.000134797 0)
(0.0999795 -0.000103213 0)
(0.0999769 -9.40183e-05 0)
(0.0999897 -9.45674e-05 0)
(0.0999778 -0.000110806 0)
(0.100005 6.85607e-06 0)
(0.10001 2.09929e-05 0)
(0.100019 3.55763e-05 0)
(0.100033 5.03683e-05 0)
(0.100053 6.45194e-05 0)
(0.100079 7.65188e-05 0)
(0.100112 8.36642e-05 0)
(0.100149 8.25915e-05 0)
(0.100187 6.92087e-05 0)
(0.100218 4.06235e-05 0)
(0.100235 -4.92187e-06 0)
(0.100228 -5.78714e-05 0)
(0.100196 -0.000103706 0)
(0.100139 -0.000128107 0)
(0.100077 -0.000122903 0)
(0.100023 -9.95062e-05 0)
(0.0999954 -7.04855e-05 0)
(0.0999766 -5.59633e-05 0)
(0.0999772 -4.87304e-05 0)
(0.0999572 -5.97769e-05 0)
(0.100007 5.02192e-06 0)
(0.100012 1.50265e-05 0)
(0.100021 2.48176e-05 0)
(0.100035 3.40205e-05 0)
(0.100053 4.21847e-05 0)
(0.100076 4.82559e-05 0)
(0.100103 5.08364e-05 0)
(0.100132 4.74202e-05 0)
(0.10016 3.62619e-05 0)
(0.100182 1.55605e-05 0)
(0.100193 -1.19399e-05 0)
(0.100186 -4.24488e-05 0)
(0.100163 -6.83624e-05 0)
(0.100123 -8.42817e-05 0)
(0.100078 -8.50488e-05 0)
(0.100032 -7.71724e-05 0)
(0.100001 -6.39947e-05 0)
(0.099973 -5.98418e-05 0)
(0.0999653 -5.61045e-05 0)
(0.09994 -6.84023e-05 0)
(0.100009 3.4855e-06 0)
(0.100013 1.05072e-05 0)
(0.100021 1.75294e-05 0)
(0.100034 2.42283e-05 0)
(0.100051 3.01816e-05 0)
(0.100071 3.48878e-05 0)
(0.100094 3.75168e-05 0)
(0.100117 3.69849e-05 0)
(0.100138 3.21148e-05 0)
(0.100154 2.2431e-05 0)
(0.100161 8.49226e-06 0)
(0.100155 -7.25411e-06 0)
(0.100137 -2.07472e-05 0)
(0.100105 -2.9757e-05 0)
(0.100068 -3.1237e-05 0)
(0.100028 -2.82188e-05 0)
(0.0999976 -2.03668e-05 0)
(0.0999661 -1.69479e-05 0)
(0.0999545 -1.18014e-05 0)
(0.0999261 -1.9778e-05 0)
(0.10001 -3.89253e-07 0)
(0.100014 -9.82589e-07 0)
(0.100023 -1.2836e-06 0)
(0.100036 -1.47565e-06 0)
(0.100053 -1.74106e-06 0)
(0.100073 -2.32953e-06 0)
(0.100094 -3.39224e-06 0)
(0.100115 -5.31634e-06 0)
(0.100134 -8.14378e-06 0)
(0.100148 -1.22143e-05 0)
(0.100153 -1.70497e-05 0)
(0.100146 -2.32073e-05 0)
(0.100129 -2.90793e-05 0)
(0.1001 -3.41112e-05 0)
(0.100069 -3.5948e-05 0)
(0.100031 -3.67994e-05 0)
(0.100004 -3.42663e-05 0)
(0.0999673 -3.5308e-05 0)
(0.099956 -3.27699e-05 0)
(0.0999148 -4.10396e-05 0)
)
;

boundaryField
{
    sides
    {
        type            calculated;
        value           nonuniform List<vector> 
40
(
(0.10001 0 0)
(0.100014 0 0)
(0.100023 0 0)
(0.100036 0 0)
(0.100053 0 0)
(0.100073 0 0)
(0.100094 0 0)
(0.100115 0 0)
(0.100134 0 0)
(0.100148 0 0)
(0.100153 0 0)
(0.100146 0 0)
(0.100129 0 0)
(0.1001 0 0)
(0.100069 0 0)
(0.100031 0 0)
(0.100004 0 0)
(0.0999673 0 0)
(0.099956 0 0)
(0.0999148 0 0)
(0.0999964 0 0)
(0.100001 0 0)
(0.100009 0 0)
(0.100023 0 0)
(0.10004 0 0)
(0.100061 0 0)
(0.100084 0 0)
(0.100107 0 0)
(0.100128 0 0)
(0.100144 0 0)
(0.100153 0 0)
(0.100152 0 0)
(0.10014 0 0)
(0.10012 0 0)
(0.100093 0 0)
(0.100068 0 0)
(0.100045 0 0)
(0.100034 0 0)
(0.100025 0 0)
(0.100033 0 0)
)
;
    }
    inlet
    {
        type            calculated;
        value           nonuniform List<vector> 
20
(
(0.0999961 0 0)
(0.0999967 0 0)
(0.0999966 0 0)
(0.099996 0 0)
(0.0999951 0 0)
(0.0999938 0 0)
(0.0999923 0 0)
(0.0999909 0 0)
(0.0999899 0 0)
(0.0999899 0 0)
(0.0999905 0 0)
(0.0999919 0 0)
(0.0999943 0 0)
(0.0999971 0 0)
(0.0999999 0 0)
(0.100003 0 0)
(0.100005 0 0)
(0.100007 0 0)
(0.100008 0 0)
(0.10001 0 0)
)
;
    }
    outlet
    {
        type            calculated;
        value           nonuniform List<vector> 
20
(
(0.100034 -2.68461e-05 0)
(0.100029 8.02469e-06 0)
(0.10003 -1.17957e-05 0)
(0.100035 -8.90702e-08 0)
(0.100043 1.66349e-05 0)
(0.100055 4.86589e-06 0)
(0.100066 5.32176e-05 0)
(0.100085 1.01339e-05 0)
(0.100054 2.42091e-05 0)
(0.0998507 -1.86241e-05 0)
(0.0998457 -8.89062e-05 0)
(0.100037 -0.000125066 0)
(0.100055 -0.00010735 0)
(0.100024 -0.000151512 0)
(0.100001 -8.48274e-05 0)
(0.099977 -0.000110805 0)
(0.0999564 -5.97764e-05 0)
(0.0999391 -6.84018e-05 0)
(0.0999253 -1.97778e-05 0)
(0.0999134 -4.1039e-05 0)
)
;
    }
    frontAndBack
    {
        type            empty;
    }
}


// ************************************************************************* //
