/*--------------------------------*- C++ -*----------------------------------*\
  =========                 |
  \\      /  F ield         | OpenFOAM: The Open Source CFD Toolbox
   \\    /   O peration     | Website:  https://openfoam.org
    \\  /    A nd           | Version:  9
     \\/     M anipulation  |
\*---------------------------------------------------------------------------*/
FoamFile
{
    format      ascii;
    class       volVectorField;
    location    "45";
    object      ddtCorrDdt0(hU);
}
// * * * * * * * * * * * * * * * * * * * * * * * * * * * * * * * * * * * * * //

dimensions      [0 2 -2 0 0 0 0];

internalField   nonuniform List<vector> 
400
(
(-1.11754e-08 -2.63448e-09 0)
(1.2109e-08 4.22819e-09 0)
(1.50565e-08 8.53318e-09 0)
(-4.66383e-10 5.72931e-09 0)
(1.62155e-09 1.13179e-09 0)
(1.6037e-08 -1.78591e-09 0)
(2.54805e-08 3.38331e-09 0)
(2.31242e-08 6.90352e-09 0)
(1.23738e-08 7.23295e-09 0)
(1.12404e-08 7.00716e-10 0)
(1.84185e-08 -5.62885e-09 0)
(3.03566e-08 -2.5604e-09 0)
(3.37499e-08 -4.32122e-10 0)
(2.52302e-08 3.14466e-09 0)
(1.47294e-08 1.15901e-09 0)
(6.716e-09 -3.50888e-09 0)
(9.69756e-09 -6.5289e-09 0)
(1.81729e-08 -5.60268e-09 0)
(3.99746e-09 -3.65759e-09 0)
(-1.16026e-08 -3.42276e-10 0)
(-1.03618e-08 -6.47583e-09 0)
(1.17834e-08 7.69533e-09 0)
(1.41872e-08 1.98442e-08 0)
(1.15049e-09 1.71785e-08 0)
(3.48915e-09 4.14155e-09 0)
(1.60845e-08 -3.69689e-09 0)
(2.43028e-08 6.08879e-09 0)
(2.18597e-08 1.79402e-08 0)
(1.41533e-08 1.64553e-08 0)
(8.05942e-09 5.04753e-09 0)
(1.93231e-08 -7.60589e-09 0)
(2.7969e-08 -5.50694e-09 0)
(3.05893e-08 3.48497e-09 0)
(2.54035e-08 9.19994e-09 0)
(1.41688e-08 5.36643e-09 0)
(8.31835e-09 -5.85891e-09 0)
(7.97768e-09 -1.84064e-08 0)
(1.09395e-08 -1.00612e-08 0)
(5.14579e-09 9.97888e-09 0)
(-2.80221e-09 5.194e-09 0)
(-1.01865e-08 -9.84104e-09 0)
(1.0537e-08 9.34534e-09 0)
(1.53298e-08 3.12307e-08 0)
(5.609e-09 2.87332e-08 0)
(6.62551e-09 4.90631e-09 0)
(1.45871e-08 -6.61443e-09 0)
(2.27716e-08 8.35199e-09 0)
(1.96442e-08 2.74854e-08 0)
(1.64659e-08 2.50287e-08 0)
(1.42105e-08 4.84528e-09 0)
(1.67014e-08 -2.94101e-09 0)
(2.76851e-08 -1.10063e-08 0)
(2.47446e-08 8.17827e-09 0)
(2.18915e-08 1.63755e-08 0)
(1.53655e-08 9.58299e-09 0)
(7.6464e-09 -6.36114e-09 0)
(8.67346e-09 -2.39698e-08 0)
(1.89601e-08 -1.46718e-08 0)
(1.15221e-08 1.06033e-08 0)
(-1.80322e-09 6.41558e-09 0)
(-8.23654e-09 -1.27819e-08 0)
(1.08469e-08 1.36937e-08 0)
(1.63928e-08 4.36676e-08 0)
(9.34891e-09 3.73965e-08 0)
(8.3896e-09 3.92404e-09 0)
(1.61706e-08 -9.59577e-09 0)
(2.00343e-08 1.29007e-08 0)
(2.1137e-08 3.28327e-08 0)
(9.98935e-09 3.54772e-08 0)
(2.3525e-08 6.35287e-09 0)
(1.41695e-08 -1.08876e-08 0)
(1.55322e-08 -1.8506e-09 0)
(2.69856e-08 6.90388e-09 0)
(1.53412e-08 2.41762e-08 0)
(1.52447e-08 1.66499e-08 0)
(1.31359e-08 -7.0567e-09 0)
(6.38905e-09 -2.83328e-08 0)
(4.47654e-09 -1.44472e-08 0)
(7.75792e-09 1.63174e-08 0)
(9.63091e-09 8.82217e-09 0)
(-5.36543e-09 -1.25459e-08 0)
(1.01914e-08 1.73411e-08 0)
(1.77123e-08 4.87115e-08 0)
(1.37529e-08 3.98151e-08 0)
(1.27959e-08 3.10554e-09 0)
(1.59213e-08 -8.98223e-09 0)
(1.84937e-08 1.19038e-08 0)
(1.63957e-08 4.05417e-08 0)
(2.03199e-08 3.29406e-08 0)
(4.45514e-09 3.3364e-08 0)
(4.03341e-08 -1.71697e-08 0)
(2.5802e-09 7.33172e-09 0)
(4.52296e-09 2.15352e-08 0)
(2.09621e-08 2.50555e-08 0)
(1.21223e-08 1.97164e-08 0)
(1.06168e-08 -3.93169e-09 0)
(1.04851e-08 -2.77234e-08 0)
(1.28661e-08 -1.05976e-08 0)
(8.61119e-09 2.66128e-08 0)
(5.63339e-09 1.30151e-08 0)
(-3.22855e-09 -9.65704e-09 0)
(8.34109e-09 2.02746e-08 0)
(1.73271e-08 4.82345e-08 0)
(1.8622e-08 3.68484e-08 0)
(1.7139e-08 2.36952e-09 0)
(1.70181e-08 -9.79832e-09 0)
(1.82333e-08 1.27855e-08 0)
(1.17163e-08 3.93766e-08 0)
(3.17557e-08 5.02583e-08 0)
(1.41262e-08 2.94155e-08 0)
(8.23878e-09 1.46024e-08 0)
(3.85961e-08 -2.25671e-08 0)
(-1.95046e-08 3.33403e-08 0)
(-4.33464e-09 4.02073e-08 0)
(1.96828e-08 2.18996e-08 0)
(1.82007e-08 -1.92292e-09 0)
(1.05102e-08 -2.34425e-08 0)
(3.01354e-09 -9.11575e-09 0)
(5.82291e-09 2.26366e-08 0)
(1.23046e-08 1.19957e-08 0)
(-1.55818e-09 -5.80669e-09 0)
(4.44186e-09 2.09757e-08 0)
(1.56885e-08 4.31623e-08 0)
(2.25976e-08 3.12969e-08 0)
(2.18293e-08 1.70329e-09 0)
(1.93267e-08 -8.26802e-09 0)
(1.34657e-08 1.30056e-08 0)
(2.66607e-08 3.65601e-08 0)
(1.31048e-08 4.99968e-08 0)
(7.00311e-08 -1.96976e-08 0)
(-5.3623e-08 1.93658e-07 0)
(1.37008e-08 4.79991e-09 0)
(3.96277e-08 -7.12619e-09 0)
(-1.14511e-08 2.70682e-08 0)
(6.53911e-10 1.99866e-08 0)
(1.77233e-08 -3.11393e-09 0)
(1.42946e-08 -2.11674e-08 0)
(5.16724e-09 -5.09696e-09 0)
(4.66512e-09 2.74611e-08 0)
(1.07699e-08 1.26555e-08 0)
(-6.59141e-10 -2.75942e-09 0)
(-1.24677e-10 1.82972e-08 0)
(1.29584e-08 3.38628e-08 0)
(2.5383e-08 2.44306e-08 0)
(2.64421e-08 2.64729e-09 0)
(2.10413e-08 -4.17775e-09 0)
(1.59721e-08 1.40954e-08 0)
(1.90549e-08 3.70712e-08 0)
(1.13308e-08 1.15349e-08 0)
(2.03427e-07 4.63698e-09 0)
(1.16644e-07 -2.43023e-07 0)
(-2.59261e-07 -4.41918e-08 0)
(-2.25817e-08 -1.82968e-08 0)
(2.18952e-08 -5.66376e-09 0)
(1.64935e-08 5.53485e-09 0)
(2.27047e-08 -3.49134e-09 0)
(1.92501e-08 -1.57245e-08 0)
(4.95274e-09 -4.714e-09 0)
(4.42259e-09 1.98997e-08 0)
(1.20374e-08 9.34255e-09 0)
(1.24804e-10 -1.03728e-09 0)
(-4.71723e-09 1.30237e-08 0)
(1.05356e-08 2.23186e-08 0)
(2.78448e-08 1.63966e-08 0)
(3.06246e-08 5.17338e-09 0)
(2.52888e-08 -6.30529e-10 0)
(1.87857e-08 8.08544e-09 0)
(1.08305e-08 2.0271e-08 0)
(2.6311e-08 -6.89514e-10 0)
(-1.57706e-07 8.21907e-09 0)
(-8.26165e-08 -2.39106e-07 0)
(2.61256e-07 -3.01635e-08 0)
(2.37909e-08 -1.0964e-08 0)
(4.91545e-09 -3.26294e-09 0)
(3.04327e-08 3.46123e-09 0)
(3.30128e-08 -2.37818e-09 0)
(1.54758e-08 -1.4756e-08 0)
(5.07631e-09 -6.33778e-09 0)
(6.06946e-09 1.22203e-08 0)
(1.42609e-08 4.71113e-09 0)
(6.59304e-10 -5.28037e-10 0)
(-7.78783e-09 5.48592e-09 0)
(8.10209e-09 9.54518e-09 0)
(2.93178e-08 8.18644e-09 0)
(3.28989e-08 6.27719e-09 0)
(2.39563e-08 3.48999e-09 0)
(1.63311e-08 -1.27124e-09 0)
(7.80322e-09 -2.03663e-09 0)
(2.95269e-08 1.74534e-08 0)
(-3.11861e-08 -1.46318e-08 0)
(8.08807e-08 2.06168e-07 0)
(2.56813e-09 1.88589e-08 0)
(-4.30127e-08 5.21277e-09 0)
(2.02979e-08 2.09295e-08 0)
(2.68975e-08 1.24012e-08 0)
(2.27343e-08 2.66549e-09 0)
(2.66142e-08 -5.83244e-09 0)
(1.17284e-08 -2.72632e-09 0)
(1.18336e-08 5.58889e-09 0)
(1.55444e-08 -1.05119e-10 0)
(1.21749e-09 -1.40709e-10 0)
(-8.21986e-09 -3.29649e-09 0)
(7.75183e-09 -4.21419e-09 0)
(2.94672e-08 -9.16077e-10 0)
(3.32113e-08 5.26704e-09 0)
(2.25799e-08 6.24974e-09 0)
(1.2061e-08 7.53997e-10 0)
(2.37049e-08 -7.63543e-09 0)
(1.04834e-08 1.15461e-08 0)
(6.21501e-08 1.11965e-08 0)
(1.7563e-08 3.54485e-08 0)
(-2.82574e-08 1.78848e-08 0)
(3.78799e-08 2.63862e-08 0)
(6.61141e-09 1.90982e-08 0)
(2.65723e-09 8.10994e-09 0)
(1.23041e-08 7.08954e-09 0)
(1.50889e-08 8.75463e-09 0)
(9.25105e-09 4.85097e-09 0)
(1.22061e-08 -1.11249e-09 0)
(1.6361e-08 -4.16651e-09 0)
(1.2e-09 2.16628e-09 0)
(-6.13072e-09 -1.02285e-08 0)
(8.75561e-09 -1.70186e-08 0)
(2.75162e-08 -1.02483e-08 0)
(3.02779e-08 2.12675e-09 0)
(2.37393e-08 8.40384e-09 0)
(1.7374e-08 1.11704e-09 0)
(2.28851e-08 -6.87845e-09 0)
(2.8057e-08 -3.02711e-08 0)
(1.21702e-08 4.24945e-09 0)
(-2.61565e-07 -3.86327e-08 0)
(1.43576e-09 -7.17424e-09 0)
(-1.58957e-08 -1.51086e-09 0)
(-1.83397e-09 -1.43928e-08 0)
(3.02846e-09 -4.13211e-09 0)
(1.04562e-08 1.30077e-08 0)
(1.44061e-08 2.29737e-08 0)
(8.90206e-09 1.44149e-08 0)
(9.84094e-09 -4.71398e-09 0)
(1.48778e-08 -8.023e-09 0)
(-1.35359e-10 5.5621e-09 0)
(-3.07522e-09 -1.51258e-08 0)
(9.80302e-09 -2.94388e-08 0)
(2.33318e-08 -1.83888e-08 0)
(2.65853e-08 2.4448e-09 0)
(2.41081e-08 1.03762e-08 0)
(2.09799e-08 -4.04826e-10 0)
(1.3716e-08 -1.75673e-08 0)
(1.94728e-08 -3.18232e-08 0)
(3.54721e-08 -2.40191e-08 0)
(2.4156e-07 -1.99409e-08 0)
(3.88712e-08 -1.36802e-08 0)
(2.09673e-08 -2.2074e-08 0)
(5.69004e-09 -2.05724e-08 0)
(2.07119e-08 -6.09167e-09 0)
(2.00056e-08 1.88697e-08 0)
(1.41457e-08 3.64507e-08 0)
(5.48002e-09 1.96693e-08 0)
(4.81757e-09 -1.20694e-08 0)
(1.15697e-08 -1.2544e-08 0)
(-2.32067e-09 8.11457e-09 0)
(5.97446e-12 -1.82319e-08 0)
(1.14867e-08 -3.96187e-08 0)
(1.9631e-08 -2.4494e-08 0)
(2.13477e-08 6.75248e-09 0)
(2.38378e-08 1.42567e-08 0)
(2.55172e-08 -5.97801e-09 0)
(1.86571e-08 -3.00758e-08 0)
(2.19738e-08 -2.27443e-08 0)
(-1.80033e-08 -2.00345e-08 0)
(5.98405e-08 2.57315e-08 0)
(7.65604e-10 2.9422e-08 0)
(-4.24396e-09 -7.54986e-09 0)
(2.75474e-08 -1.156e-08 0)
(2.41523e-08 -4.01237e-09 0)
(2.00362e-08 1.8201e-08 0)
(1.03076e-08 3.65924e-08 0)
(-3.33579e-10 1.67543e-08 0)
(2.75279e-09 -1.9318e-08 0)
(1.22244e-08 -1.56273e-08 0)
(-4.44991e-09 9.00396e-09 0)
(3.76111e-09 -1.85645e-08 0)
(1.33491e-08 -4.38677e-08 0)
(1.60431e-08 -2.82235e-08 0)
(1.57909e-08 1.02853e-08 0)
(2.05512e-08 2.04713e-08 0)
(2.50783e-08 -1.07605e-08 0)
(2.46186e-08 -4.22755e-08 0)
(1.35365e-08 -3.75096e-08 0)
(2.46682e-08 -4.16804e-09 0)
(1.55545e-08 3.0385e-08 0)
(1.30723e-08 8.61471e-09 0)
(2.84175e-08 4.60925e-09 0)
(2.20149e-08 -1.23362e-08 0)
(1.87316e-08 -7.05015e-09 0)
(1.17713e-08 1.29684e-08 0)
(2.66952e-09 2.95809e-08 0)
(-1.60203e-09 1.29915e-08 0)
(4.61318e-09 -2.07883e-08 0)
(1.36505e-08 -1.55208e-08 0)
(-5.30141e-09 9.27934e-09 0)
(8.03242e-09 -1.67827e-08 0)
(1.51087e-08 -4.25129e-08 0)
(1.24723e-08 -2.98127e-08 0)
(1.1604e-08 1.03285e-08 0)
(1.59188e-08 2.40659e-08 0)
(2.32641e-08 -7.36479e-09 0)
(2.35594e-08 -4.59494e-08 0)
(2.05886e-08 -4.67416e-08 0)
(2.1078e-08 -1.2102e-08 0)
(8.13587e-09 8.93908e-09 0)
(1.79459e-08 1.86355e-08 0)
(2.20071e-08 -4.33061e-09 0)
(1.76881e-08 -1.99789e-08 0)
(6.76924e-09 -1.57158e-08 0)
(-1.54489e-09 5.53787e-09 0)
(-1.12648e-09 2.60864e-08 0)
(4.11768e-09 1.21865e-08 0)
(9.86228e-09 -1.86997e-08 0)
(1.32665e-08 -1.29419e-08 0)
(-5.75347e-09 1.06564e-08 0)
(1.15374e-08 -1.33374e-08 0)
(1.59653e-08 -3.76659e-08 0)
(9.24097e-09 -2.8854e-08 0)
(8.69449e-09 4.9652e-09 0)
(1.43278e-08 2.1299e-08 0)
(1.99541e-08 -1.76233e-09 0)
(2.18388e-08 -3.5793e-08 0)
(1.91964e-08 -4.17179e-08 0)
(1.44672e-08 -2.04323e-08 0)
(1.73996e-08 1.0502e-09 0)
(2.24037e-08 4.24315e-09 0)
(1.95947e-08 -1.54755e-08 0)
(8.4614e-09 -2.79707e-08 0)
(-1.10904e-09 -1.98098e-08 0)
(-3.6237e-09 5.10604e-09 0)
(6.80863e-10 2.76784e-08 0)
(9.89762e-09 1.6141e-08 0)
(1.38273e-08 -1.25021e-08 0)
(9.19574e-09 -9.62135e-09 0)
(-7.4992e-09 1.22751e-08 0)
(1.28922e-08 -1.06941e-08 0)
(1.54011e-08 -3.29037e-08 0)
(4.98513e-09 -2.54978e-08 0)
(6.93192e-09 3.19726e-10 0)
(1.56869e-08 1.39885e-08 0)
(2.14622e-08 -5.89871e-10 0)
(2.10182e-08 -2.25177e-08 0)
(1.53994e-08 -2.733e-08 0)
(1.45311e-08 -1.13864e-08 0)
(1.8085e-08 3.21271e-09 0)
(2.00967e-08 -2.72553e-10 0)
(2.0725e-08 -1.59957e-08 0)
(1.37883e-08 -2.35683e-08 0)
(4.14553e-09 -1.35905e-08 0)
(-4.46405e-10 7.99372e-09 0)
(6.27365e-09 2.84332e-08 0)
(1.71669e-08 2.044e-08 0)
(1.43694e-08 -5.29972e-09 0)
(2.14776e-09 -6.66135e-09 0)
(-1.1908e-08 1.11795e-08 0)
(1.10747e-08 -4.71355e-09 0)
(1.47548e-08 -2.13764e-08 0)
(3.61067e-09 -1.74811e-08 0)
(6.64864e-09 -2.13114e-09 0)
(1.69232e-08 5.91663e-09 0)
(2.29242e-08 -1.01665e-09 0)
(2.10774e-08 -1.13426e-08 0)
(1.50308e-08 -1.18801e-08 0)
(1.1724e-08 -1.66702e-09 0)
(1.6838e-08 6.10031e-09 0)
(2.69821e-08 3.71572e-09 0)
(2.67544e-08 -6.24329e-09 0)
(1.73395e-08 -1.10338e-08 0)
(7.53856e-09 -5.47253e-09 0)
(4.67389e-09 8.97241e-09 0)
(1.26564e-08 2.41596e-08 0)
(2.06385e-08 1.82521e-08 0)
(1.06094e-08 -1.95533e-09 0)
(-4.69874e-09 -4.54254e-09 0)
(-1.5377e-08 4.76716e-09 0)
(9.50663e-09 3.97999e-10 0)
(1.32262e-08 -5.78521e-09 0)
(1.95881e-09 -5.86815e-09 0)
(5.92171e-09 -1.88518e-09 0)
(1.76285e-08 8.65733e-10 0)
(2.45637e-08 -1.82017e-10 0)
(2.21052e-08 -2.18956e-09 0)
(1.4512e-08 -2.15065e-09 0)
(1.1617e-08 4.33515e-10 0)
(1.59659e-08 4.73993e-09 0)
(2.40053e-08 2.67926e-09 0)
(2.76846e-08 -2.25147e-09 0)
(2.25613e-08 -3.36455e-09 0)
(1.31217e-08 -8.35737e-10 0)
(8.59431e-09 4.20682e-09 0)
(1.3265e-08 9.50258e-09 0)
(1.76412e-08 7.14244e-09 0)
(6.34685e-09 -7.20478e-10 0)
(-8.13423e-09 -1.81658e-09 0)
)
;

boundaryField
{
    sides
    {
        type            calculated;
        value           nonuniform List<vector> 
40
(
(-1.5377e-08 0 0)
(9.50663e-09 0 0)
(1.32262e-08 0 0)
(1.95881e-09 0 0)
(5.92171e-09 0 0)
(1.76285e-08 0 0)
(2.45637e-08 0 0)
(2.21052e-08 0 0)
(1.4512e-08 0 0)
(1.1617e-08 0 0)
(1.59659e-08 0 0)
(2.40053e-08 0 0)
(2.76846e-08 0 0)
(2.25613e-08 0 0)
(1.31217e-08 0 0)
(8.59431e-09 0 0)
(1.3265e-08 0 0)
(1.76412e-08 0 0)
(6.34685e-09 0 0)
(-8.13423e-09 0 0)
(-1.11754e-08 0 0)
(1.2109e-08 0 0)
(1.50565e-08 0 0)
(-4.66383e-10 0 0)
(1.62155e-09 0 0)
(1.6037e-08 0 0)
(2.54805e-08 0 0)
(2.31242e-08 0 0)
(1.23738e-08 0 0)
(1.12404e-08 0 0)
(1.84185e-08 0 0)
(3.03566e-08 0 0)
(3.37499e-08 0 0)
(2.52302e-08 0 0)
(1.47294e-08 0 0)
(6.716e-09 0 0)
(9.69756e-09 0 0)
(1.81729e-08 0 0)
(3.99746e-09 0 0)
(-1.16026e-08 0 0)
)
;
    }
    inlet
    {
        type            calculated;
        value           uniform (0 0 0);
    }
    outlet
    {
        type            calculated;
        value           nonuniform List<vector> 
20
(
(-1.16026e-08 -3.42276e-10 0)
(-2.80221e-09 5.194e-09 0)
(-1.80322e-09 6.41558e-09 0)
(9.63091e-09 8.82217e-09 0)
(5.63339e-09 1.30151e-08 0)
(1.23046e-08 1.19957e-08 0)
(1.07699e-08 1.26555e-08 0)
(1.20374e-08 9.34255e-09 0)
(1.42609e-08 4.71113e-09 0)
(1.55444e-08 -1.05119e-10 0)
(1.6361e-08 -4.16651e-09 0)
(1.48778e-08 -8.023e-09 0)
(1.15697e-08 -1.2544e-08 0)
(1.22244e-08 -1.56273e-08 0)
(1.36505e-08 -1.55208e-08 0)
(1.32665e-08 -1.29419e-08 0)
(9.19574e-09 -9.62135e-09 0)
(2.14776e-09 -6.66135e-09 0)
(-4.69874e-09 -4.54254e-09 0)
(-8.13423e-09 -1.81658e-09 0)
)
;
    }
    frontAndBack
    {
        type            empty;
    }
}


// ************************************************************************* //
