/*--------------------------------*- C++ -*----------------------------------*\
  =========                 |
  \\      /  F ield         | OpenFOAM: The Open Source CFD Toolbox
   \\    /   O peration     | Website:  https://openfoam.org
    \\  /    A nd           | Version:  9
     \\/     M anipulation  |
\*---------------------------------------------------------------------------*/
FoamFile
{
    format      ascii;
    class       surfaceScalarField;
    location    "45";
    object      ddtCorrDdt0(phi);
}
// * * * * * * * * * * * * * * * * * * * * * * * * * * * * * * * * * * * * * //

dimensions      [0 4 -2 0 0 0 0];

internalField   nonuniform List<scalar> 
760
(
6.08891e-11
-1.79318e-11
7.6264e-11
2.49687e-11
2.47389e-11
5.73729e-11
2.28201e-12
4.86937e-11
4.957e-11
2.27847e-11
9.42813e-11
-1.23102e-11
1.27598e-10
2.49508e-11
8.54988e-11
4.82429e-11
5.63747e-11
5.82355e-11
7.11347e-11
1.5491e-11
1.18021e-10
-3.2153e-11
1.69803e-10
-1.04292e-11
1.44575e-10
9.13213e-13
1.01082e-10
3.61662e-11
5.66836e-11
1.49277e-11
4.86357e-11
-2.87718e-11
6.74994e-11
-6.8145e-11
5.82833e-11
-4.39831e-11
-2.5892e-11
2.65973e-11
8.46698e-12
6.75409e-11
-3.75285e-11
6.34136e-11
4.35595e-11
2.39066e-11
1.21563e-10
2.639e-11
1.16589e-10
4.43724e-11
2.49952e-11
9.87412e-11
-2.31663e-11
1.10137e-10
2.87197e-11
9.66498e-11
1.18964e-10
5.04401e-11
9.69918e-11
5.56557e-11
3.92079e-11
1.32084e-10
-4.67488e-11
1.39256e-10
-4.47968e-11
1.48612e-10
3.06389e-11
9.44428e-11
5.60968e-11
6.16346e-11
4.04016e-11
4.64236e-11
-2.49531e-11
4.39958e-11
-1.00846e-10
3.67436e-11
-6.1922e-11
1.07002e-11
3.43898e-11
3.00167e-11
6.15093e-11
-5.81446e-11
5.26105e-11
5.67942e-11
5.00692e-11
1.92368e-10
4.7682e-11
1.70427e-10
4.60269e-11
2.36321e-11
8.52305e-11
-4.31066e-11
1.1025e-10
5.46054e-11
8.14152e-11
1.54079e-10
8.59065e-11
1.52404e-10
6.282e-11
3.78171e-12
1.21037e-10
9.42155e-12
1.31687e-10
-7.57936e-11
1.09885e-10
4.18211e-11
9.68532e-11
1.00066e-10
6.3049e-11
5.24018e-11
4.45015e-11
-3.93515e-11
6.72747e-11
-1.37405e-10
7.93897e-11
-6.9923e-11
1.40787e-11
9.30239e-11
3.96288e-11
5.57718e-11
-6.69538e-11
6.20406e-11
7.78995e-11
6.9493e-11
2.35204e-10
5.38339e-11
1.98428e-10
5.05341e-11
1.76668e-11
9.30624e-11
-4.94713e-11
9.99111e-11
7.18339e-11
7.82626e-11
1.65033e-10
5.65077e-11
1.87588e-10
1.50219e-10
5.52745e-11
1.57674e-11
-1.0314e-10
1.42067e-10
6.8824e-11
9.22049e-11
2.80006e-11
7.45527e-11
1.32473e-10
8.57635e-11
1.06226e-10
4.40202e-11
-3.01062e-11
2.19067e-11
-1.37204e-10
3.10303e-11
-6.18934e-11
4.63796e-11
9.41281e-11
5.02509e-11
5.03995e-11
-5.59411e-11
7.27914e-11
9.47329e-11
8.89516e-11
2.45435e-10
6.18833e-11
1.92818e-10
6.26566e-11
1.1425e-11
1.08274e-10
-3.86104e-11
5.42519e-11
4.03955e-11
1.15311e-10
2.34642e-10
3.42387e-11
1.30503e-10
1.21567e-10
3.06144e-10
1.54993e-10
-6.88563e-11
-5.73872e-11
2.13357e-12
1.00928e-10
2.10385e-10
7.9618e-11
1.41727e-10
5.71215e-11
9.31738e-11
5.49919e-11
-1.18112e-11
5.62678e-11
-1.33269e-10
5.39809e-11
-4.62874e-11
3.31311e-11
1.38264e-10
6.747e-11
3.9528e-11
-3.73788e-11
7.52291e-11
1.06887e-10
9.89307e-11
2.27826e-10
7.265e-11
1.68019e-10
9.86507e-11
1.20343e-11
7.94338e-11
-5.5934e-11
9.68097e-11
8.29933e-11
8.85061e-12
1.39339e-10
3.04216e-10
4.01559e-10
-1.44575e-10
-8.96379e-11
2.52506e-10
2.45032e-10
1.26476e-11
-3.17431e-10
-1.04492e-10
3.66557e-11
6.82014e-11
2.3014e-10
1.00192e-10
1.13054e-10
6.63533e-11
-1.26102e-11
3.48913e-11
-1.12487e-10
2.26206e-11
-2.92538e-11
4.4767e-11
1.31948e-10
6.2655e-11
2.51289e-11
-1.81105e-11
6.18199e-11
1.01879e-10
9.91175e-11
1.93782e-10
9.96794e-11
1.37608e-10
1.0744e-10
5.07502e-12
1.09258e-10
-2.3988e-11
1.96082e-11
4.53631e-11
1.90243e-10
2.34393e-10
1.53191e-10
1.1597e-10
1.63643e-10
-1.44368e-10
-3.26198e-10
1.23756e-09
3.05735e-10
2.84585e-10
1.99816e-11
-1.44756e-10
-4.7529e-11
1.42003e-11
6.23463e-11
6.38441e-11
7.92333e-11
-1.0779e-11
5.32055e-11
3.81684e-10
2.46351e-11
-2.47013e-11
3.60539e-11
1.24156e-10
5.43628e-11
5.64238e-12
-7.62917e-12
4.24051e-11
8.30106e-11
9.34209e-11
1.41892e-10
1.18038e-10
1.02365e-10
1.41315e-10
1.96364e-11
8.8199e-11
-1.62001e-11
7.14178e-11
8.81992e-11
1.51742e-10
5.59948e-11
-8.07793e-11
-5.62012e-12
2.31843e-09
1.79979e-10
-1.71461e-09
-6.31877e-08
-3.78329e-10
-6.44702e-10
7.354e-11
-2.46472e-11
8.55341e-11
-1.98524e-11
8.93692e-11
2.49634e-11
1.21105e-10
-2.30629e-11
6.19026e-11
-6.41812e-11
1.76956e-11
-2.70547e-11
4.1406e-11
8.53072e-11
3.59369e-11
-1.03237e-11
-4.5257e-12
1.84089e-11
4.69917e-11
8.93263e-11
7.96954e-11
1.4478e-10
6.27042e-11
1.50563e-10
3.5106e-11
1.35346e-10
7.77445e-12
7.97039e-11
-8.75934e-12
1.73732e-11
1.0209e-10
2.67181e-10
-1.91934e-11
-2.10732e-09
-5.84603e-11
1.78728e-09
1.21101e-09
3.77395e-10
4.37363e-10
-3.483e-12
-8.67263e-11
1.10804e-10
9.67967e-12
1.57997e-10
5.43908e-11
1.29065e-10
2.2071e-12
4.8517e-11
3.98989e-10
2.74567e-11
-3.01976e-11
5.02892e-11
3.40279e-11
3.41864e-10
-2.34727e-11
-3.54344e-12
3.5681e-12
5.06922e-12
8.02798e-11
1.23709e-11
1.67844e-10
2.22622e-11
1.62316e-10
3.27684e-11
8.82273e-11
2.34701e-11
1.08852e-10
-5.96585e-12
1.63696e-12
-6.79482e-11
8.87729e-11
2.51611e-10
-5.4523e-11
-9.48107e-11
4.82209e-10
6.1352e-10
-3.3126e-10
-2.48276e-10
7.26625e-12
1.16209e-10
1.39532e-10
1.67939e-10
1.20822e-10
7.63324e-11
1.12806e-10
3.7209e-11
1.04085e-10
1.92609e-11
6.24231e-11
6.53077e-12
6.73174e-11
1.17364e-11
-1.004e-11
-2.34046e-11
4.13878e-12
1.28585e-12
-3.53877e-11
7.96768e-11
-5.09408e-11
1.7372e-10
-3.02195e-11
1.60708e-10
2.25458e-11
7.51867e-11
3.77451e-11
4.1021e-11
5.47372e-12
2.07989e-10
-2.55224e-11
-4.92028e-13
-1.16969e-10
4.69258e-10
2.19221e-10
-3.33696e-10
-1.10886e-09
1.77793e-10
3.92554e-10
1.04732e-10
9.80778e-11
9.77142e-12
5.72725e-12
3.78594e-11
6.36373e-12
6.75313e-11
5.02079e-11
6.38866e-11
8.66364e-11
6.20591e-11
4.93038e-11
7.17403e-11
-8.89487e-12
-2.78879e-11
-1.49013e-11
1.92011e-11
1.61122e-11
-6.62129e-11
7.49901e-11
-1.17209e-10
1.56945e-10
-7.14483e-11
1.50864e-10
2.15654e-12
9.51702e-11
5.12565e-11
7.7401e-11
1.51782e-11
1.58242e-10
-5.44835e-11
1.1616e-10
-2.15554e-10
-6.73007e-10
-1.39727e-10
-5.90576e-10
2.7437e-08
-1.13932e-10
-3.71285e-10
-9.41549e-12
-6.4434e-11
-6.1203e-12
-1.20022e-10
2.65468e-11
-3.79672e-11
7.29932e-11
1.61421e-11
6.10865e-11
1.5754e-10
4.98952e-11
9.01699e-11
6.31361e-11
-3.93048e-11
-5.00461e-11
-6.88762e-12
3.55483e-11
3.40426e-11
-8.66583e-11
7.45294e-11
-1.74061e-10
1.15523e-10
-1.08548e-10
1.4177e-10
2.01179e-11
1.10753e-10
5.36236e-11
1.23617e-10
7.12153e-14
1.88014e-11
-1.21e-10
2.19598e-10
-1.1073e-10
6.07141e-10
-1.12868e-10
6.8218e-10
-7.88094e-10
2.54651e-10
3.31953e-10
-4.64049e-12
-1.6795e-10
7.69444e-11
-8.92788e-11
1.13534e-10
-2.22282e-11
7.9295e-11
8.33841e-11
5.26875e-11
1.67958e-10
2.39959e-11
9.57761e-11
4.27635e-11
-7.96906e-11
-7.15712e-11
1.91732e-12
4.41111e-11
4.67553e-11
-9.48126e-11
7.90615e-11
-2.12873e-10
8.58274e-11
-1.30072e-10
1.05789e-10
4.47863e-11
1.47726e-10
8.41968e-11
1.38425e-10
-5.79811e-11
7.37588e-11
-1.7282e-10
5.59777e-12
-1.03113e-10
3.85932e-11
-1.04699e-10
2.84665e-10
2.51952e-10
-1.28059e-10
-1.23018e-10
1.06639e-10
3.57969e-11
1.25773e-10
-3.58543e-11
1.12841e-10
-1.38205e-11
8.13782e-11
8.64744e-11
2.16778e-11
1.65989e-10
-1.27439e-12
7.16317e-11
3.79415e-11
-1.07747e-10
-8.1377e-11
1.63344e-11
4.31438e-11
5.36344e-11
-8.96069e-11
8.52361e-11
-2.18261e-10
6.75887e-11
-1.44302e-10
7.36178e-11
6.11051e-11
1.23051e-10
1.15541e-10
1.52318e-10
-5.3039e-11
1.03962e-10
-2.32326e-10
3.83025e-11
-2.27161e-10
1.51118e-10
3.06898e-11
1.33333e-11
3.2094e-10
1.42259e-10
1.68222e-10
1.22369e-10
1.8177e-11
9.84256e-11
-7.26784e-11
8.0643e-11
-4.71817e-11
3.96278e-11
5.31574e-11
-9.53063e-13
1.38803e-10
-3.52576e-12
5.519e-11
4.65525e-11
-1.03914e-10
-7.21747e-11
4.01797e-11
4.54956e-11
6.19807e-11
-7.67577e-11
7.88481e-11
-1.97217e-10
6.50049e-11
-1.45844e-10
4.88672e-11
4.26816e-11
8.95857e-11
1.21477e-10
1.35025e-10
-2.06428e-11
1.16708e-10
-2.19092e-10
9.2006e-11
-2.38332e-10
7.99286e-11
-1.15704e-10
4.59817e-11
9.40491e-12
1.15466e-10
5.12976e-11
9.62993e-11
-5.99463e-11
6.10044e-11
-1.25968e-10
1.54938e-11
-9.12246e-11
-8.32256e-12
2.16542e-11
4.50417e-12
1.23455e-10
2.9759e-11
6.62883e-11
5.91431e-11
-7.15966e-11
-5.26951e-11
6.15336e-11
5.84155e-11
7.35062e-11
-5.82193e-11
6.13738e-11
-1.74037e-10
5.98785e-11
-1.36102e-10
4.70086e-11
9.75745e-12
7.07365e-11
9.19738e-11
1.01665e-10
3.31536e-12
1.14797e-10
-1.38371e-10
8.44146e-11
-1.7985e-10
7.3082e-11
-9.16709e-11
1.02028e-10
1.94169e-11
1.04143e-10
-1.0333e-11
7.48135e-11
-8.71247e-11
1.774e-11
-1.39396e-10
-1.20601e-11
-9.69062e-11
-1.38228e-11
2.29333e-11
2.5752e-11
1.38873e-10
6.45492e-11
9.5111e-11
5.80789e-11
-3.94517e-11
-3.83262e-11
6.93745e-11
6.50065e-11
7.46585e-11
-3.67862e-11
4.22929e-11
-1.38516e-10
4.26461e-11
-1.12751e-10
5.82764e-11
-1.27901e-11
7.93759e-11
4.4773e-11
9.75459e-11
2.78616e-12
9.56234e-11
-6.84171e-11
7.59529e-11
-8.69502e-11
8.25895e-11
-3.59334e-11
8.97978e-11
2.74872e-11
1.08541e-10
-7.29018e-13
8.81815e-11
-6.68303e-11
4.4028e-11
-9.43752e-11
8.53211e-12
-4.88751e-11
1.12001e-11
4.94662e-11
6.10442e-11
1.45081e-10
8.62623e-11
1.04663e-10
3.89448e-11
-1.89976e-11
-2.90494e-11
5.61121e-11
4.86425e-11
6.32227e-11
-1.62068e-11
3.75216e-11
-8.05705e-11
3.49398e-11
-6.58978e-11
6.34954e-11
-1.27722e-11
9.12002e-11
1.52815e-11
1.04698e-10
-2.35987e-12
8.90929e-11
-2.98291e-11
7.17829e-11
-2.77551e-11
6.19029e-11
5.42723e-12
1.09037e-10
1.92459e-11
1.37439e-10
1.92769e-11
1.16866e-10
-1.57592e-11
6.23052e-11
-2.93877e-11
2.65744e-11
-1.22117e-11
4.73332e-11
3.59546e-11
8.88553e-11
8.9868e-11
7.90316e-11
6.98676e-11
9.44735e-12
-4.51929e-12
-1.63371e-11
4.58854e-11
4.74705e-11
3.2182e-11
2.75719e-11
6.26686e-11
1.00037e-10
1.14812e-10
8.96322e-11
6.55552e-11
6.6989e-11
9.16784e-11
1.31782e-10
1.35502e-10
8.77339e-11
4.89588e-11
6.54732e-11
8.57841e-11
5.41212e-11
-1.23439e-11
)
;

boundaryField
{
    sides
    {
        type            calculated;
        value           uniform 0;
    }
    inlet
    {
        type            calculated;
        value           uniform 0;
    }
    outlet
    {
        type            calculated;
        value           nonuniform List<scalar> 
20
(
-6.53683e-11
-2.96947e-11
-2.53938e-12
4.29096e-11
3.11697e-11
6.21155e-11
5.47429e-11
5.99806e-11
6.84325e-11
7.1057e-11
7.202e-11
6.56864e-11
5.37642e-11
6.81327e-11
8.34967e-11
7.76232e-11
4.33267e-11
1.63555e-13
-3.09201e-11
-4.29354e-11
)
;
    }
    frontAndBack
    {
        type            empty;
        value           nonuniform List<scalar> 0();
    }
}


// ************************************************************************* //
