/*--------------------------------*- C++ -*----------------------------------*\
  =========                 |
  \\      /  F ield         | OpenFOAM: The Open Source CFD Toolbox
   \\    /   O peration     | Website:  https://openfoam.org
    \\  /    A nd           | Version:  9
     \\/     M anipulation  |
\*---------------------------------------------------------------------------*/
FoamFile
{
    format      ascii;
    class       volScalarField;
    location    "45";
    object      h_0;
}
// * * * * * * * * * * * * * * * * * * * * * * * * * * * * * * * * * * * * * //

dimensions      [0 1 0 0 0 0 0];

internalField   nonuniform List<scalar> 
400
(
0.0100006
0.0100005
0.0100004
0.0100002
0.0100001
0.00999983
0.00999959
0.00999934
0.00999912
0.00999894
0.00999885
0.00999885
0.00999895
0.00999915
0.00999941
0.00999967
0.00999988
0.01
0.0100001
0.01
0.0100005
0.0100004
0.0100003
0.0100002
0.00999997
0.00999973
0.00999947
0.00999919
0.00999893
0.00999872
0.00999861
0.00999862
0.00999877
0.00999901
0.00999931
0.00999959
0.0099998
0.00999991
0.00999997
0.00999999
0.0100005
0.0100004
0.0100003
0.0100002
0.00999996
0.00999971
0.00999941
0.00999909
0.00999879
0.00999853
0.00999839
0.00999839
0.00999856
0.00999889
0.00999929
0.00999966
0.00999993
0.0100001
0.0100001
0.01
0.0100005
0.0100005
0.0100004
0.0100002
0.00999999
0.0099997
0.00999935
0.00999894
0.00999852
0.00999815
0.00999792
0.00999794
0.00999824
0.00999876
0.00999933
0.00999976
0.00999997
0.01
0.00999997
0.00999996
0.0100006
0.0100006
0.0100005
0.0100003
0.0100001
0.00999976
0.00999933
0.0099988
0.00999821
0.00999763
0.00999722
0.00999722
0.00999773
0.00999861
0.00999955
0.0100002
0.0100004
0.0100003
0.0100001
0.00999999
0.0100008
0.0100007
0.0100006
0.0100005
0.0100003
0.00999993
0.00999939
0.00999866
0.00999779
0.00999693
0.00999636
0.0099963
0.00999708
0.00999845
0.00999976
0.0100005
0.0100005
0.0100002
0.00999994
0.00999992
0.0100009
0.0100009
0.0100008
0.0100008
0.0100006
0.0100003
0.00999971
0.00999871
0.00999718
0.00999539
0.00999417
0.00999457
0.00999671
0.0099995
0.0100013
0.0100016
0.0100008
0.0100001
0.00999974
0.00999987
0.010001
0.010001
0.0100011
0.0100011
0.0100011
0.0100009
0.0100004
0.00999931
0.00999741
0.00999434
0.0099903
0.00999024
0.00999452
0.0100002
0.0100033
0.0100031
0.0100013
0.00999986
0.0099995
0.00999983
0.0100011
0.0100012
0.0100014
0.0100016
0.0100019
0.010002
0.0100014
0.00999951
0.00999554
0.00998975
0.00998705
0.0099898
0.00999808
0.0100037
0.0100045
0.0100024
0.0100003
0.00999936
0.00999945
0.00999988
0.0100011
0.0100012
0.0100015
0.010002
0.0100027
0.0100041
0.0100059
0.0100078
0.0100049
0.00897851
0.00895247
0.00997587
0.0100089
0.0100179
0.0100105
0.0100023
0.00999888
0.00999892
0.00999979
0.0100002
0.010001
0.0100012
0.0100014
0.0100019
0.0100026
0.010004
0.0100058
0.0100078
0.0100049
0.00897847
0.0089524
0.00997585
0.0100088
0.0100178
0.0100104
0.0100023
0.00999887
0.00999891
0.00999976
0.0100001
0.0100009
0.010001
0.0100012
0.0100014
0.0100017
0.0100018
0.0100012
0.00999933
0.00999533
0.00998955
0.00998662
0.00998958
0.00999794
0.0100036
0.0100043
0.0100023
0.0100002
0.00999934
0.00999947
0.00999989
0.0100007
0.0100007
0.0100008
0.0100008
0.0100008
0.0100006
0.0100001
0.00999901
0.00999714
0.00999407
0.00999029
0.00999003
0.00999426
0.00999997
0.0100031
0.0100029
0.0100011
0.00999978
0.00999948
0.00999982
0.0100004
0.0100004
0.0100004
0.0100003
0.0100002
0.00999985
0.00999926
0.00999825
0.00999674
0.00999498
0.0099938
0.00999417
0.00999638
0.00999921
0.0100011
0.0100013
0.0100006
0.00999991
0.00999964
0.00999984
0.0100001
0.0100001
0.01
0.00999989
0.00999968
0.00999934
0.00999881
0.00999808
0.00999723
0.00999643
0.00999586
0.00999586
0.00999667
0.00999806
0.00999941
0.0100002
0.0100002
0.01
0.00999983
0.00999989
0.00999987
0.00999982
0.00999972
0.00999957
0.00999934
0.00999903
0.00999862
0.0099981
0.00999752
0.00999695
0.00999657
0.00999662
0.00999715
0.00999808
0.00999907
0.00999976
0.01
0.01
0.00999992
0.00999993
0.00999965
0.00999959
0.00999948
0.00999932
0.00999911
0.00999883
0.0099985
0.00999811
0.00999771
0.00999737
0.00999719
0.00999724
0.00999758
0.00999815
0.0099988
0.00999933
0.00999965
0.00999978
0.00999984
0.00999992
0.00999946
0.0099994
0.00999929
0.00999914
0.00999893
0.00999869
0.00999841
0.00999811
0.00999781
0.00999758
0.00999745
0.00999751
0.00999775
0.00999815
0.00999861
0.00999906
0.00999941
0.00999963
0.00999979
0.00999992
0.00999931
0.00999925
0.00999915
0.00999901
0.00999882
0.0099986
0.00999836
0.00999811
0.00999789
0.00999773
0.00999765
0.00999769
0.00999788
0.00999819
0.00999857
0.00999896
0.0099993
0.00999956
0.00999975
0.00999991
0.00999917
0.00999911
0.00999901
0.00999887
0.00999869
0.00999847
0.00999824
0.00999801
0.00999781
0.00999767
0.00999761
0.00999767
0.00999784
0.00999811
0.00999844
0.00999879
0.00999912
0.0099994
0.00999964
0.00999986
)
;

boundaryField
{
    sides
    {
        type            zeroGradient;
    }
    inlet
    {
        type            zeroGradient;
    }
    outlet
    {
        type            fixedValue;
        value           uniform 0.01;
    }
    frontAndBack
    {
        type            empty;
    }
}


// ************************************************************************* //
