/*--------------------------------*- C++ -*----------------------------------*\
  =========                 |
  \\      /  F ield         | OpenFOAM: The Open Source CFD Toolbox
   \\    /   O peration     | Website:  https://openfoam.org
    \\  /    A nd           | Version:  9
     \\/     M anipulation  |
\*---------------------------------------------------------------------------*/
FoamFile
{
    format      ascii;
    class       volScalarField;
    location    "72";
    object      ddt0(h);
}
// * * * * * * * * * * * * * * * * * * * * * * * * * * * * * * * * * * * * * //

dimensions      [0 1 -1 0 0 0 0];

internalField   nonuniform List<scalar> 
400
(
-2.02872e-08
-3.38673e-09
-1.36914e-09
1.5084e-08
1.97569e-08
1.14055e-08
-8.93082e-09
-1.90458e-08
-1.2472e-08
-2.67576e-08
-3.04996e-08
-1.8207e-08
-4.37809e-10
7.86437e-09
2.05626e-10
-1.45749e-08
-3.20092e-08
-3.7158e-08
-2.3691e-08
-7.60399e-09
-9.68103e-09
-3.37726e-09
-9.27416e-10
5.9817e-09
7.27679e-09
-6.12779e-09
-1.52036e-08
-6.34977e-09
2.73486e-09
6.936e-09
-1.12196e-08
2.24029e-08
7.12913e-09
1.86032e-08
1.91284e-08
6.9631e-09
-4.14549e-09
-1.06429e-08
-1.27007e-08
-5.77965e-09
1.35314e-08
6.30458e-11
-4.93157e-09
-5.93505e-09
-1.50339e-08
-2.08531e-08
-1.03171e-08
4.3136e-08
3.79829e-09
4.73408e-08
3.24964e-09
1.93186e-08
3.24426e-08
-5.0491e-09
1.25705e-08
2.84383e-08
2.75876e-08
1.96657e-08
2.65481e-09
-3.73093e-09
2.64189e-08
3.74547e-09
-2.70739e-09
-1.10926e-08
-2.75857e-08
-2.65032e-08
4.20868e-08
2.69116e-08
2.45507e-08
-2.08485e-08
8.03728e-08
-5.361e-08
1.64349e-08
-3.56998e-09
-3.55619e-08
3.45796e-09
4.01541e-08
3.93227e-08
1.27157e-08
-1.85672e-09
1.97385e-08
6.9427e-09
7.15239e-09
-6.78354e-09
-3.0005e-08
1.01118e-08
4.79939e-08
-4.06723e-08
3.60501e-08
-2.65516e-08
-7.14948e-08
6.57698e-08
-6.22763e-08
-1.60435e-10
-5.79232e-09
-1.98078e-08
1.62472e-08
3.07705e-08
1.16933e-08
-3.26891e-10
8.04142e-09
7.26692e-09
1.86624e-08
-1.84223e-09
-9.32176e-09
3.58155e-08
-2.60775e-08
9.88981e-09
-7.68586e-08
1.47076e-07
-1.20599e-07
1.94241e-09
7.73901e-08
-2.66188e-08
-1.26419e-08
-4.9256e-09
-2.06251e-09
4.96665e-09
7.64521e-09
3.80064e-09
1.25731e-09
1.14147e-08
2.24798e-08
5.35953e-09
8.31278e-09
6.0078e-09
-1.45484e-08
-6.56762e-08
1.37506e-07
-2.53625e-07
4.71409e-07
-2.74898e-07
-2.27055e-08
6.38662e-08
1.72614e-08
4.11281e-09
-4.47959e-09
-1.01593e-09
9.71949e-09
7.86651e-09
1.41796e-10
1.5143e-08
2.40461e-08
9.33374e-09
3.67814e-09
-8.09971e-10
-3.48371e-08
3.94593e-08
7.66077e-09
-2.24146e-07
-1.94584e-06
1.5903e-07
-1.33855e-07
-2.8469e-08
3.06316e-08
1.75951e-08
2.39958e-09
-2.07875e-09
1.16557e-08
9.75617e-09
2.42305e-10
1.63285e-08
1.88136e-08
1.5353e-08
-4.13453e-09
-1.60145e-08
3.03925e-08
-7.36837e-09
2.01601e-08
1.96857e-07
1.97959e-06
-2.17695e-07
1.06812e-07
-7.31023e-09
-1.73245e-08
1.10819e-08
-2.78546e-08
5.3625e-09
1.05558e-08
-2.33461e-08
1.41959e-09
1.03271e-08
1.21044e-08
1.55722e-08
4.37729e-09
-1.21165e-08
3.30333e-08
6.38198e-08
-1.32546e-07
1.63466e-07
-4.95525e-07
2.97197e-07
-4.39477e-08
-8.21239e-08
-3.01159e-08
1.49427e-08
5.43672e-08
4.14516e-09
-4.94082e-09
2.78733e-08
1.99786e-09
5.05814e-09
1.10332e-09
1.93138e-08
1.91275e-08
1.53214e-09
2.96805e-08
-5.57096e-09
-5.55915e-08
5.71061e-09
3.62213e-08
5.99659e-08
-3.72546e-08
-2.14638e-08
-1.08025e-08
7.28376e-09
5.33058e-09
-1.89802e-08
-2.45528e-08
-1.04007e-08
3.60216e-09
4.1972e-09
-1.75142e-09
1.16292e-08
3.76767e-08
1.22679e-08
4.91481e-09
-2.39429e-08
-2.2635e-08
-1.42408e-07
-3.31763e-06
-2.51252e-07
7.22501e-08
3.4547e-09
-1.04131e-08
6.67192e-10
-2.01207e-08
-3.79531e-08
-2.82991e-08
-8.92916e-09
5.67865e-09
8.17627e-09
3.58804e-09
7.99122e-09
2.45917e-08
2.52876e-08
-3.74482e-08
4.19767e-08
-4.39438e-08
1.52476e-07
3.11355e-06
2.57002e-07
-5.88495e-08
-1.82513e-08
2.87497e-08
9.60082e-10
-2.2866e-08
-2.31265e-08
-9.64477e-09
-6.70318e-10
1.13557e-08
1.27056e-08
1.1145e-08
2.92484e-09
5.98476e-09
3.0851e-09
-1.43791e-08
-6.99369e-09
1.31855e-07
-1.9159e-07
3.17311e-07
-1.60185e-07
-5.25798e-08
4.9267e-08
2.38504e-08
-4.92837e-09
-5.12766e-09
4.70813e-09
1.05753e-08
6.34456e-09
2.24433e-08
1.11154e-08
9.41572e-09
-2.65076e-09
-5.4324e-09
-1.04656e-08
-1.86695e-08
-6.84533e-09
3.75918e-08
9.43109e-08
7.73342e-09
1.10462e-08
5.98464e-08
3.95644e-08
2.17038e-09
-8.11364e-09
9.11046e-09
1.79496e-08
1.2713e-08
4.79997e-09
3.247e-08
8.06086e-10
-3.03024e-09
-5.35965e-09
-5.45266e-09
-6.42175e-10
-1.75682e-08
-1.41773e-08
4.46232e-09
4.16908e-08
-1.24712e-08
4.60477e-08
3.63773e-08
1.62251e-08
-4.32779e-09
-9.8582e-09
7.32805e-09
1.18496e-08
-2.64138e-09
-5.31287e-09
3.17976e-08
-9.83731e-09
-1.78583e-08
-1.4666e-09
4.25716e-09
1.12875e-08
4.16321e-09
-1.94232e-08
-1.35656e-08
-2.54451e-09
1.23712e-08
1.37558e-08
1.41002e-09
-7.46252e-10
-1.19429e-08
-1.80576e-08
-2.69043e-09
1.24071e-09
-1.71143e-08
-1.43662e-08
1.58205e-08
-7.87799e-09
-2.04427e-08
1.43445e-09
1.2614e-08
1.345e-08
1.0266e-08
-7.54168e-09
-1.50839e-08
-1.08952e-08
1.75129e-09
-6.22173e-09
-9.10541e-09
-9.12215e-09
-9.91042e-09
-1.31334e-08
-8.56103e-09
-2.71687e-09
-1.17967e-08
-1.04918e-08
-7.74982e-09
2.64854e-09
-2.74115e-09
-2.29822e-09
4.2542e-09
7.06915e-09
4.14283e-09
-3.45496e-09
-1.01196e-08
-4.18149e-09
-9.82028e-10
-2.93139e-10
-1.37429e-09
-1.6436e-09
5.09637e-09
-1.54406e-09
-1.14627e-08
7.1012e-10
1.48326e-08
8.28087e-09
-2.68507e-08
1.0485e-08
1.84829e-08
-3.01986e-09
-9.36281e-09
-3.69527e-09
-2.42345e-09
-8.35277e-09
-7.76396e-09
-2.86638e-09
1.3071e-09
8.41378e-09
8.88052e-09
1.00488e-08
1.56308e-08
6.42261e-09
-1.11239e-08
5.68865e-09
3.88162e-08
2.61762e-08
)
;

boundaryField
{
    sides
    {
        type            calculated;
        value           nonuniform List<scalar> 
40
(
-2.68507e-08
1.0485e-08
1.84829e-08
-3.01986e-09
-9.36281e-09
-3.69527e-09
-2.42345e-09
-8.35277e-09
-7.76396e-09
-2.86638e-09
1.3071e-09
8.41378e-09
8.88052e-09
1.00488e-08
1.56308e-08
6.42261e-09
-1.11239e-08
5.68865e-09
3.88162e-08
2.61762e-08
-2.02872e-08
-3.38673e-09
-1.36914e-09
1.5084e-08
1.97569e-08
1.14055e-08
-8.93082e-09
-1.90458e-08
-1.2472e-08
-2.67576e-08
-3.04996e-08
-1.8207e-08
-4.37809e-10
7.86437e-09
2.05626e-10
-1.45749e-08
-3.20092e-08
-3.7158e-08
-2.3691e-08
-7.60399e-09
)
;
    }
    inlet
    {
        type            calculated;
        value           nonuniform List<scalar> 
20
(
-2.02872e-08
-9.68103e-09
1.35314e-08
2.64189e-08
1.97385e-08
8.04142e-09
1.25731e-09
1.41796e-10
2.42305e-10
1.41959e-09
1.99786e-09
3.60216e-09
5.67865e-09
1.13557e-08
2.24433e-08
3.247e-08
3.17976e-08
1.58205e-08
-7.74982e-09
-2.68507e-08
)
;
    }
    outlet
    {
        type            calculated;
        value           uniform 0;
    }
    frontAndBack
    {
        type            empty;
    }
}


// ************************************************************************* //
