/*--------------------------------*- C++ -*----------------------------------*\
  =========                 |
  \\      /  F ield         | OpenFOAM: The Open Source CFD Toolbox
   \\    /   O peration     | Website:  https://openfoam.org
    \\  /    A nd           | Version:  9
     \\/     M anipulation  |
\*---------------------------------------------------------------------------*/
FoamFile
{
    format      ascii;
    class       volVectorField;
    location    "72";
    object      ddtCorrDdt0(hU);
}
// * * * * * * * * * * * * * * * * * * * * * * * * * * * * * * * * * * * * * //

dimensions      [0 2 -2 0 0 0 0];

internalField   nonuniform List<vector> 
400
(
(-2.00064e-09 1.20159e-09 0)
(1.31106e-09 3.57964e-12 0)
(1.67174e-09 -8.77901e-10 0)
(-3.28517e-10 -1.38277e-09 0)
(-2.67372e-09 -1.77092e-10 0)
(-7.74241e-10 1.38103e-09 0)
(3.09928e-09 2.76197e-09 0)
(4.87641e-09 2.52353e-09 0)
(3.57235e-09 5.29904e-10 0)
(-1.03518e-10 1.23161e-09 0)
(-3.6094e-10 -1.65979e-10 0)
(-8.35459e-10 -2.88322e-09 0)
(-1.80953e-09 -2.95424e-09 0)
(9.81166e-10 -4.42016e-09 0)
(6.63966e-10 -4.083e-09 0)
(-2.9911e-09 -2.17303e-09 0)
(-5.29887e-09 -7.61712e-10 0)
(-6.0715e-09 -1.58953e-09 0)
(-4.8042e-09 -1.44494e-09 0)
(-1.79683e-09 -2.62502e-10 0)
(-2.06995e-09 5.20777e-10 0)
(-1.60413e-09 -6.71936e-10 0)
(-1.2695e-10 -1.78582e-09 0)
(-8.23888e-10 -2.35078e-09 0)
(-8.7225e-10 7.30379e-10 0)
(9.83643e-10 4.44568e-09 0)
(3.89047e-09 6.78471e-09 0)
(3.52957e-09 2.20956e-09 0)
(3.08388e-09 -4.75152e-10 0)
(2.44022e-09 -3.02963e-09 0)
(-2.04007e-09 -2.43331e-09 0)
(1.03931e-09 -9.80657e-09 0)
(-2.51249e-09 -7.52559e-09 0)
(2.83955e-10 -8.48013e-09 0)
(4.28657e-09 -1.01878e-08 0)
(2.70307e-09 -6.37811e-09 0)
(-1.12065e-09 -2.44349e-09 0)
(-3.82567e-09 -2.51342e-09 0)
(-2.75193e-09 -1.16202e-09 0)
(1.57147e-10 5.64127e-10 0)
(-1.17898e-10 -2.44362e-09 0)
(-2.6975e-09 -1.80481e-09 0)
(-1.60673e-09 -1.29326e-09 0)
(-6.55514e-10 -7.86607e-10 0)
(1.29055e-09 2.78668e-09 0)
(3.48744e-09 6.05978e-09 0)
(1.49669e-09 4.18138e-09 0)
(2.83335e-09 -5.72334e-09 0)
(-1.67151e-09 -1.6781e-09 0)
(4.74058e-09 -8.07317e-09 0)
(-2.39397e-09 -4.62694e-09 0)
(-7.64803e-10 -5.9352e-09 0)
(3.12143e-09 -9.66103e-09 0)
(-4.41958e-09 -2.76363e-09 0)
(2.57923e-09 -5.12996e-09 0)
(9.429e-09 -7.12871e-09 0)
(6.60063e-09 -5.86755e-09 0)
(1.76758e-09 -4.19949e-09 0)
(-1.54553e-10 -7.60058e-10 0)
(3.61612e-10 1.18453e-09 0)
(1.41646e-09 -3.93702e-09 0)
(-1.90748e-09 -1.98038e-09 0)
(-1.29413e-09 -5.03967e-10 0)
(4.69565e-10 1.1715e-09 0)
(3.38871e-09 3.65811e-09 0)
(2.43965e-09 3.76984e-09 0)
(-1.09736e-09 -7.02039e-09 0)
(-5.50743e-10 -4.7492e-09 0)
(8.56582e-10 -5.54557e-09 0)
(-4.46585e-09 3.9805e-09 0)
(1.11872e-08 -7.9115e-09 0)
(-9.27128e-09 2.71983e-09 0)
(1.67987e-09 -5.34247e-10 0)
(8.88955e-10 8.70459e-10 0)
(-7.60835e-09 6.55499e-09 0)
(1.94391e-09 1.2782e-09 0)
(9.11464e-09 -5.5683e-09 0)
(7.71957e-09 -6.64418e-09 0)
(3.59821e-09 -1.91507e-09 0)
(8.38314e-10 1.28429e-09 0)
(1.89345e-09 -3.78227e-09 0)
(1.86449e-10 -1.72272e-09 0)
(1.9337e-11 -1.59071e-10 0)
(2.06544e-09 1.69297e-09 0)
(3.58388e-09 2.87364e-09 0)
(-1.40879e-09 -3.89977e-09 0)
(-2.5767e-10 -9.41146e-09 0)
(-5.53535e-09 -4.61676e-10 0)
(7.14318e-09 -1.20729e-09 0)
(-5.76369e-09 2.45032e-09 0)
(-9.58334e-09 8.53764e-09 0)
(1.4791e-08 -8.32065e-09 0)
(-8.13142e-09 5.07635e-09 0)
(6.44351e-10 4.97323e-09 0)
(-1.02638e-09 8.30826e-09 0)
(-7.11528e-09 8.66011e-09 0)
(1.02065e-09 1.67343e-09 0)
(8.34531e-09 -2.67561e-09 0)
(6.41475e-09 -5.02792e-10 0)
(8.03646e-10 1.49832e-09 0)
(1.59257e-09 -1.72088e-09 0)
(1.87516e-09 -1.66254e-09 0)
(1.19602e-09 -7.23457e-10 0)
(2.89024e-09 1.01659e-09 0)
(1.01607e-09 -6.68766e-10 0)
(-9.18707e-10 -6.97947e-09 0)
(-3.3142e-09 -3.13986e-09 0)
(4.44991e-09 -9.01352e-10 0)
(-9.91568e-09 5.37934e-09 0)
(2.09206e-08 -1.49494e-08 0)
(-1.7104e-08 2.18969e-08 0)
(-4.53196e-09 1.10111e-08 0)
(2.21173e-08 -1.20692e-08 0)
(-1.14726e-09 4.29907e-10 0)
(-4.18176e-09 4.54728e-09 0)
(-4.88408e-09 6.84417e-09 0)
(-2.57059e-09 5.71598e-09 0)
(4.16752e-09 2.16349e-09 0)
(4.43979e-09 1.02869e-09 0)
(-9.23635e-10 1.26856e-09 0)
(6.68259e-10 9.95793e-10 0)
(1.82923e-09 -1.46583e-09 0)
(1.30864e-09 -1.42555e-09 0)
(1.7839e-09 -5.73354e-10 0)
(7.27523e-10 -2.97709e-09 0)
(-1.68719e-09 -3.43602e-09 0)
(1.03289e-09 4.09401e-11 0)
(-1.35801e-09 -8.30811e-10 0)
(2.65429e-10 -1.00562e-08 0)
(-1.45492e-08 2.04455e-08 0)
(7.48656e-08 7.11458e-09 0)
(-5.05689e-08 2.57736e-08 0)
(-1.50302e-08 -2.79413e-09 0)
(2.1634e-08 -1.10234e-08 0)
(5.0305e-09 -3.5489e-09 0)
(-2.93297e-09 1.07605e-09 0)
(-1.77299e-09 3.82997e-09 0)
(2.57177e-09 2.24833e-09 0)
(2.50602e-09 5.28295e-10 0)
(-2.41703e-09 6.99803e-10 0)
(-5.69012e-10 2.10316e-09 0)
(4.20616e-10 -1.18359e-09 0)
(2.06128e-10 -1.18558e-09 0)
(1.00468e-09 -1.16981e-09 0)
(5.44646e-10 -2.58228e-09 0)
(9.38727e-10 6.63939e-10 0)
(-2.89907e-10 4.80241e-10 0)
(-4.27836e-09 -5.97939e-09 0)
(1.65979e-08 1.39658e-10 0)
(2.68702e-10 -9.96688e-09 0)
(-1.96165e-07 -2.76857e-08 0)
(5.84636e-09 -3.32886e-08 0)
(-3.59764e-08 2.8247e-09 0)
(-4.55967e-09 -9.00662e-10 0)
(1.029e-08 -7.93671e-09 0)
(5.28624e-09 -6.5393e-09 0)
(2.65776e-09 -1.98518e-09 0)
(2.05123e-09 -4.49828e-10 0)
(6.03176e-10 -9.33887e-10 0)
(-3.04905e-09 1.01819e-10 0)
(-1.40248e-09 9.58798e-10 0)
(-7.4055e-10 -1.04701e-09 0)
(-8.02323e-10 -8.29939e-11 0)
(1.74913e-10 3.0733e-10 0)
(2.15603e-09 -1.28827e-09 0)
(1.27127e-09 9.24983e-10 0)
(-1.83521e-10 -4.76922e-10 0)
(2.4431e-09 -7.84305e-09 0)
(-1.82565e-08 8.41086e-10 0)
(2.49426e-09 -1.43544e-09 0)
(2.0708e-07 -2.96795e-08 0)
(-1.30256e-08 -2.24643e-08 0)
(3.18124e-08 1.21213e-08 0)
(1.58581e-09 4.00056e-09 0)
(-6.04146e-09 -4.13583e-09 0)
(4.2443e-09 -5.00843e-09 0)
(4.86061e-09 -3.02766e-09 0)
(5.80307e-09 -1.96805e-09 0)
(6.15029e-10 -2.20231e-09 0)
(-6.44815e-09 -8.5948e-10 0)
(-1.32912e-09 -7.40965e-10 0)
(-7.08744e-10 -9.61191e-10 0)
(-7.07983e-10 1.01299e-09 0)
(-3.54501e-10 1.92249e-09 0)
(1.75821e-09 -3.9262e-11 0)
(2.06436e-09 -2.76847e-09 0)
(-1.79771e-09 -2.82628e-09 0)
(-1.9774e-09 -2.16614e-09 0)
(7.51748e-09 -3.43568e-09 0)
(9.3763e-09 3.09611e-08 0)
(-6.95392e-08 2.55184e-08 0)
(6.36652e-08 3.2664e-08 0)
(2.26975e-10 1.63578e-08 0)
(-2.72113e-08 3.23033e-09 0)
(-5.87715e-09 1.88912e-09 0)
(6.51835e-09 3.40949e-09 0)
(1.26919e-08 2.17846e-09 0)
(4.35951e-09 -5.39553e-10 0)
(-1.92532e-09 -2.7699e-09 0)
(4.61638e-11 -1.39861e-09 0)
(-8.29589e-10 -1.42344e-09 0)
(3.85657e-10 -3.24829e-10 0)
(4.19404e-12 8.55591e-10 0)
(-6.82532e-10 2.07372e-09 0)
(-6.41928e-12 1.5377e-10 0)
(6.90771e-10 -4.5384e-09 0)
(4.31774e-10 -3.6208e-09 0)
(1.30186e-09 1.41338e-09 0)
(1.09814e-08 1.48827e-08 0)
(1.40001e-08 -1.40808e-08 0)
(6.03986e-09 8.40772e-08 0)
(3.53603e-09 3.47115e-08 0)
(-1.13838e-08 -7.72134e-09 0)
(-1.44369e-08 8.02076e-09 0)
(-5.04319e-09 7.88598e-09 0)
(4.53157e-09 6.6986e-09 0)
(4.77532e-09 3.79796e-09 0)
(-1.50506e-09 -7.00266e-10 0)
(-5.20943e-09 -2.99862e-09 0)
(-2.7806e-09 -1.27542e-09 0)
(-5.89361e-11 -1.03705e-09 0)
(1.36796e-09 8.0516e-10 0)
(8.57739e-10 2.2819e-10 0)
(-9.85618e-10 -2.63591e-10 0)
(-1.68018e-09 9.85915e-11 0)
(1.96775e-11 -2.70702e-09 0)
(1.03358e-09 1.48464e-10 0)
(8.15428e-09 7.19878e-09 0)
(3.44905e-09 -7.33023e-09 0)
(5.26308e-08 -6.11629e-09 0)
(-3.01328e-07 -8.42059e-08 0)
(-9.56131e-08 -3.89548e-08 0)
(-1.60084e-08 -8.12134e-09 0)
(-1.03971e-09 -5.99286e-09 0)
(-4.23643e-09 3.04918e-09 0)
(1.26373e-09 4.65758e-09 0)
(-2.88312e-09 1.0304e-09 0)
(-7.34644e-09 -2.25143e-09 0)
(-5.50228e-09 -2.37681e-09 0)
(-4.13456e-10 -1.03317e-09 0)
(6.7966e-10 -3.29834e-10 0)
(2.11012e-09 1.80362e-09 0)
(6.20304e-10 -2.55663e-10 0)
(-9.95593e-10 -2.65396e-09 0)
(-2.38368e-09 -1.21673e-09 0)
(1.5615e-09 2.05671e-09 0)
(2.91141e-09 3.23572e-09 0)
(-6.26819e-10 9.38919e-09 0)
(-1.78092e-09 -1.06318e-08 0)
(-4.5264e-08 -1.22626e-08 0)
(2.82173e-07 -8.97299e-08 0)
(1.0117e-07 -3.18759e-08 0)
(1.91959e-08 -1.69041e-08 0)
(-1.62655e-09 -1.18302e-08 0)
(1.15239e-08 -1.49996e-09 0)
(2.05048e-09 -8.42201e-10 0)
(-6.85692e-09 -2.30573e-09 0)
(-6.7827e-09 -1.58515e-09 0)
(-1.94478e-09 -6.93789e-10 0)
(2.32768e-09 -3.6302e-10 0)
(1.76573e-09 -5.29924e-11 0)
(2.23415e-09 1.78292e-09 0)
(-8.98919e-11 -1.4037e-10 0)
(-1.50967e-09 -2.60526e-09 0)
(-9.88829e-10 -1.16243e-09 0)
(1.53819e-09 3.64818e-09 0)
(5.14192e-09 5.46309e-09 0)
(-2.76884e-09 4.0198e-09 0)
(-2.33034e-09 1.11951e-08 0)
(-2.82965e-08 -1.18431e-08 0)
(4.39097e-08 6.48758e-08 0)
(-1.51561e-08 1.8785e-08 0)
(-9.85325e-09 -5.28574e-09 0)
(2.16019e-08 3.7485e-09 0)
(1.29077e-08 -3.08861e-10 0)
(-1.87465e-10 -4.37891e-09 0)
(-5.09372e-09 -3.55763e-09 0)
(-3.41832e-09 -8.69979e-10 0)
(1.19405e-09 1.94504e-11 0)
(4.34423e-09 -2.73389e-10 0)
(3.13808e-09 -1.58129e-10 0)
(2.2247e-09 8.10942e-10 0)
(-3.75237e-10 8.07629e-10 0)
(-1.47874e-09 -4.79924e-10 0)
(-2.70176e-10 7.21107e-10 0)
(2.09096e-09 2.98944e-09 0)
(3.76536e-09 3.89952e-09 0)
(1.46151e-09 1.66968e-09 0)
(-5.52308e-09 8.04332e-09 0)
(1.16042e-09 1.35731e-08 0)
(-2.71989e-09 1.47158e-08 0)
(1.76858e-09 5.84345e-10 0)
(1.6786e-08 1.6373e-08 0)
(1.2751e-08 9.17812e-09 0)
(3.64017e-09 -8.34108e-10 0)
(-2.27822e-09 -4.23713e-09 0)
(-3.74744e-09 -3.29239e-09 0)
(-1.41355e-09 -7.67539e-10 0)
(2.80784e-09 1.60649e-10 0)
(5.28667e-09 -2.91565e-10 0)
(4.23714e-09 5.06933e-10 0)
(2.24295e-09 -8.60987e-11 0)
(3.03468e-10 1.20273e-09 0)
(-6.90687e-10 1.38668e-09 0)
(8.81837e-11 1.63146e-09 0)
(1.48857e-09 2.6047e-09 0)
(1.97712e-09 5.20855e-10 0)
(1.95195e-09 -1.45779e-09 0)
(-7.48952e-11 -6.70604e-10 0)
(2.83851e-09 7.62632e-09 0)
(-4.93906e-09 7.2183e-09 0)
(3.43842e-09 1.34277e-08 0)
(8.55158e-09 1.0933e-08 0)
(4.19467e-09 4.94755e-09 0)
(-1.91035e-10 -7.23059e-10 0)
(-3.2803e-09 -3.6489e-09 0)
(-4.38133e-09 -2.33466e-09 0)
(-1.72367e-09 8.60967e-10 0)
(2.19865e-09 1.23465e-09 0)
(4.59636e-09 -1.19728e-10 0)
(3.57286e-09 2.64935e-09 0)
(1.79115e-09 4.14013e-11 0)
(1.46988e-09 -2.78454e-10 0)
(7.63573e-10 6.77342e-10 0)
(6.47939e-10 5.84677e-10 0)
(3.22037e-10 1.23358e-09 0)
(4.03337e-10 2.66733e-10 0)
(4.66385e-10 -2.87566e-09 0)
(1.35048e-09 -3.39706e-09 0)
(4.49134e-10 -2.32168e-09 0)
(7.59269e-10 -1.75264e-09 0)
(2.75314e-09 4.59689e-09 0)
(2.44923e-09 4.2712e-09 0)
(3.33351e-10 2.13816e-09 0)
(-3.1699e-09 -1.33786e-09 0)
(-5.12627e-09 -3.63563e-09 0)
(-4.43667e-09 -7.67853e-10 0)
(-1.86482e-09 3.99366e-09 0)
(6.39612e-10 3.47874e-09 0)
(2.91541e-09 5.24428e-10 0)
(6.77587e-10 4.68891e-09 0)
(2.2627e-10 1.44506e-09 0)
(2.01823e-09 -2.62623e-09 0)
(2.32727e-09 -2.6488e-09 0)
(1.29222e-09 -1.29056e-09 0)
(1.98577e-11 -2.59859e-11 0)
(-7.16097e-10 1.17889e-09 0)
(2.57553e-10 9.00446e-11 0)
(1.21099e-09 -1.18209e-09 0)
(7.77261e-11 -2.46429e-09 0)
(1.03708e-09 -1.52482e-09 0)
(1.47809e-09 5.20096e-11 0)
(1.49919e-09 7.05934e-10 0)
(-9.67436e-10 -1.29213e-10 0)
(-3.67657e-09 -1.96571e-09 0)
(-3.32938e-09 -2.77302e-09 0)
(-1.95587e-09 7.92193e-10 0)
(-9.32486e-10 6.00866e-09 0)
(-1.94638e-10 5.0566e-09 0)
(1.2227e-09 1.1587e-09 0)
(-2.6613e-09 5.12729e-09 0)
(-1.92687e-09 2.79762e-09 0)
(1.19755e-09 -2.94583e-09 0)
(3.08236e-09 -4.93087e-09 0)
(2.3255e-09 -2.48255e-09 0)
(2.75158e-10 -4.45243e-10 0)
(-5.19138e-10 1.13672e-09 0)
(8.44576e-10 2.35705e-09 0)
(1.30863e-09 1.78169e-09 0)
(5.42893e-10 1.4422e-09 0)
(6.82513e-11 1.90951e-09 0)
(1.27363e-09 1.71864e-09 0)
(2.07765e-09 9.79149e-10 0)
(1.85456e-13 -1.68327e-10 0)
(-1.86818e-09 -7.84287e-10 0)
(-1.04623e-09 -1.26031e-09 0)
(5.26704e-10 1.1783e-09 0)
(8.7762e-10 5.42558e-09 0)
(1.26143e-09 4.98363e-09 0)
(1.05085e-09 1.40286e-09 0)
(-5.062e-09 2.4634e-09 0)
(-3.97369e-09 1.60655e-09 0)
(-3.48399e-10 -1.13117e-09 0)
(2.91315e-09 -2.52384e-09 0)
(3.0687e-09 -1.3909e-09 0)
(6.48005e-10 -3.20581e-10 0)
(1.44483e-10 4.2441e-10 0)
(1.54436e-09 1.23863e-09 0)
(2.34363e-09 1.43547e-09 0)
(1.41287e-09 1.64493e-09 0)
(1.45328e-10 2.00829e-09 0)
(5.78618e-10 1.78396e-09 0)
(1.43259e-09 8.81673e-10 0)
(6.50636e-10 1.70997e-10 0)
(-8.09118e-10 -4.12385e-11 0)
(3.96148e-10 -2.69499e-10 0)
(2.6591e-09 6.09602e-10 0)
(2.84267e-09 2.34951e-09 0)
(2.7113e-09 2.36225e-09 0)
(6.33884e-10 7.37107e-10 0)
)
;

boundaryField
{
    sides
    {
        type            calculated;
        value           nonuniform List<vector> 
40
(
(-5.062e-09 0 0)
(-3.97369e-09 0 0)
(-3.48399e-10 0 0)
(2.91315e-09 0 0)
(3.0687e-09 0 0)
(6.48005e-10 0 0)
(1.44483e-10 0 0)
(1.54436e-09 0 0)
(2.34363e-09 0 0)
(1.41287e-09 0 0)
(1.45328e-10 0 0)
(5.78618e-10 0 0)
(1.43259e-09 0 0)
(6.50636e-10 0 0)
(-8.09118e-10 0 0)
(3.96148e-10 0 0)
(2.6591e-09 0 0)
(2.84267e-09 0 0)
(2.7113e-09 0 0)
(6.33884e-10 0 0)
(-2.00064e-09 0 0)
(1.31106e-09 0 0)
(1.67174e-09 0 0)
(-3.28517e-10 0 0)
(-2.67372e-09 0 0)
(-7.74241e-10 0 0)
(3.09928e-09 0 0)
(4.87641e-09 0 0)
(3.57235e-09 0 0)
(-1.03518e-10 0 0)
(-3.6094e-10 0 0)
(-8.35459e-10 0 0)
(-1.80953e-09 0 0)
(9.81166e-10 0 0)
(6.63966e-10 0 0)
(-2.9911e-09 0 0)
(-5.29887e-09 0 0)
(-6.0715e-09 0 0)
(-4.8042e-09 0 0)
(-1.79683e-09 0 0)
)
;
    }
    inlet
    {
        type            calculated;
        value           uniform (0 0 0);
    }
    outlet
    {
        type            calculated;
        value           nonuniform List<vector> 
20
(
(-1.79683e-09 -2.62502e-10 0)
(1.57147e-10 5.64127e-10 0)
(3.61612e-10 1.18453e-09 0)
(8.38314e-10 1.28429e-09 0)
(8.03646e-10 1.49832e-09 0)
(-9.23635e-10 1.26856e-09 0)
(-2.41703e-09 6.99803e-10 0)
(-3.04905e-09 1.01819e-10 0)
(-6.44815e-09 -8.5948e-10 0)
(4.61638e-11 -1.39861e-09 0)
(-2.7806e-09 -1.27542e-09 0)
(-4.13456e-10 -1.03317e-09 0)
(2.32768e-09 -3.6302e-10 0)
(4.34423e-09 -2.73389e-10 0)
(5.28667e-09 -2.91565e-10 0)
(4.59636e-09 -1.19728e-10 0)
(2.91541e-09 5.24428e-10 0)
(1.2227e-09 1.1587e-09 0)
(1.05085e-09 1.40286e-09 0)
(6.33884e-10 7.37107e-10 0)
)
;
    }
    frontAndBack
    {
        type            empty;
    }
}


// ************************************************************************* //
