/*--------------------------------*- C++ -*----------------------------------*\
  =========                 |
  \\      /  F ield         | OpenFOAM: The Open Source CFD Toolbox
   \\    /   O peration     | Website:  https://openfoam.org
    \\  /    A nd           | Version:  9
     \\/     M anipulation  |
\*---------------------------------------------------------------------------*/
FoamFile
{
    format      ascii;
    class       surfaceScalarField;
    location    "72";
    object      ddtCorrDdt0(phi);
}
// * * * * * * * * * * * * * * * * * * * * * * * * * * * * * * * * * * * * * //

dimensions      [0 4 -2 0 0 0 0];

internalField   nonuniform List<scalar> 
760
(
1.88823e-12
1.61231e-12
8.22046e-12
-5.21638e-13
8.9496e-12
-7.83319e-12
-1.65704e-11
-1.12103e-11
-1.4369e-11
2.07179e-12
4.64794e-12
1.86219e-11
3.24143e-11
3.0442e-11
2.06582e-11
2.36112e-11
5.82165e-12
-8.00865e-12
-4.92488e-12
-3.60549e-12
1.01628e-11
-5.37127e-12
-1.58486e-11
-4.29653e-11
-6.73334e-12
-3.34621e-11
9.50535e-12
-4.94677e-11
-6.85302e-12
-4.54034e-11
-2.33525e-11
-2.44624e-11
-2.23458e-11
-1.0482e-11
-3.02763e-11
-1.23817e-11
-2.00414e-11
-6.3365e-12
-4.32338e-13
-1.25183e-11
-8.90829e-12
-2.2823e-12
-8.71106e-12
-1.20288e-12
-8.68551e-12
-9.56164e-12
-7.93435e-12
-2.82766e-12
1.14452e-11
1.59652e-11
3.26811e-11
3.00328e-11
4.19632e-11
3.95297e-12
-8.76101e-12
2.33362e-11
-1.5526e-11
-5.86247e-12
-5.10023e-11
1.04438e-12
-1.64487e-12
-1.36334e-12
-6.94795e-11
-1.79142e-11
-4.8503e-11
1.65743e-11
-4.23474e-11
2.13203e-11
-6.05891e-11
6.34474e-12
-4.46545e-11
-1.50096e-11
-2.33619e-11
-2.02577e-11
-2.03497e-11
-5.48654e-12
-7.28305e-12
5.61778e-12
-1.49455e-11
-1.7779e-11
-7.2522e-12
-1.17266e-11
-1.00954e-11
-4.1903e-12
8.52004e-13
1.71841e-12
1.47611e-11
1.92879e-11
2.78122e-11
3.19259e-11
-2.80562e-12
1.95652e-13
4.98462e-12
-5.88417e-11
-1.9716e-12
-7.82849e-12
2.70692e-11
-3.5009e-11
-3.48182e-11
-2.57134e-11
2.95965e-11
1.33096e-11
-1.5185e-11
-4.53898e-11
-1.37771e-11
1.3365e-11
4.06339e-11
1.34515e-11
4.75369e-11
-2.44223e-11
1.70287e-11
-3.96707e-11
-7.32502e-13
-3.2003e-11
6.18861e-13
-6.77678e-12
5.38331e-12
-9.56463e-12
-2.15231e-11
-3.73706e-12
-7.67294e-12
-1.1225e-11
-1.122e-12
1.38966e-11
9.60311e-12
2.94786e-11
1.78603e-11
1.37658e-11
6.32309e-12
-5.0834e-11
-7.69633e-11
4.76012e-11
7.51423e-12
-5.03383e-11
-4.69528e-11
4.52914e-11
7.71515e-11
3.61712e-12
-4.33006e-11
-4.1382e-11
2.25933e-11
3.67877e-11
4.49927e-11
-3.57952e-11
3.00434e-13
-1.68516e-11
5.51967e-11
3.6515e-11
4.55554e-11
4.04428e-11
-3.87075e-12
2.81941e-11
-1.94712e-11
1.3029e-11
-4.11333e-12
7.2275e-12
5.12483e-12
-1.58266e-11
-9.77111e-13
-7.57379e-12
-3.5788e-12
-4.48973e-14
2.39503e-11
6.89404e-12
3.3768e-11
9.90507e-12
-5.30859e-11
-5.13723e-11
1.60274e-11
-1.6016e-11
-2.64592e-11
-1.19035e-11
6.14558e-11
4.41612e-11
-1.19174e-10
-8.49431e-11
7.91547e-11
2.38354e-10
-5.12253e-12
-1.20596e-10
-2.676e-11
-1.57471e-12
1.8067e-11
5.31156e-11
-3.26929e-11
2.44957e-11
-2.27801e-11
3.78818e-11
2.60784e-11
2.872e-11
4.65545e-11
6.48343e-12
1.88014e-11
4.01041e-12
7.23826e-12
1.62839e-11
-1.00484e-12
2.00931e-12
-7.70923e-12
1.21553e-12
-6.84189e-12
3.4779e-11
2.88201e-12
-1.02329e-11
-1.94085e-11
-2.99908e-11
-2.24751e-11
2.12614e-11
-9.18549e-12
-3.36359e-12
1.20558e-11
-1.77709e-11
-4.10348e-13
9.80945e-11
-8.81431e-11
-1.70963e-10
6.078e-11
1.24416e-10
2.60051e-10
4.03653e-11
-1.3213e-10
-1.9204e-11
-6.13611e-11
-2.0939e-11
1.21913e-11
-3.07594e-11
2.08019e-11
5.19679e-12
2.66184e-11
3.40476e-11
1.63237e-11
9.03726e-12
6.59806e-12
5.34255e-12
1.55065e-11
1.07744e-11
-1.70849e-12
-7.25041e-12
7.72033e-12
-7.84503e-12
1.77139e-11
-9.50361e-12
-1.19996e-11
-1.13139e-11
-1.36315e-11
-1.08932e-11
2.33856e-11
1.23236e-11
2.20189e-11
-2.09393e-11
-1.71385e-10
-1.22307e-10
3.27779e-10
4.29928e-10
1.83402e-11
1.20515e-09
-2.64247e-10
-1.01747e-11
9.49467e-11
1.49522e-10
6.74864e-11
-4.02121e-11
-6.04937e-12
-5.66043e-11
-2.00247e-11
-1.78512e-11
5.0269e-12
-1.228e-12
2.20212e-11
5.29086e-12
-9.41803e-13
-1.63587e-12
1.1402e-13
4.01262e-12
9.37773e-12
-5.69353e-12
-5.51556e-12
1.38397e-12
-4.30307e-12
1.27597e-11
-2.67675e-12
-7.78558e-12
-1.29842e-11
1.06597e-11
2.2297e-11
1.75284e-11
-2.31638e-11
-9.78264e-11
-3.03268e-11
2.17955e-10
1.43478e-10
-5.8427e-10
-5.29511e-10
-4.23116e-10
-2.68957e-08
-1.37996e-10
-2.8571e-10
-1.01254e-10
-8.79802e-11
4.0863e-11
2.80826e-11
3.65932e-11
-2.59808e-11
1.6905e-11
-1.82151e-11
1.31576e-11
-1.32043e-11
1.20032e-11
-1.30169e-11
-9.80908e-12
-1.08634e-11
2.02413e-12
-5.95795e-12
-3.66417e-13
-8.29907e-12
-4.99961e-12
-1.56021e-12
3.99361e-12
-5.93142e-13
6.18432e-12
2.59282e-11
9.42297e-13
2.33297e-12
-1.35396e-11
-3.01221e-11
5.91446e-12
7.77354e-11
-5.08965e-11
-2.26492e-10
-1.06822e-10
6.53201e-10
5.8125e-10
4.12463e-10
7.43064e-10
1.08012e-10
1.36488e-10
8.39066e-11
2.82091e-10
-3.49055e-11
7.28932e-11
-8.93504e-12
-1.6134e-11
2.96973e-11
3.16879e-12
3.46864e-11
2.13917e-09
1.50909e-11
-1.13458e-11
-1.67585e-11
-7.08764e-12
-3.11584e-10
-8.54535e-12
-7.14932e-12
-3.01513e-12
-4.12328e-12
-2.88649e-12
7.36813e-12
-4.66693e-12
1.36599e-11
2.19431e-11
-3.236e-12
1.74616e-11
-2.03865e-11
-4.90032e-11
-2.89295e-11
-2.01828e-11
2.62885e-11
2.15059e-10
7.04784e-11
-3.74284e-10
-7.62597e-11
9.39858e-11
3.43604e-10
2.22161e-10
1.4029e-10
-1.53623e-10
-6.2712e-11
-7.07431e-11
1.90441e-11
6.74438e-12
2.7874e-11
5.20515e-11
2.79987e-11
4.89092e-11
2.32158e-11
5.66634e-12
4.62669e-12
-1.08219e-11
-1.03178e-11
-2.74963e-12
-5.35691e-12
-7.20984e-12
5.03451e-12
9.4201e-13
3.34849e-12
2.11452e-12
-1.52239e-11
8.38303e-12
9.90786e-12
-3.97072e-13
8.32374e-12
-2.89858e-11
-2.62437e-11
-1.00458e-12
4.06469e-11
7.33993e-12
1.02649e-10
1.05119e-10
3.70888e-11
-1.43413e-10
5.4999e-13
-2.78172e-11
-6.01925e-13
9.91821e-11
-7.60298e-11
-1.01411e-10
-5.96396e-11
-5.53363e-12
9.62531e-12
3.45975e-11
2.70227e-11
4.10515e-11
1.17425e-11
2.10952e-11
-2.18157e-11
-6.85683e-12
-2.06842e-11
-1.4173e-11
-7.85778e-12
1.4302e-12
-2.54165e-12
7.65575e-12
6.57237e-12
1.00464e-11
-1.12991e-12
-1.63034e-11
-1.12691e-11
-1.76303e-11
-7.57083e-13
2.21437e-11
5.33548e-14
-2.06435e-11
1.15107e-11
1.01003e-10
4.2044e-11
-6.47516e-11
-1.68728e-10
-1.54363e-10
-1.02559e-11
-1.38257e-09
1.23683e-08
-2.34734e-10
-4.40335e-10
1.21198e-11
-2.60438e-11
-3.26512e-11
-7.65999e-11
2.83815e-12
-1.5582e-11
-1.99005e-12
6.96691e-12
-2.93117e-11
-8.58555e-12
-3.52749e-11
-1.38103e-11
-1.38992e-11
-9.09687e-12
-3.5664e-12
8.83158e-12
1.0767e-14
7.1115e-12
1.03151e-11
4.74731e-12
-3.96573e-12
-1.02907e-11
-1.72393e-11
-2.28569e-11
-9.45896e-12
2.21172e-11
2.52318e-11
4.96057e-11
2.3069e-11
-8.91819e-11
2.77111e-11
1.1684e-10
4.05417e-11
1.07539e-10
-1.35184e-10
1.33866e-09
-5.63726e-11
2.78816e-10
2.36402e-10
-3.42208e-11
-1.48569e-10
4.91233e-11
-1.78131e-11
3.93916e-11
5.79728e-12
-1.8747e-11
-9.8309e-12
-4.08272e-11
-2.1858e-11
-2.34179e-11
-1.00462e-11
3.28561e-12
-2.76723e-12
-2.21753e-12
1.60668e-11
-7.42447e-13
2.17658e-12
6.07489e-12
-2.49789e-12
1.02988e-12
-8.83942e-12
-9.52138e-12
-5.20531e-12
-9.47784e-13
1.61737e-11
1.55899e-11
5.15095e-11
3.27991e-11
-5.167e-11
1.27727e-11
-9.84058e-11
8.32925e-11
3.14775e-11
-9.9559e-12
1.60093e-10
1.05728e-10
-1.5895e-10
-1.47523e-10
6.74914e-11
5.00197e-11
9.87853e-11
4.70312e-11
2.94611e-11
-3.32121e-12
-1.9091e-11
-2.33918e-11
-2.9351e-11
-1.90667e-11
-6.89696e-12
-5.64324e-12
1.71112e-11
-6.39818e-13
-1.58148e-12
1.88533e-11
-1.74528e-12
3.75804e-12
8.0337e-13
-8.11678e-12
7.08327e-12
-3.87757e-12
5.5645e-12
-6.33269e-13
9.05128e-12
2.04306e-11
1.36348e-11
2.6614e-11
5.9419e-12
-2.03017e-12
4.6897e-12
-5.73227e-11
1.06252e-11
3.10986e-11
9.77017e-11
-3.16183e-11
3.44864e-10
6.62378e-11
9.93023e-11
7.9179e-11
7.76607e-11
4.07175e-11
3.37194e-11
5.3674e-12
-6.80155e-12
-1.90435e-11
-1.86529e-11
-2.23239e-11
-1.23999e-11
3.12506e-12
-7.50092e-13
2.50807e-11
3.27714e-12
-4.22436e-13
1.71792e-11
5.82252e-12
1.23919e-11
-2.27333e-12
-6.32394e-12
6.28828e-12
-7.9108e-14
1.0586e-11
1.16941e-12
7.83964e-12
7.03426e-12
1.02832e-11
2.04295e-11
-4.46284e-12
5.76911e-12
-2.04346e-11
-4.39514e-12
-1.96843e-11
6.50096e-12
3.5204e-12
-2.65259e-11
-4.2658e-13
4.68584e-11
5.29937e-11
3.36392e-11
4.15175e-11
6.92829e-12
2.03011e-11
-3.68939e-12
-1.112e-12
-2.1649e-11
-1.61266e-11
-2.64739e-11
-7.21117e-12
2.85334e-12
1.27839e-11
2.30919e-11
1.32196e-11
1.72252e-12
7.0452e-12
2.01954e-11
2.13584e-11
2.81376e-12
2.3923e-12
-7.92758e-12
1.8882e-12
-2.03102e-12
4.01985e-12
-2.10469e-12
-6.0753e-12
7.67646e-13
6.80427e-12
4.96871e-12
8.33837e-12
-1.09031e-11
6.33675e-12
-1.73752e-11
-3.57239e-12
-2.4465e-11
8.31286e-12
8.37419e-12
1.68361e-11
3.92892e-12
9.01358e-12
6.86739e-12
-9.54035e-12
4.53987e-12
-1.97176e-11
-1.03005e-11
-2.42679e-11
-1.75348e-11
-2.40012e-11
2.05405e-12
-1.50591e-12
2.94372e-11
1.4468e-11
2.42203e-11
4.77915e-12
-8.05844e-12
2.82801e-11
1.52134e-11
1.19591e-11
1.46719e-11
-2.0356e-11
5.56229e-12
-2.39756e-11
4.10527e-12
-8.60119e-12
-5.977e-12
5.22553e-13
-4.57069e-12
8.33052e-12
1.16863e-11
1.17943e-11
3.88161e-12
2.3928e-12
-1.9918e-12
-5.49254e-12
6.17009e-12
-1.59744e-12
1.03586e-11
-1.85688e-12
6.32702e-12
-5.25075e-13
-1.7509e-11
-6.62904e-12
-2.10689e-11
-1.08054e-11
-9.43159e-12
-1.24029e-11
-8.15679e-12
4.09509e-12
-5.1075e-12
2.8795e-11
4.66395e-12
2.27849e-11
4.9022e-12
-1.68154e-11
2.28204e-11
-6.04024e-12
1.32205e-11
1.63044e-11
-1.61047e-11
1.73357e-11
-2.66801e-11
5.76318e-12
-1.01339e-11
-5.25756e-12
1.80017e-12
-1.01067e-12
7.98379e-12
1.10582e-11
1.47675e-11
5.30633e-12
1.27227e-11
-1.73064e-12
1.15076e-11
2.0384e-12
5.90636e-12
1.1584e-11
7.60265e-12
9.21963e-12
2.27843e-12
-9.44958e-12
-2.69416e-12
-1.48684e-11
-3.56722e-12
4.48788e-12
-5.84076e-12
1.13404e-11
2.19859e-12
-1.252e-12
1.73751e-11
3.17266e-12
1.48791e-11
4.86129e-12
-2.1239e-11
-2.65303e-11
8.32214e-12
2.70257e-11
9.29533e-12
-4.44961e-12
4.00061e-12
1.40057e-11
1.02765e-11
2.84921e-12
-3.49687e-13
5.57189e-12
9.19275e-12
-3.497e-12
-1.15242e-11
1.40219e-11
2.79161e-11
6.40689e-12
1.0264e-12
)
;

boundaryField
{
    sides
    {
        type            calculated;
        value           uniform 0;
    }
    inlet
    {
        type            calculated;
        value           uniform 0;
    }
    outlet
    {
        type            calculated;
        value           nonuniform List<scalar> 
20
(
-3.51211e-12
3.99687e-12
4.71782e-12
-3.31841e-13
-6.26761e-12
-1.63213e-11
-2.13704e-11
-1.92843e-11
-3.87003e-11
1.98698e-12
-1.33749e-11
2.24053e-12
1.68832e-11
2.75054e-11
3.01279e-11
2.30154e-11
1.27402e-11
7.26193e-12
1.20421e-11
1.36451e-11
)
;
    }
    frontAndBack
    {
        type            empty;
        value           nonuniform List<scalar> 0();
    }
}


// ************************************************************************* //
