/*--------------------------------*- C++ -*----------------------------------*\
  =========                 |
  \\      /  F ield         | OpenFOAM: The Open Source CFD Toolbox
   \\    /   O peration     | Website:  https://openfoam.org
    \\  /    A nd           | Version:  9
     \\/     M anipulation  |
\*---------------------------------------------------------------------------*/
FoamFile
{
    format      ascii;
    class       volVectorField;
    location    "72";
    object      hU;
}
// * * * * * * * * * * * * * * * * * * * * * * * * * * * * * * * * * * * * * //

dimensions      [0 2 -1 0 0 0 0];

internalField   nonuniform List<vector> 
400
(
(0.001 -2.39288e-08 0)
(0.00100004 -7.02566e-08 0)
(0.00100012 -1.13068e-07 0)
(0.00100024 -1.52482e-07 0)
(0.00100039 -1.87519e-07 0)
(0.00100058 -2.16871e-07 0)
(0.00100078 -2.36664e-07 0)
(0.00100099 -2.4472e-07 0)
(0.00100118 -2.35596e-07 0)
(0.00100132 -2.10454e-07 0)
(0.0010014 -1.67869e-07 0)
(0.0010014 -1.28443e-07 0)
(0.00100129 -9.90156e-08 0)
(0.00100111 -9.31123e-08 0)
(0.00100087 -9.96907e-08 0)
(0.00100064 -1.35492e-07 0)
(0.00100043 -1.56238e-07 0)
(0.00100034 -2.00838e-07 0)
(0.00100026 -1.88502e-07 0)
(0.00100033 -2.68316e-07 0)
(0.001 -2.60931e-08 0)
(0.00100005 -7.81876e-08 0)
(0.00100013 -1.27889e-07 0)
(0.00100026 -1.74216e-07 0)
(0.00100042 -2.13709e-07 0)
(0.00100062 -2.40401e-07 0)
(0.00100084 -2.45089e-07 0)
(0.00100108 -2.19086e-07 0)
(0.0010013 -1.53114e-07 0)
(0.00100147 -4.65368e-08 0)
(0.00100156 9.43808e-08 0)
(0.00100154 2.47233e-07 0)
(0.00100141 3.89331e-07 0)
(0.00100119 4.7656e-07 0)
(0.00100092 5.04882e-07 0)
(0.00100067 4.51999e-07 0)
(0.00100048 3.78921e-07 0)
(0.00100036 2.57972e-07 0)
(0.00100033 2.06609e-07 0)
(0.00100029 8.17359e-08 0)
(0.001 -5.21524e-08 0)
(0.00100004 -1.58354e-07 0)
(0.00100013 -2.66237e-07 0)
(0.00100026 -3.73514e-07 0)
(0.00100043 -4.73656e-07 0)
(0.00100064 -5.55308e-07 0)
(0.0010009 -6.02809e-07 0)
(0.00100117 -5.96877e-07 0)
(0.00100143 -5.16785e-07 0)
(0.00100164 -3.5139e-07 0)
(0.00100176 -1.1018e-07 0)
(0.00100175 1.61653e-07 0)
(0.00100159 4.01039e-07 0)
(0.0010013 5.20156e-07 0)
(0.00100095 4.9958e-07 0)
(0.00100062 3.53759e-07 0)
(0.00100037 2.03137e-07 0)
(0.00100026 4.66505e-08 0)
(0.00100022 -1.84094e-09 0)
(0.00100029 -1.16336e-07 0)
(0.001 -7.3476e-08 0)
(0.00100004 -2.21619e-07 0)
(0.00100013 -3.73884e-07 0)
(0.00100026 -5.29692e-07 0)
(0.00100045 -6.80249e-07 0)
(0.00100069 -8.09766e-07 0)
(0.001001 -8.89451e-07 0)
(0.00100134 -8.8557e-07 0)
(0.00100171 -7.55163e-07 0)
(0.00100203 -4.74728e-07 0)
(0.00100222 -2.4279e-08 0)
(0.00100219 4.9182e-07 0)
(0.00100192 9.36177e-07 0)
(0.00100146 1.13995e-06 0)
(0.00100097 1.05545e-06 0)
(0.00100058 7.43061e-07 0)
(0.00100041 4.2298e-07 0)
(0.00100035 1.69597e-07 0)
(0.0010004 1.03005e-07 0)
(0.00100034 1.23552e-09 0)
(0.001 -9.11043e-08 0)
(0.00100004 -2.77274e-07 0)
(0.00100012 -4.75749e-07 0)
(0.00100025 -6.92776e-07 0)
(0.00100044 -9.2007e-07 0)
(0.00100072 -1.13964e-06 0)
(0.00100109 -1.30004e-06 0)
(0.00100155 -1.33726e-06 0)
(0.00100206 -1.17491e-06 0)
(0.00100256 -7.78467e-07 0)
(0.0010029 -1.71012e-07 0)
(0.00100288 5.77264e-07 0)
(0.00100244 1.23057e-06 0)
(0.00100167 1.51219e-06 0)
(0.00100086 1.37614e-06 0)
(0.00100031 9.64837e-07 0)
(0.00100013 5.80244e-07 0)
(0.00100021 3.13364e-07 0)
(0.00100036 2.63015e-07 0)
(0.00100043 1.6878e-07 0)
(0.001 -1.03395e-07 0)
(0.00100003 -3.17803e-07 0)
(0.00100008 -5.60853e-07 0)
(0.00100019 -8.4342e-07 0)
(0.00100038 -1.1724e-06 0)
(0.00100068 -1.52606e-06 0)
(0.00100115 -1.86014e-06 0)
(0.00100178 -2.05387e-06 0)
(0.00100254 -1.91097e-06 0)
(0.00100326 -1.20096e-06 0)
(0.00100377 8.47888e-08 0)
(0.00100378 1.54192e-06 0)
(0.00100309 2.43253e-06 0)
(0.00100192 2.30505e-06 0)
(0.00100082 1.43071e-06 0)
(0.00100019 4.92403e-07 0)
(0.00100017 1.20818e-08 0)
(0.00100037 -8.64579e-08 0)
(0.00100064 6.06744e-08 0)
(0.00100054 5.06548e-08 0)
(0.001 -1.0251e-07 0)
(0.001 -3.32888e-07 0)
(0.00100002 -6.00832e-07 0)
(0.00100008 -9.61052e-07 0)
(0.00100021 -1.39254e-06 0)
(0.00100048 -1.94728e-06 0)
(0.001001 -2.48961e-06 0)
(0.00100188 -3.0836e-06 0)
(0.00100321 -3.23364e-06 0)
(0.00100473 -2.87904e-06 0)
(0.00100574 -6.74788e-07 0)
(0.00100535 2.55442e-06 0)
(0.00100349 4.82663e-06 0)
(0.00100112 4.7358e-06 0)
(0.000999608 3.02818e-06 0)
(0.000999371 1.26337e-06 0)
(0.001 4.29819e-07 0)
(0.00100056 3.25602e-07 0)
(0.00100092 5.62575e-07 0)
(0.00100065 5.3463e-07 0)
(0.000999996 -9.24737e-08 0)
(0.000999968 -2.88392e-07 0)
(0.000999907 -5.76251e-07 0)
(0.000999875 -9.56219e-07 0)
(0.000999877 -1.5778e-06 0)
(0.00100009 -2.34538e-06 0)
(0.0010005 -3.40222e-06 0)
(0.00100152 -4.12407e-06 0)
(0.00100308 -4.37164e-06 0)
(0.00100601 -2.54971e-06 0)
(0.00100911 7.54983e-07 0)
(0.00100915 4.26476e-06 0)
(0.0010055 4.71852e-06 0)
(0.00100074 2.78203e-06 0)
(0.000998151 7.34449e-07 0)
(0.000998274 -2.7586e-07 0)
(0.000999797 -2.87272e-07 0)
(0.00100087 -1.07207e-08 0)
(0.00100133 2.12187e-07 0)
(0.00100085 1.03203e-07 0)
(0.000999995 -4.92826e-08 0)
(0.000999915 -2.03739e-07 0)
(0.000999755 -3.86129e-07 0)
(0.00099953 -7.34586e-07 0)
(0.000999287 -1.33866e-06 0)
(0.00099921 -2.48158e-06 0)
(0.000999705 -4.68724e-06 0)
(0.00100139 -8.06828e-06 0)
(0.00100491 -1.32848e-05 0)
(0.00100958 -1.49126e-05 0)
(0.00101188 3.84312e-06 0)
(0.00100893 1.87283e-05 0)
(0.00100221 1.57819e-05 0)
(0.000997565 5.74175e-06 0)
(0.000996885 -3.16827e-07 0)
(0.000998461 -1.2644e-06 0)
(0.00100027 -9.53779e-08 0)
(0.001001 6.33775e-07 0)
(0.00100107 6.51768e-07 0)
(0.00100054 2.4405e-07 0)
(0.000999804 -1.99625e-08 0)
(0.00100017 -6.68146e-08 0)
(0.000999215 -1.51326e-07 0)
(0.000999904 -2.48398e-07 0)
(0.00099752 -5.92087e-07 0)
(0.000998842 -1.13158e-06 0)
(0.000993345 -2.88395e-06 0)
(0.000997529 -5.59316e-06 0)
(0.000991666 -1.15428e-05 0)
(0.000915832 -1.27036e-05 0)
(0.000951463 2.72708e-07 0)
(0.00101023 1.46416e-05 0)
(0.000990948 1.30857e-05 0)
(0.000983972 5.14119e-06 0)
(0.000989585 1.94099e-07 0)
(0.000996281 -7.8168e-07 0)
(0.000999236 -1.11825e-07 0)
(0.000999411 2.4771e-07 0)
(0.000998646 1.7399e-07 0)
(0.000998504 -1.84764e-07 0)
(0.000999804 1.29533e-08 0)
(0.00100017 4.56728e-08 0)
(0.000999215 1.17172e-07 0)
(0.000999902 1.99956e-07 0)
(0.000997518 5.29557e-07 0)
(0.000998837 1.05117e-06 0)
(0.000993337 2.78582e-06 0)
(0.000997518 5.47315e-06 0)
(0.00099165 1.13973e-05 0)
(0.00091581 1.25485e-05 0)
(0.00095143 -4.62241e-07 0)
(0.0010102 -1.49036e-05 0)
(0.000990942 -1.34085e-05 0)
(0.000983963 -5.53535e-06 0)
(0.000989566 -6.48243e-07 0)
(0.000996243 2.48287e-07 0)
(0.000999194 -4.72347e-07 0)
(0.000999365 -1.00255e-06 0)
(0.000998632 -9.88816e-07 0)
(0.000998454 -8.88664e-07 0)
(0.000999995 4.27144e-08 0)
(0.000999915 1.83637e-07 0)
(0.000999755 3.52795e-07 0)
(0.00099953 6.86739e-07 0)
(0.000999284 1.27638e-06 0)
(0.000999209 2.40134e-06 0)
(0.0009997 4.58878e-06 0)
(0.00100139 7.94322e-06 0)
(0.0010049 1.31316e-05 0)
(0.00100959 1.47162e-05 0)
(0.00101189 -4.07737e-06 0)
(0.00100889 -1.90109e-05 0)
(0.00100213 -1.60979e-05 0)
(0.000997475 -6.12427e-06 0)
(0.000996813 -8.46495e-08 0)
(0.0009984 7.75462e-07 0)
(0.00100016 -4.26793e-07 0)
(0.00100085 -1.30461e-06 0)
(0.00100088 -1.37906e-06 0)
(0.00100037 -1.25062e-06 0)
(0.000999996 8.64574e-08 0)
(0.000999967 2.69679e-07 0)
(0.000999905 5.43858e-07 0)
(0.000999871 9.09095e-07 0)
(0.000999869 1.51302e-06 0)
(0.00100008 2.2615e-06 0)
(0.00100048 3.29399e-06 0)
(0.00100148 3.99209e-06 0)
(0.00100303 4.21146e-06 0)
(0.00100593 2.36253e-06 0)
(0.00100901 -9.91478e-07 0)
(0.00100907 -4.54451e-06 0)
(0.00100543 -5.02217e-06 0)
(0.00100066 -3.13111e-06 0)
(0.000998057 -1.13189e-06 0)
(0.000998133 -2.51287e-07 0)
(0.00099962 -3.21439e-07 0)
(0.00100064 -7.40055e-07 0)
(0.00100106 -9.66513e-07 0)
(0.00100055 -1.07367e-06 0)
(0.001 9.68108e-08 0)
(0.001 3.14944e-07 0)
(0.00100002 5.70234e-07 0)
(0.00100007 9.16136e-07 0)
(0.0010002 1.33284e-06 0)
(0.00100046 1.87102e-06 0)
(0.00100097 2.39933e-06 0)
(0.00100185 2.97547e-06 0)
(0.00100317 3.11262e-06 0)
(0.00100468 2.73329e-06 0)
(0.00100568 5.18325e-07 0)
(0.00100527 -2.74858e-06 0)
(0.00100339 -5.07615e-06 0)
(0.00100097 -5.07024e-06 0)
(0.000999409 -3.44987e-06 0)
(0.000999121 -1.79403e-06 0)
(0.000999743 -1.01938e-06 0)
(0.00100025 -1.05742e-06 0)
(0.00100061 -1.3065e-06 0)
(0.00100024 -1.51542e-06 0)
(0.001 9.78837e-08 0)
(0.00100002 3.0149e-07 0)
(0.00100008 5.33781e-07 0)
(0.00100018 8.04368e-07 0)
(0.00100036 1.12097e-06 0)
(0.00100066 1.45956e-06 0)
(0.00100112 1.77862e-06 0)
(0.00100174 1.95069e-06 0)
(0.00100248 1.78294e-06 0)
(0.00100317 1.0374e-06 0)
(0.00100366 -2.74629e-07 0)
(0.00100363 -1.77749e-06 0)
(0.00100292 -2.70708e-06 0)
(0.00100171 -2.63075e-06 0)
(0.00100058 -1.77935e-06 0)
(0.000999903 -8.95423e-07 0)
(0.000999857 -4.26004e-07 0)
(0.000999981 -4.46722e-07 0)
(0.00100022 -6.16325e-07 0)
(0.00100001 -8.48751e-07 0)
(0.001 8.58672e-08 0)
(0.00100004 2.62852e-07 0)
(0.00100011 4.52405e-07 0)
(0.00100024 6.60335e-07 0)
(0.00100043 8.77483e-07 0)
(0.00100069 1.08478e-06 0)
(0.00100105 1.23013e-06 0)
(0.0010015 1.25219e-06 0)
(0.001002 1.07263e-06 0)
(0.00100248 6.57445e-07 0)
(0.0010028 1.99391e-08 0)
(0.00100274 -7.67643e-07 0)
(0.00100227 -1.4483e-06 0)
(0.00100146 -1.7742e-06 0)
(0.00100062 -1.66866e-06 0)
(0.001 -1.34834e-06 0)
(0.000999793 -1.02846e-06 0)
(0.000999765 -9.36183e-07 0)
(0.000999884 -9.45696e-07 0)
(0.000999767 -1.1088e-06 0)
(0.001 6.90418e-08 0)
(0.00100004 2.08622e-07 0)
(0.00100012 3.5249e-07 0)
(0.00100025 5.00276e-07 0)
(0.00100043 6.43799e-07 0)
(0.00100066 7.65981e-07 0)
(0.00100095 8.37619e-07 0)
(0.00100128 8.25107e-07 0)
(0.00100163 6.89988e-07 0)
(0.00100191 4.05434e-07 0)
(0.00100206 -4.68642e-08 0)
(0.001002 -5.75135e-07 0)
(0.00100171 -1.03535e-06 0)
(0.0010012 -1.28202e-06 0)
(0.00100065 -1.23041e-06 0)
(0.00100016 -9.94573e-07 0)
(0.000999914 -7.01286e-07 0)
(0.00099974 -5.56163e-07 0)
(0.000999752 -4.87563e-07 0)
(0.00099956 -5.98591e-07 0)
(0.001 5.02897e-08 0)
(0.00100004 1.49235e-07 0)
(0.00100012 2.45615e-07 0)
(0.00100025 3.3763e-07 0)
(0.00100041 4.20961e-07 0)
(0.00100062 4.83141e-07 0)
(0.00100086 5.08527e-07 0)
(0.00100112 4.72826e-07 0)
(0.00100137 3.60606e-07 0)
(0.00100157 1.55158e-07 0)
(0.00100167 -1.16852e-07 0)
(0.0010016 -4.20943e-07 0)
(0.00100139 -6.81732e-07 0)
(0.00100103 -8.42928e-07 0)
(0.00100063 -8.50758e-07 0)
(0.00100022 -7.70922e-07 0)
(0.000999949 -6.37433e-07 0)
(0.000999689 -5.9606e-07 0)
(0.000999627 -5.61322e-07 0)
(0.000999387 -6.84687e-07 0)
(0.001 3.46363e-08 0)
(0.00100004 1.04615e-07 0)
(0.00100011 1.73954e-07 0)
(0.00100023 2.40741e-07 0)
(0.00100038 3.01348e-07 0)
(0.00100056 3.49241e-07 0)
(0.00100077 3.75046e-07 0)
(0.00100097 3.68603e-07 0)
(0.00100116 3.19599e-07 0)
(0.0010013 2.23949e-07 0)
(0.00100136 8.62408e-08 0)
(0.00100131 -7.02387e-08 0)
(0.00100115 -2.06017e-07 0)
(0.00100086 -2.97398e-07 0)
(0.00100054 -3.12402e-07 0)
(0.00100016 -2.81749e-07 0)
(0.0009999 -2.02354e-07 0)
(0.000999613 -1.68251e-07 0)
(0.000999517 -1.18259e-07 0)
(0.000999248 -1.9816e-07 0)
(0.001 -4.01758e-09 0)
(0.00100004 -9.83346e-09 0)
(0.00100012 -1.30484e-08 0)
(0.00100024 -1.51551e-08 0)
(0.00100038 -1.75521e-08 0)
(0.00100056 -2.32039e-08 0)
(0.00100075 -3.39635e-08 0)
(0.00100094 -5.35134e-08 0)
(0.00100111 -8.1837e-08 0)
(0.00100123 -1.22205e-07 0)
(0.00100128 -1.6986e-07 0)
(0.00100121 -2.31229e-07 0)
(0.00100107 -2.90464e-07 0)
(0.00100081 -3.41219e-07 0)
(0.00100053 -3.59547e-07 0)
(0.00100018 -3.67849e-07 0)
(0.000999945 -3.42229e-07 0)
(0.000999609 -3.52665e-07 0)
(0.000999522 -3.27742e-07 0)
(0.000999129 -4.10494e-07 0)
)
;

boundaryField
{
    sides
    {
        type            slip;
    }
    inlet
    {
        type            fixedValue;
        value           uniform (0.001 0 0);
    }
    outlet
    {
        type            zeroGradient;
    }
    frontAndBack
    {
        type            empty;
    }
}


// ************************************************************************* //
