/*--------------------------------*- C++ -*----------------------------------*\
  =========                 |
  \\      /  F ield         | OpenFOAM: The Open Source CFD Toolbox
   \\    /   O peration     | Website:  https://openfoam.org
    \\  /    A nd           | Version:  9
     \\/     M anipulation  |
\*---------------------------------------------------------------------------*/
FoamFile
{
    format      ascii;
    class       surfaceScalarField;
    location    "72";
    object      phi;
}
// * * * * * * * * * * * * * * * * * * * * * * * * * * * * * * * * * * * * * //

dimensions      [0 4 -1 0 0 0 0];

internalField   nonuniform List<scalar> 
760
(
5.0001e-06
-9.0948e-11
5.0004e-06
-3.03869e-10
5.00091e-06
-5.11726e-10
5.00161e-06
-7.06637e-10
5.00249e-06
-8.76705e-10
5.00349e-06
-1.00371e-09
5.00455e-06
-1.05571e-09
5.00556e-06
-1.00677e-09
5.00639e-06
-8.26036e-10
5.00691e-06
-5.18624e-10
5.00704e-06
-1.223e-10
5.00665e-06
3.94918e-10
5.00579e-06
8.52333e-10
5.00469e-06
1.10073e-09
5.00351e-06
1.16997e-09
5.00256e-06
9.52256e-10
5.00185e-06
7.15952e-10
5.0016e-06
2.46346e-10
5.0015e-06
1.10168e-10
-3.90558e-10
5.00012e-06
-2.11312e-10
5.00045e-06
-6.303e-10
5.00098e-06
-1.04324e-09
5.00172e-06
-1.44422e-09
5.00265e-06
-1.80796e-09
5.00374e-06
-2.09291e-09
5.00493e-06
-2.23969e-09
5.0061e-06
-2.18451e-09
5.00712e-06
-1.84608e-09
5.00777e-06
-1.1674e-09
5.00774e-06
-9.38947e-11
5.00725e-06
8.78688e-10
5.00626e-06
1.83732e-09
5.00495e-06
2.41084e-09
5.00367e-06
2.44091e-09
5.00277e-06
1.85527e-09
5.00224e-06
1.24367e-09
5.0019e-06
5.8036e-10
5.00165e-06
3.71637e-10
-1.44239e-10
5.00011e-06
-3.20867e-10
5.00042e-06
-9.49155e-10
5.00095e-06
-1.57264e-09
5.00172e-06
-2.20358e-09
5.00272e-06
-2.80477e-09
5.00394e-06
-3.31315e-09
5.00532e-06
-3.62048e-09
5.00672e-06
-3.59214e-09
5.00792e-06
-3.05585e-09
5.00872e-06
-1.96304e-09
5.00893e-06
-3.12608e-10
5.00825e-06
1.56072e-09
5.00686e-06
3.21717e-09
5.00515e-06
4.13125e-09
5.0035e-06
4.0915e-09
5.00231e-06
3.05216e-09
5.00166e-06
1.88291e-09
5.00147e-06
7.65567e-10
5.00144e-06
4.01208e-10
-2.18811e-10
5.0001e-06
-4.2212e-10
5.0004e-06
-1.25802e-09
5.00094e-06
-2.1066e-09
5.00174e-06
-3.00323e-09
5.00285e-06
-3.90863e-09
5.00429e-06
-4.74721e-09
5.00601e-06
-5.35688e-09
5.00795e-06
-5.52801e-09
5.00983e-06
-4.94998e-09
5.01107e-06
-3.19202e-09
5.01119e-06
-4.39908e-10
5.00999e-06
2.76618e-09
5.00765e-06
5.56675e-09
5.00514e-06
6.63763e-09
5.00347e-06
5.7666e-09
5.0027e-06
3.82928e-09
5.00248e-06
2.10441e-09
5.0023e-06
9.32165e-10
5.00199e-06
7.12968e-10
3.43221e-10
5.00008e-06
-5.03913e-10
5.00034e-06
-1.51714e-09
5.00083e-06
-2.5996e-09
5.00163e-06
-3.80412e-09
5.00286e-06
-5.12988e-09
5.00457e-06
-6.46958e-09
5.00679e-06
-7.57983e-09
5.00941e-06
-8.14758e-09
5.01238e-06
-7.91394e-09
5.01477e-06
-5.59512e-09
5.01482e-06
-4.65422e-10
5.01284e-06
4.73703e-09
5.00866e-06
9.74249e-09
5.00459e-06
1.07178e-08
5.00223e-06
8.12219e-09
5.00174e-06
4.32543e-09
5.00204e-06
1.80184e-09
5.00225e-06
7.22046e-10
5.002e-06
9.57769e-10
6.32359e-10
5.00004e-06
-5.44308e-10
5.00019e-06
-1.67378e-09
5.00053e-06
-2.94099e-09
5.00121e-06
-4.47697e-09
5.0024e-06
-6.33237e-09
5.00451e-06
-8.58178e-09
5.00759e-06
-1.06554e-08
5.01167e-06
-1.22152e-08
5.01552e-06
-1.17715e-08
5.01901e-06
-9.0778e-09
5.02019e-06
-1.67061e-09
5.01602e-06
8.94869e-09
5.0095e-06
1.6246e-08
5.00421e-06
1.6004e-08
5.00216e-06
1.01621e-08
5.00249e-06
4.00068e-09
5.00326e-06
1.02822e-09
5.00339e-06
5.97745e-10
5.00279e-06
1.55388e-09
1.42784e-09
4.99998e-06
-5.2373e-10
4.99994e-06
-1.63272e-09
5.00003e-06
-3.03476e-09
5.00036e-06
-4.80901e-09
5.00121e-06
-7.19336e-09
5.00291e-06
-1.02802e-08
5.0068e-06
-1.45324e-08
5.01392e-06
-1.9334e-08
5.02373e-06
-2.16088e-08
5.03094e-06
-1.62229e-08
5.02872e-06
4.98515e-10
5.01671e-06
2.09344e-08
5.00418e-06
2.88148e-08
4.99873e-06
2.14536e-08
5.00057e-06
8.3111e-09
5.00284e-06
1.72553e-09
5.00371e-06
1.57794e-10
5.00366e-06
6.50905e-10
5.00304e-06
2.16879e-09
1.6857e-09
4.99987e-06
-3.90059e-10
4.99955e-06
-1.31997e-09
4.99912e-06
-2.6093e-09
4.99885e-06
-4.54019e-09
4.99932e-06
-7.66823e-09
5.00035e-06
-1.13047e-08
5.00364e-06
-1.78226e-08
5.00981e-06
-2.55111e-08
5.02488e-06
-3.66512e-08
5.0561e-06
-4.75012e-08
5.05009e-06
5.6003e-09
5.02317e-06
4.77803e-08
4.99817e-06
5.38096e-08
4.9935e-06
2.61414e-08
4.99947e-06
2.34142e-09
5.00407e-06
-2.88269e-09
5.0049e-06
-6.75876e-10
5.00372e-06
1.83124e-09
5.0035e-06
2.38308e-09
9.72476e-10
4.99977e-06
-1.59174e-10
4.99915e-06
-7.05814e-10
4.99792e-06
-1.37827e-09
4.9961e-06
-2.73009e-09
4.99401e-06
-5.57626e-09
4.99374e-06
-1.10283e-08
4.99944e-06
-2.35325e-08
5.01713e-06
-4.32009e-08
5.05569e-06
-7.524e-08
5.06683e-06
-5.85715e-08
5.04967e-06
2.36766e-08
4.99649e-06
1.0104e-07
4.9893e-06
6.10231e-08
4.9959e-06
1.95413e-08
5.00019e-06
-1.94024e-09
5.00293e-06
-5.61856e-09
5.00252e-06
-2.79107e-10
5.00183e-06
2.51381e-09
5.00254e-06
1.67797e-09
6.73259e-11
4.99986e-06
-1.75016e-11
4.9992e-06
-5.31422e-11
4.99791e-06
-8.6839e-11
4.9953e-06
-1.26061e-10
4.98989e-06
-1.67013e-10
4.97908e-06
-2.19604e-10
4.95581e-06
-2.73041e-10
4.91295e-06
-3.34206e-10
4.83814e-06
-4.04524e-10
4.77995e-06
-4.51994e-10
4.80429e-06
-5.67742e-10
4.90604e-06
-7.08136e-10
4.96777e-06
-7.4145e-10
4.98822e-06
-8.97173e-10
4.98745e-06
-1.16076e-09
4.98326e-06
-1.42658e-09
4.98455e-06
-1.5594e-09
4.98889e-06
-1.83021e-09
4.99247e-06
-1.89724e-09
-2.58515e-09
4.99986e-06
1.25434e-10
4.9992e-06
5.99911e-10
4.99791e-06
1.20898e-09
4.99529e-06
2.48181e-09
4.98987e-06
5.25143e-09
4.97905e-06
1.06e-08
4.95576e-06
2.30094e-08
4.91289e-06
4.25416e-08
4.83804e-06
7.44622e-08
4.77974e-06
5.78399e-08
4.80424e-06
-2.51072e-08
4.90597e-06
-1.02458e-07
4.96775e-06
-6.25226e-08
4.98805e-06
-2.12021e-08
4.98735e-06
-4.52725e-10
4.98293e-06
2.99865e-09
4.98442e-06
-3.05032e-09
4.98888e-06
-6.28642e-09
4.99234e-06
-5.35944e-09
-4.98431e-09
4.99977e-06
3.58282e-10
4.99915e-06
1.22078e-09
4.99792e-06
2.43904e-09
4.9961e-06
4.29205e-09
4.99401e-06
7.33181e-09
4.99373e-06
1.08867e-08
4.99942e-06
1.73165e-08
5.01707e-06
2.49001e-08
5.05562e-06
3.59022e-08
5.06717e-06
4.63436e-08
5.04941e-06
-8.46226e-09
4.99606e-06
-4.91487e-08
4.98883e-06
-5.52801e-08
4.99568e-06
-2.80566e-08
5.0001e-06
-4.86917e-09
5.00231e-06
7.89967e-10
5.00164e-06
-2.38821e-09
5.00089e-06
-5.53159e-09
5.00168e-06
-6.13706e-09
-5.9515e-09
4.99986e-06
4.93878e-10
4.99954e-06
1.53863e-09
4.99911e-06
2.87322e-09
4.99882e-06
4.57177e-09
4.99927e-06
6.88403e-09
5.00026e-06
9.89438e-09
5.00348e-06
1.41076e-08
5.00959e-06
1.87718e-08
5.02459e-06
2.09216e-08
5.05547e-06
1.54113e-08
5.0498e-06
-1.6668e-09
5.02285e-06
-2.21493e-08
4.99787e-06
-3.03155e-08
4.99316e-06
-2.33389e-08
4.99863e-06
-1.03487e-08
5.00344e-06
-4.02103e-09
5.00372e-06
-2.66689e-09
5.00235e-06
-4.15562e-09
5.00216e-06
-5.94345e-09
-6.53588e-09
4.99998e-06
5.15666e-10
4.99992e-06
1.58656e-09
5e-06
2.79508e-09
5.0003e-06
4.26839e-09
5.00113e-06
6.06027e-09
5.00279e-06
8.23329e-09
5.00668e-06
1.02212e-08
5.01377e-06
1.1666e-08
5.02355e-06
1.11332e-08
5.03069e-06
8.28779e-09
5.0284e-06
6.56086e-10
5.01625e-06
-1.00203e-08
5.00351e-06
-1.75445e-08
4.99778e-06
-1.76047e-08
4.99941e-06
-1.19878e-08
5.0016e-06
-6.21849e-09
5.00239e-06
-3.46054e-09
5.00212e-06
-3.88496e-09
5.00119e-06
-5.00921e-09
-5.97883e-09
5.00004e-06
4.76532e-10
5.00018e-06
1.43988e-09
5.0005e-06
2.47315e-09
5.00114e-06
3.62391e-09
5.00231e-06
4.89316e-09
5.00439e-06
6.16096e-09
5.00741e-06
7.19871e-09
5.01139e-06
7.68509e-09
5.01512e-06
7.38365e-09
5.01852e-06
4.88966e-09
5.01955e-06
-3.79803e-10
5.01523e-06
-5.68107e-09
5.00854e-06
-1.08577e-08
5.00311e-06
-1.21768e-08
5.00087e-06
-9.75713e-09
5.001e-06
-6.35048e-09
5.00154e-06
-4.00619e-09
5.00131e-06
-3.64952e-09
5.00035e-06
-4.04918e-09
-4.97985e-09
5.00007e-06
3.97372e-10
5.00032e-06
1.19336e-09
5.00079e-06
2.00301e-09
5.00156e-06
2.85337e-09
5.00274e-06
3.71269e-09
5.0044e-06
4.50181e-09
5.00655e-06
5.05126e-09
5.00909e-06
5.147e-09
5.01202e-06
4.44361e-09
5.0144e-06
2.50517e-09
5.01414e-06
-1.35906e-10
5.01208e-06
-3.63138e-09
5.00775e-06
-6.53534e-09
5.00348e-06
-7.91534e-09
5.00092e-06
-7.19627e-09
5.00012e-06
-5.55412e-09
5.0001e-06
-3.98211e-09
4.99987e-06
-3.42002e-09
4.99917e-06
-3.34469e-09
-4.17495e-09
5.00009e-06
2.98811e-10
5.00039e-06
8.97483e-10
5.0009e-06
1.49342e-09
5.00167e-06
2.08672e-09
5.00273e-06
2.64954e-09
5.00411e-06
3.11537e-09
5.00578e-06
3.38344e-09
5.00763e-06
3.30756e-09
5.00932e-06
2.74744e-09
5.01026e-06
1.5653e-09
5.01043e-06
-3.03887e-10
5.00902e-06
-2.23545e-09
5.0065e-06
-4.01174e-09
5.00366e-06
-5.08599e-09
5.00153e-06
-5.06499e-09
5.00034e-06
-4.35557e-09
4.9997e-06
-3.34034e-09
4.99916e-06
-2.88265e-09
4.99845e-06
-2.62505e-09
-3.21668e-09
5.0001e-06
1.96856e-10
5.00041e-06
5.92052e-10
5.00092e-06
9.79813e-10
5.00166e-06
1.35246e-09
5.00261e-06
1.69199e-09
5.00377e-06
1.95074e-09
5.00509e-06
2.06675e-09
5.00644e-06
1.95506e-09
5.00764e-06
1.554e-09
5.00838e-06
8.27039e-10
5.00821e-06
-1.28689e-10
5.00733e-06
-1.35731e-09
5.0057e-06
-2.37649e-09
5.00367e-06
-3.06669e-09
5.00178e-06
-3.17051e-09
5.00033e-06
-2.89676e-09
4.99931e-06
-2.32077e-09
4.99852e-06
-2.08785e-09
4.99772e-06
-1.8293e-09
-2.27755e-09
5.00008e-06
1.13611e-10
5.00037e-06
3.04198e-10
5.00086e-06
4.91147e-10
5.00155e-06
6.7027e-10
5.00241e-06
8.30362e-10
5.00341e-06
9.4764e-10
5.00448e-06
9.94089e-10
5.0055e-06
9.33786e-10
5.00632e-06
7.35142e-10
5.00679e-06
3.61485e-10
5.0068e-06
-1.40556e-10
5.00607e-06
-6.25565e-10
5.00479e-06
-1.08916e-09
5.00314e-06
-1.42701e-09
5.00147e-06
-1.49923e-09
5.00001e-06
-1.43557e-09
4.99888e-06
-1.18342e-09
4.99792e-06
-1.13002e-09
4.99706e-06
-9.72927e-10
-1.42372e-09
5.00011e-06
5.00042e-06
5.00091e-06
5.00158e-06
5.00241e-06
5.00336e-06
5.00436e-06
5.00529e-06
5.00603e-06
5.00639e-06
5.00625e-06
5.00562e-06
5.00453e-06
5.0031e-06
5.00159e-06
5.00016e-06
4.99898e-06
4.99785e-06
4.99686e-06
)
;

boundaryField
{
    sides
    {
        type            calculated;
        value           uniform 0;
    }
    inlet
    {
        type            calculated;
        value           nonuniform List<scalar> 
20
(
-5e-06
-5e-06
-5e-06
-5e-06
-5e-06
-5e-06
-5e-06
-5e-06
-5e-06
-5e-06
-5e-06
-5e-06
-5e-06
-5e-06
-5e-06
-5e-06
-5e-06
-5e-06
-5e-06
-5e-06
)
;
    }
    outlet
    {
        type            calculated;
        value           nonuniform List<scalar> 
20
(
5.00189e-06
5.0014e-06
5.00151e-06
5.00142e-06
5.00171e-06
5.00199e-06
5.00278e-06
5.00421e-06
5.00343e-06
4.99513e-06
4.99474e-06
5.00265e-06
5.00275e-06
5.00063e-06
4.99935e-06
4.99836e-06
4.99749e-06
4.99679e-06
4.9962e-06
4.99544e-06
)
;
    }
    frontAndBack
    {
        type            empty;
        value           nonuniform List<scalar> 0();
    }
}


// ************************************************************************* //
